   2   2   1   0
  0.3647508E+02  0.2294499E-09  0.2294499E-09  0.1600000E-08  0.5000000E-15
  1.000000000000000E-004
  CAR 
 unknown system                          
     18.21948594    -32.33729243 6001     -5.12918788      1.00000000
    -32.337  0.0000E+00  0.0000E+00
    -32.329  0.0000E+00  0.0000E+00
    -32.320  0.0000E+00  0.0000E+00
    -32.312  0.0000E+00  0.0000E+00
    -32.304  0.0000E+00  0.0000E+00
    -32.295  0.0000E+00  0.0000E+00
    -32.287  0.0000E+00  0.0000E+00
    -32.278  0.0000E+00  0.0000E+00
    -32.270  0.0000E+00  0.0000E+00
    -32.261  0.0000E+00  0.0000E+00
    -32.253  0.0000E+00  0.0000E+00
    -32.245  0.0000E+00  0.0000E+00
    -32.236  0.0000E+00  0.0000E+00
    -32.228  0.0000E+00  0.0000E+00
    -32.219  0.0000E+00  0.0000E+00
    -32.211  0.0000E+00  0.0000E+00
    -32.202  0.0000E+00  0.0000E+00
    -32.194  0.0000E+00  0.0000E+00
    -32.186  0.0000E+00  0.0000E+00
    -32.177  0.0000E+00  0.0000E+00
    -32.169  0.0000E+00  0.0000E+00
    -32.160  0.0000E+00  0.0000E+00
    -32.152  0.0000E+00  0.0000E+00
    -32.143  0.0000E+00  0.0000E+00
    -32.135  0.0000E+00  0.0000E+00
    -32.127  0.0000E+00  0.0000E+00
    -32.118  0.0000E+00  0.0000E+00
    -32.110  0.0000E+00  0.0000E+00
    -32.101  0.0000E+00  0.0000E+00
    -32.093  0.0000E+00  0.0000E+00
    -32.085  0.0000E+00  0.0000E+00
    -32.076  0.0000E+00  0.0000E+00
    -32.068  0.0000E+00  0.0000E+00
    -32.059  0.0000E+00  0.0000E+00
    -32.051  0.0000E+00  0.0000E+00
    -32.042  0.0000E+00  0.0000E+00
    -32.034  0.0000E+00  0.0000E+00
    -32.026  0.0000E+00  0.0000E+00
    -32.017  0.0000E+00  0.0000E+00
    -32.009  0.0000E+00  0.0000E+00
    -32.000  0.0000E+00  0.0000E+00
    -31.992  0.0000E+00  0.0000E+00
    -31.983  0.0000E+00  0.0000E+00
    -31.975  0.0000E+00  0.0000E+00
    -31.967  0.0000E+00  0.0000E+00
    -31.958  0.0000E+00  0.0000E+00
    -31.950  0.0000E+00  0.0000E+00
    -31.941  0.0000E+00  0.0000E+00
    -31.933  0.0000E+00  0.0000E+00
    -31.924  0.0000E+00  0.0000E+00
    -31.916  0.0000E+00  0.0000E+00
    -31.908  0.0000E+00  0.0000E+00
    -31.899  0.0000E+00  0.0000E+00
    -31.891  0.0000E+00  0.0000E+00
    -31.882  0.0000E+00  0.0000E+00
    -31.874  0.0000E+00  0.0000E+00
    -31.865  0.0000E+00  0.0000E+00
    -31.857  0.0000E+00  0.0000E+00
    -31.849  0.0000E+00  0.0000E+00
    -31.840  0.0000E+00  0.0000E+00
    -31.832  0.0000E+00  0.0000E+00
    -31.823  0.0000E+00  0.0000E+00
    -31.815  0.0000E+00  0.0000E+00
    -31.806  0.0000E+00  0.0000E+00
    -31.798  0.0000E+00  0.0000E+00
    -31.790  0.0000E+00  0.0000E+00
    -31.781  0.0000E+00  0.0000E+00
    -31.773  0.0000E+00  0.0000E+00
    -31.764  0.0000E+00  0.0000E+00
    -31.756  0.0000E+00  0.0000E+00
    -31.747  0.0000E+00  0.0000E+00
    -31.739  0.0000E+00  0.0000E+00
    -31.731  0.0000E+00  0.0000E+00
    -31.722  0.0000E+00  0.0000E+00
    -31.714  0.0000E+00  0.0000E+00
    -31.705  0.0000E+00  0.0000E+00
    -31.697  0.0000E+00  0.0000E+00
    -31.688  0.0000E+00  0.0000E+00
    -31.680  0.0000E+00  0.0000E+00
    -31.672  0.0000E+00  0.0000E+00
    -31.663  0.0000E+00  0.0000E+00
    -31.655  0.0000E+00  0.0000E+00
    -31.646  0.0000E+00  0.0000E+00
    -31.638  0.0000E+00  0.0000E+00
    -31.629  0.0000E+00  0.0000E+00
    -31.621  0.0000E+00  0.0000E+00
    -31.613  0.0000E+00  0.0000E+00
    -31.604  0.0000E+00  0.0000E+00
    -31.596  0.0000E+00  0.0000E+00
    -31.587  0.0000E+00  0.0000E+00
    -31.579  0.0000E+00  0.0000E+00
    -31.571  0.0000E+00  0.0000E+00
    -31.562  0.0000E+00  0.0000E+00
    -31.554  0.0000E+00  0.0000E+00
    -31.545  0.0000E+00  0.0000E+00
    -31.537  0.0000E+00  0.0000E+00
    -31.528  0.0000E+00  0.0000E+00
    -31.520  0.0000E+00  0.0000E+00
    -31.512  0.0000E+00  0.0000E+00
    -31.503  0.0000E+00  0.0000E+00
    -31.495  0.0000E+00  0.0000E+00
    -31.486  0.0000E+00  0.0000E+00
    -31.478  0.0000E+00  0.0000E+00
    -31.469  0.0000E+00  0.0000E+00
    -31.461  0.0000E+00  0.0000E+00
    -31.453  0.0000E+00  0.0000E+00
    -31.444  0.0000E+00  0.0000E+00
    -31.436  0.0000E+00  0.0000E+00
    -31.427  0.0000E+00  0.0000E+00
    -31.419  0.0000E+00  0.0000E+00
    -31.410  0.0000E+00  0.0000E+00
    -31.402  0.0000E+00  0.0000E+00
    -31.394  0.0000E+00  0.0000E+00
    -31.385  0.0000E+00  0.0000E+00
    -31.377  0.0000E+00  0.0000E+00
    -31.368  0.0000E+00  0.0000E+00
    -31.360  0.0000E+00  0.0000E+00
    -31.351  0.0000E+00  0.0000E+00
    -31.343  0.0000E+00  0.0000E+00
    -31.335  0.0000E+00  0.0000E+00
    -31.326  0.0000E+00  0.0000E+00
    -31.318  0.0000E+00  0.0000E+00
    -31.309  0.0000E+00  0.0000E+00
    -31.301  0.0000E+00  0.0000E+00
    -31.292  0.0000E+00  0.0000E+00
    -31.284  0.0000E+00  0.0000E+00
    -31.276  0.0000E+00  0.0000E+00
    -31.267  0.0000E+00  0.0000E+00
    -31.259  0.0000E+00  0.0000E+00
    -31.250  0.0000E+00  0.0000E+00
    -31.242  0.0000E+00  0.0000E+00
    -31.233  0.0000E+00  0.0000E+00
    -31.225  0.0000E+00  0.0000E+00
    -31.217  0.0000E+00  0.0000E+00
    -31.208  0.0000E+00  0.0000E+00
    -31.200  0.0000E+00  0.0000E+00
    -31.191  0.0000E+00  0.0000E+00
    -31.183  0.0000E+00  0.0000E+00
    -31.174  0.0000E+00  0.0000E+00
    -31.166  0.0000E+00  0.0000E+00
    -31.158  0.0000E+00  0.0000E+00
    -31.149  0.0000E+00  0.0000E+00
    -31.141  0.0000E+00  0.0000E+00
    -31.132  0.0000E+00  0.0000E+00
    -31.124  0.0000E+00  0.0000E+00
    -31.116  0.0000E+00  0.0000E+00
    -31.107  0.0000E+00  0.0000E+00
    -31.099  0.0000E+00  0.0000E+00
    -31.090  0.0000E+00  0.0000E+00
    -31.082  0.0000E+00  0.0000E+00
    -31.073  0.0000E+00  0.0000E+00
    -31.065  0.0000E+00  0.0000E+00
    -31.057  0.0000E+00  0.0000E+00
    -31.048  0.0000E+00  0.0000E+00
    -31.040  0.0000E+00  0.0000E+00
    -31.031  0.0000E+00  0.0000E+00
    -31.023  0.0000E+00  0.0000E+00
    -31.014  0.0000E+00  0.0000E+00
    -31.006  0.0000E+00  0.0000E+00
    -30.998  0.0000E+00  0.0000E+00
    -30.989  0.0000E+00  0.0000E+00
    -30.981  0.0000E+00  0.0000E+00
    -30.972  0.0000E+00  0.0000E+00
    -30.964  0.0000E+00  0.0000E+00
    -30.955  0.0000E+00  0.0000E+00
    -30.947  0.0000E+00  0.0000E+00
    -30.939  0.0000E+00  0.0000E+00
    -30.930  0.0000E+00  0.0000E+00
    -30.922  0.0000E+00  0.0000E+00
    -30.913  0.0000E+00  0.0000E+00
    -30.905  0.0000E+00  0.0000E+00
    -30.896  0.0000E+00  0.0000E+00
    -30.888  0.0000E+00  0.0000E+00
    -30.880  0.0000E+00  0.0000E+00
    -30.871  0.0000E+00  0.0000E+00
    -30.863  0.0000E+00  0.0000E+00
    -30.854  0.0000E+00  0.0000E+00
    -30.846  0.0000E+00  0.0000E+00
    -30.837  0.0000E+00  0.0000E+00
    -30.829  0.0000E+00  0.0000E+00
    -30.821  0.0000E+00  0.0000E+00
    -30.812  0.0000E+00  0.0000E+00
    -30.804  0.0000E+00  0.0000E+00
    -30.795  0.0000E+00  0.0000E+00
    -30.787  0.0000E+00  0.0000E+00
    -30.778  0.0000E+00  0.0000E+00
    -30.770  0.0000E+00  0.0000E+00
    -30.762  0.0000E+00  0.0000E+00
    -30.753  0.0000E+00  0.0000E+00
    -30.745  0.0000E+00  0.0000E+00
    -30.736  0.0000E+00  0.0000E+00
    -30.728  0.0000E+00  0.0000E+00
    -30.719  0.0000E+00  0.0000E+00
    -30.711  0.0000E+00  0.0000E+00
    -30.703  0.0000E+00  0.0000E+00
    -30.694  0.0000E+00  0.0000E+00
    -30.686  0.0000E+00  0.0000E+00
    -30.677  0.0000E+00  0.0000E+00
    -30.669  0.0000E+00  0.0000E+00
    -30.660  0.0000E+00  0.0000E+00
    -30.652  0.0000E+00  0.0000E+00
    -30.644  0.0000E+00  0.0000E+00
    -30.635  0.0000E+00  0.0000E+00
    -30.627  0.0000E+00  0.0000E+00
    -30.618  0.0000E+00  0.0000E+00
    -30.610  0.0000E+00  0.0000E+00
    -30.602  0.0000E+00  0.0000E+00
    -30.593  0.0000E+00  0.0000E+00
    -30.585  0.0000E+00  0.0000E+00
    -30.576  0.0000E+00  0.0000E+00
    -30.568  0.0000E+00  0.0000E+00
    -30.559  0.0000E+00  0.0000E+00
    -30.551  0.0000E+00  0.0000E+00
    -30.543  0.0000E+00  0.0000E+00
    -30.534  0.0000E+00  0.0000E+00
    -30.526  0.0000E+00  0.0000E+00
    -30.517  0.0000E+00  0.0000E+00
    -30.509  0.0000E+00  0.0000E+00
    -30.500  0.0000E+00  0.0000E+00
    -30.492  0.0000E+00  0.0000E+00
    -30.484  0.0000E+00  0.0000E+00
    -30.475  0.0000E+00  0.0000E+00
    -30.467  0.0000E+00  0.0000E+00
    -30.458  0.0000E+00  0.0000E+00
    -30.450  0.0000E+00  0.0000E+00
    -30.441  0.0000E+00  0.0000E+00
    -30.433  0.0000E+00  0.0000E+00
    -30.425  0.0000E+00  0.0000E+00
    -30.416  0.0000E+00  0.0000E+00
    -30.408  0.0000E+00  0.0000E+00
    -30.399  0.0000E+00  0.0000E+00
    -30.391  0.0000E+00  0.0000E+00
    -30.382  0.0000E+00  0.0000E+00
    -30.374  0.0000E+00  0.0000E+00
    -30.366  0.0000E+00  0.0000E+00
    -30.357  0.0000E+00  0.0000E+00
    -30.349  0.0000E+00  0.0000E+00
    -30.340  0.0000E+00  0.0000E+00
    -30.332  0.0000E+00  0.0000E+00
    -30.323  0.0000E+00  0.0000E+00
    -30.315  0.0000E+00  0.0000E+00
    -30.307  0.0000E+00  0.0000E+00
    -30.298  0.0000E+00  0.0000E+00
    -30.290  0.0000E+00  0.0000E+00
    -30.281  0.0000E+00  0.0000E+00
    -30.273  0.0000E+00  0.0000E+00
    -30.264  0.0000E+00  0.0000E+00
    -30.256  0.0000E+00  0.0000E+00
    -30.248  0.0000E+00  0.0000E+00
    -30.239  0.0000E+00  0.0000E+00
    -30.231  0.0000E+00  0.0000E+00
    -30.222  0.0000E+00  0.0000E+00
    -30.214  0.0000E+00  0.0000E+00
    -30.205  0.0000E+00  0.0000E+00
    -30.197  0.0000E+00  0.0000E+00
    -30.189  0.0000E+00  0.0000E+00
    -30.180  0.0000E+00  0.0000E+00
    -30.172  0.0000E+00  0.0000E+00
    -30.163  0.0000E+00  0.0000E+00
    -30.155  0.0000E+00  0.0000E+00
    -30.146  0.0000E+00  0.0000E+00
    -30.138  0.0000E+00  0.0000E+00
    -30.130  0.0000E+00  0.0000E+00
    -30.121  0.0000E+00  0.0000E+00
    -30.113  0.0000E+00  0.0000E+00
    -30.104  0.0000E+00  0.0000E+00
    -30.096  0.1757E-14  0.1480E-16
    -30.088  0.1416E-10  0.1193E-12
    -30.079  0.2887E-07  0.2434E-09
    -30.071  0.1497E-04  0.1264E-06
    -30.062  0.2025E-02  0.1719E-04
    -30.054  0.7428E-01  0.6431E-03
    -30.045  0.7774E+00  0.7193E-02
    -30.037  0.2494E+01  0.2821E-01
    -30.029  0.2953E+01  0.5309E-01
    -30.020  0.2116E+01  0.7092E-01
    -30.012  0.1282E+01  0.8172E-01
    -30.003  0.1368E+01  0.9325E-01
    -29.995  0.1231E+01  0.1036E+00
    -29.986  0.5169E+00  0.1080E+00
    -29.978  0.9543E+00  0.1160E+00
    -29.970  0.1392E+01  0.1277E+00
    -29.961  0.5940E+00  0.1328E+00
    -29.953  0.1566E+00  0.1341E+00
    -29.944  0.6654E+00  0.1397E+00
    -29.936  0.1411E+01  0.1516E+00
    -29.927  0.8502E+00  0.1587E+00
    -29.919  0.1446E+00  0.1600E+00
    -29.911  0.5324E-01  0.1604E+00
    -29.902  0.4737E+00  0.1644E+00
    -29.894  0.1332E+01  0.1756E+00
    -29.885  0.1059E+01  0.1845E+00
    -29.877  0.2369E+00  0.1865E+00
    -29.868  0.1507E-01  0.1867E+00
    -29.860  0.2708E-01  0.1869E+00
    -29.852  0.3440E+00  0.1898E+00
    -29.843  0.1215E+01  0.2000E+00
    -29.835  0.1211E+01  0.2102E+00
    -29.826  0.3404E+00  0.2131E+00
    -29.818  0.2636E-01  0.2133E+00
    -29.809  0.8947E-03  0.2133E+00
    -29.801  0.1928E-01  0.2135E+00
    -29.793  0.2820E+00  0.2159E+00
    -29.784  0.1133E+01  0.2254E+00
    -29.776  0.1283E+01  0.2362E+00
    -29.767  0.4101E+00  0.2397E+00
    -29.759  0.3624E-01  0.2400E+00
    -29.750  0.8580E-03  0.2400E+00
    -29.742  0.2776E-03  0.2400E+00
    -29.734  0.1610E-01  0.2401E+00
    -29.725  0.2525E+00  0.2423E+00
    -29.717  0.1086E+01  0.2514E+00
    -29.708  0.1316E+01  0.2625E+00
    -29.700  0.4501E+00  0.2663E+00
    -29.691  0.4264E-01  0.2667E+00
    -29.683  0.1082E-02  0.2667E+00
    -29.675  0.8422E-05  0.2667E+00
    -29.666  0.2874E-03  0.2667E+00
    -29.658  0.1673E-01  0.2668E+00
    -29.649  0.2586E+00  0.2690E+00
    -29.641  0.1097E+01  0.2782E+00
    -29.633  0.1309E+01  0.2893E+00
    -29.624  0.4415E+00  0.2930E+00
    -29.616  0.4120E-01  0.2933E+00
    -29.607  0.1030E-02  0.2933E+00
    -29.599  0.6701E-05  0.2933E+00
    -29.590  0.1988E-05  0.2933E+00
    -29.582  0.4038E-03  0.2933E+00
    -29.574  0.2133E-01  0.2935E+00
    -29.565  0.2998E+00  0.2960E+00
    -29.557  0.1159E+01  0.3058E+00
    -29.548  0.1262E+01  0.3164E+00
    -29.540  0.3882E+00  0.3197E+00
    -29.531  0.3297E-01  0.3200E+00
    -29.523  0.7484E-03  0.3200E+00
    -29.515  0.4409E-05  0.3200E+00
    -29.506  0.1435E-07  0.3200E+00
    -29.498  0.5025E-05  0.3200E+00
    -29.489  0.8273E-03  0.3200E+00
    -29.481  0.3536E-01  0.3203E+00
    -29.472  0.4044E+00  0.3237E+00
    -29.464  0.1278E+01  0.3345E+00
    -29.456  0.1140E+01  0.3441E+00
    -29.447  0.2865E+00  0.3465E+00
    -29.439  0.1979E-01  0.3467E+00
    -29.430  0.3635E-03  0.3467E+00
    -29.422  0.1726E-05  0.3467E+00
    -29.413  0.2094E-08  0.3467E+00
    -29.405  0.3613E-07  0.3467E+00
    -29.397  0.1731E-04  0.3467E+00
    -29.388  0.2115E-02  0.3467E+00
    -29.380  0.6750E-01  0.3473E+00
    -29.371  0.5805E+00  0.3521E+00
    -29.363  0.1388E+01  0.3638E+00
    -29.354  0.9390E+00  0.3718E+00
    -29.346  0.1782E+00  0.3733E+00
    -29.338  0.9232E-02  0.3733E+00
    -29.329  0.1263E-03  0.3733E+00
    -29.321  0.4443E-06  0.3733E+00
    -29.312  0.3945E-09  0.3733E+00
    -29.304  0.2110E-09  0.3733E+00
    -29.295  0.2656E-06  0.3733E+00
    -29.287  0.8429E-04  0.3733E+00
    -29.279  0.6868E-02  0.3734E+00
    -29.270  0.1474E+00  0.3746E+00
    -29.262  0.8612E+00  0.3819E+00
    -29.253  0.1409E+01  0.3938E+00
    -29.245  0.6526E+00  0.3993E+00
    -29.236  0.8422E-01  0.4000E+00
    -29.228  0.2936E-02  0.4000E+00
    -29.220  0.2680E-04  0.4000E+00
    -29.211  0.6249E-07  0.4000E+00
    -29.203  0.3662E-10  0.4000E+00
    -29.194  0.1289E-11  0.4000E+00
    -29.186  0.3809E-08  0.4000E+00
    -29.177  0.2827E-05  0.4000E+00
    -29.169  0.5320E-03  0.4000E+00
    -29.161  0.2593E-01  0.4002E+00
    -29.152  0.3371E+00  0.4031E+00
    -29.144  0.1207E+01  0.4132E+00
    -29.135  0.1219E+01  0.4235E+00
    -29.127  0.3473E+00  0.4264E+00
    -29.119  0.2728E-01  0.4267E+00
    -29.110  0.5715E-03  0.4267E+00
    -29.102  0.3103E-05  0.4267E+00
    -29.093  0.4273E-08  0.4267E+00
    -29.085  0.1473E-11  0.4267E+00
    -29.076  0.9311E-14  0.4267E+00
    -29.068  0.5877E-10  0.4267E+00
    -29.060  0.9248E-07  0.4267E+00
    -29.051  0.3660E-04  0.4267E+00
    -29.043  0.3705E-02  0.4267E+00
    -29.034  0.9837E-01  0.4275E+00
    -29.026  0.7069E+00  0.4335E+00
    -29.017  0.1418E+01  0.4454E+00
    -29.009  0.8047E+00  0.4522E+00
    -29.001  0.1278E+00  0.4533E+00
    -28.992  0.5511E-02  0.4533E+00
    -28.984  0.6251E-04  0.4533E+00
    -28.975  0.1818E-06  0.4533E+00
    -28.967  0.1332E-09  0.4533E+00
    -28.958  0.2424E-13  0.4533E+00
    -28.950  0.1757E-15  0.4533E+00
    -28.942  0.1508E-11  0.4533E+00
    -28.933  0.4361E-08  0.4533E+00
    -28.925  0.3154E-05  0.4533E+00
    -28.916  0.5788E-03  0.4533E+00
    -28.908  0.2752E-01  0.4536E+00
    -28.899  0.3492E+00  0.4565E+00
    -28.891  0.1221E+01  0.4668E+00
    -28.883  0.1205E+01  0.4770E+00
    -28.874  0.3353E+00  0.4798E+00
    -28.866  0.2570E-01  0.4800E+00
    -28.857  0.5253E-03  0.4800E+00
    -28.849  0.2780E-05  0.4800E+00
    -28.840  0.3733E-08  0.4800E+00
    -28.832  0.1253E-11  0.4800E+00
    -28.824  0.0000E+00  0.4800E+00
    -28.815  0.0000E+00  0.4800E+00
    -28.807  0.7484E-13  0.4800E+00
    -28.798  0.3462E-09  0.4800E+00
    -28.790  0.3991E-06  0.4800E+00
    -28.781  0.1161E-03  0.4800E+00
    -28.773  0.8683E-02  0.4801E+00
    -28.765  0.1714E+00  0.4815E+00
    -28.756  0.9228E+00  0.4893E+00
    -28.748  0.1393E+01  0.5010E+00
    -28.739  0.5953E+00  0.5061E+00
    -28.731  0.7076E-01  0.5066E+00
    -28.722  0.2267E-02  0.5067E+00
    -28.714  0.1898E-04  0.5067E+00
    -28.706  0.4056E-07  0.5067E+00
    -28.697  0.2176E-10  0.5067E+00
    -28.689  0.2811E-14  0.5067E+00
    -28.680  0.0000E+00  0.5067E+00
    -28.672  0.0000E+00  0.5067E+00
    -28.663  0.8081E-14  0.5067E+00
    -28.655  0.5240E-10  0.5067E+00
    -28.647  0.8410E-07  0.5067E+00
    -28.638  0.3394E-04  0.5067E+00
    -28.630  0.3503E-02  0.5067E+00
    -28.621  0.9476E-01  0.5075E+00
    -28.613  0.6936E+00  0.5133E+00
    -28.605  0.1416E+01  0.5253E+00
    -28.596  0.8184E+00  0.5322E+00
    -28.588  0.1324E+00  0.5333E+00
    -28.579  0.5817E-02  0.5333E+00
    -28.571  0.6726E-04  0.5333E+00
    -28.562  0.1994E-06  0.5333E+00
    -28.554  0.1490E-09  0.5333E+00
    -28.546  0.2776E-13  0.5333E+00
    -28.537  0.0000E+00  0.5333E+00
    -28.529  0.0000E+00  0.5333E+00
    -28.520  0.0000E+00  0.5333E+00
    -28.512  0.2811E-14  0.5333E+00
    -28.503  0.2068E-10  0.5333E+00
    -28.495  0.3888E-07  0.5333E+00
    -28.487  0.1835E-04  0.5333E+00
    -28.478  0.2210E-02  0.5334E+00
    -28.470  0.6955E-01  0.5339E+00
    -28.461  0.5899E+00  0.5389E+00
    -28.453  0.1392E+01  0.5506E+00
    -28.444  0.9287E+00  0.5585E+00
    -28.436  0.1739E+00  0.5599E+00
    -28.428  0.8880E-02  0.5600E+00
    -28.419  0.1197E-03  0.5600E+00
    -28.411  0.4151E-06  0.5600E+00
    -28.402  0.3631E-09  0.5600E+00
    -28.394  0.7923E-13  0.5600E+00
    -28.385  0.0000E+00  0.5600E+00
    -28.377  0.0000E+00  0.5600E+00
    -28.369  0.0000E+00  0.5600E+00
    -28.360  0.0000E+00  0.5600E+00
    -28.352  0.2987E-14  0.5600E+00
    -28.343  0.2200E-10  0.5600E+00
    -28.335  0.4093E-07  0.5600E+00
    -28.326  0.1912E-04  0.5600E+00
    -28.318  0.2280E-02  0.5600E+00
    -28.310  0.7102E-01  0.5606E+00
    -28.301  0.5965E+00  0.5656E+00
    -28.293  0.1394E+01  0.5774E+00
    -28.284  0.9215E+00  0.5852E+00
    -28.276  0.1709E+00  0.5866E+00
    -28.267  0.8641E-02  0.5867E+00
    -28.259  0.1153E-03  0.5867E+00
    -28.251  0.3957E-06  0.5867E+00
    -28.242  0.3426E-09  0.5867E+00
    -28.234  0.7379E-13  0.5867E+00
    -28.225  0.0000E+00  0.5867E+00
    -28.217  0.0000E+00  0.5867E+00
    -28.208  0.0000E+00  0.5867E+00
    -28.200  0.0000E+00  0.5867E+00
    -28.192  0.0000E+00  0.5867E+00
    -28.183  0.1054E-13  0.5867E+00
    -28.175  0.6511E-10  0.5867E+00
    -28.166  0.1007E-06  0.5867E+00
    -28.158  0.3915E-04  0.5867E+00
    -28.150  0.3896E-02  0.5867E+00
    -28.141  0.1017E+00  0.5876E+00
    -28.133  0.7189E+00  0.5936E+00
    -28.124  0.1419E+01  0.6056E+00
    -28.116  0.7924E+00  0.6122E+00
    -28.107  0.1238E+00  0.6133E+00
    -28.099  0.5250E-02  0.6133E+00
    -28.091  0.5853E-04  0.6133E+00
    -28.082  0.1673E-06  0.6133E+00
    -28.074  0.1204E-09  0.6133E+00
    -28.065  0.2178E-13  0.6133E+00
    -28.057  0.0000E+00  0.6133E+00
    -28.048  0.0000E+00  0.6133E+00
    -28.040  0.0000E+00  0.6133E+00
    -28.032  0.0000E+00  0.6133E+00
    -28.023  0.0000E+00  0.6133E+00
    -28.015  0.0000E+00  0.6133E+00
    -28.006  0.1358E-12  0.6133E+00
    -27.998  0.5732E-09  0.6133E+00
    -27.989  0.6036E-06  0.6133E+00
    -27.981  0.1605E-03  0.6133E+00
    -27.973  0.1099E-01  0.6134E+00
    -27.964  0.1991E+00  0.6151E+00
    -27.956  0.9854E+00  0.6234E+00
    -27.947  0.1370E+01  0.6350E+00
    -27.939  0.5386E+00  0.6395E+00
    -27.930  0.5881E-01  0.6400E+00
    -27.922  0.1727E-02  0.6400E+00
    -27.914  0.1323E-04  0.6400E+00
    -27.905  0.2584E-07  0.6400E+00
    -27.897  0.1266E-10  0.6400E+00
    -27.888  0.1405E-14  0.6400E+00
    -27.880  0.0000E+00  0.6400E+00
    -27.871  0.0000E+00  0.6400E+00
    -27.863  0.0000E+00  0.6400E+00
    -27.855  0.0000E+00  0.6400E+00
    -27.846  0.0000E+00  0.6400E+00
    -27.838  0.0000E+00  0.6400E+00
    -27.829  0.5270E-15  0.6400E+00
    -27.821  0.5425E-11  0.6400E+00
    -27.812  0.1274E-07  0.6400E+00
    -27.804  0.7499E-05  0.6400E+00
    -27.796  0.1123E-02  0.6400E+00
    -27.787  0.4373E-01  0.6404E+00
    -27.779  0.4567E+00  0.6442E+00
    -27.770  0.1320E+01  0.6554E+00
    -27.762  0.1079E+01  0.6644E+00
    -27.753  0.2481E+00  0.6665E+00
    -27.745  0.1564E-01  0.6667E+00
    -27.737  0.2616E-03  0.6667E+00
    -27.728  0.1129E-05  0.6667E+00
    -27.720  0.1233E-08  0.6667E+00
    -27.711  0.3363E-12  0.6667E+00
    -27.703  0.0000E+00  0.6667E+00
    -27.694  0.0000E+00  0.6667E+00
    -27.686  0.0000E+00  0.6667E+00
    -27.678  0.0000E+00  0.6667E+00
    -27.669  0.0000E+00  0.6667E+00
    -27.661  0.0000E+00  0.6667E+00
    -27.652  0.0000E+00  0.6667E+00
    -27.644  0.0000E+00  0.6667E+00
    -27.636  0.1903E-12  0.6667E+00
    -27.627  0.7625E-09  0.6667E+00
    -27.619  0.7624E-06  0.6667E+00
    -27.610  0.1927E-03  0.6667E+00
    -27.602  0.1255E-01  0.6668E+00
    -27.593  0.2163E+00  0.6686E+00
    -27.585  0.1021E+01  0.6772E+00
    -27.577  0.1353E+01  0.6886E+00
    -27.568  0.5075E+00  0.6929E+00
    -27.560  0.5278E-01  0.6933E+00
    -27.551  0.1475E-02  0.6933E+00
    -27.543  0.1074E-04  0.6933E+00
    -27.534  0.1992E-07  0.6933E+00
    -27.526  0.9264E-11  0.6933E+00
    -27.518  0.1054E-14  0.6933E+00
    -27.509  0.0000E+00  0.6933E+00
    -27.501  0.0000E+00  0.6933E+00
    -27.492  0.0000E+00  0.6933E+00
    -27.484  0.0000E+00  0.6933E+00
    -27.475  0.0000E+00  0.6933E+00
    -27.467  0.0000E+00  0.6933E+00
    -27.459  0.0000E+00  0.6933E+00
    -27.450  0.0000E+00  0.6933E+00
    -27.442  0.3241E-13  0.6933E+00
    -27.433  0.1703E-09  0.6933E+00
    -27.425  0.2227E-06  0.6933E+00
    -27.416  0.7336E-04  0.6933E+00
    -27.408  0.6201E-02  0.6934E+00
    -27.400  0.1380E+00  0.6945E+00
    -27.391  0.8348E+00  0.7016E+00
    -27.383  0.1414E+01  0.7135E+00
    -27.374  0.6778E+00  0.7192E+00
    -27.366  0.9060E-01  0.7200E+00
    -27.357  0.3275E-02  0.7200E+00
    -27.349  0.3101E-04  0.7200E+00
    -27.341  0.7507E-07  0.7200E+00
    -27.332  0.4569E-10  0.7200E+00
    -27.324  0.7027E-14  0.7200E+00
    -27.315  0.0000E+00  0.7200E+00
    -27.307  0.0000E+00  0.7200E+00
    -27.298  0.0000E+00  0.7200E+00
    -27.290  0.0000E+00  0.7200E+00
    -27.282  0.0000E+00  0.7200E+00
    -27.273  0.0000E+00  0.7200E+00
    -27.265  0.0000E+00  0.7200E+00
    -27.256  0.0000E+00  0.7200E+00
    -27.248  0.0000E+00  0.7200E+00
    -27.239  0.3628E-13  0.7200E+00
    -27.231  0.1873E-09  0.7200E+00
    -27.223  0.2408E-06  0.7200E+00
    -27.214  0.7803E-04  0.7200E+00
    -27.206  0.6489E-02  0.7201E+00
    -27.197  0.1421E+00  0.7213E+00
    -27.189  0.8465E+00  0.7284E+00
    -27.181  0.1412E+01  0.7403E+00
    -27.172  0.6666E+00  0.7459E+00
    -27.164  0.8773E-01  0.7466E+00
    -27.155  0.3121E-02  0.7467E+00
    -27.147  0.2907E-04  0.7467E+00
    -27.138  0.6922E-07  0.7467E+00
    -27.130  0.4143E-10  0.7467E+00
    -27.122  0.6324E-14  0.7467E+00
    -27.113  0.0000E+00  0.7467E+00
    -27.105  0.0000E+00  0.7467E+00
    -27.096  0.0000E+00  0.7467E+00
    -27.088  0.0000E+00  0.7467E+00
    -27.079  0.0000E+00  0.7467E+00
    -27.071  0.0000E+00  0.7467E+00
    -27.063  0.0000E+00  0.7467E+00
    -27.054  0.0000E+00  0.7467E+00
    -27.046  0.0000E+00  0.7467E+00
    -27.037  0.0000E+00  0.7467E+00
    -27.029  0.3322E-12  0.7467E+00
    -27.020  0.1221E-08  0.7467E+00
    -27.012  0.1120E-05  0.7467E+00
    -27.004  0.2599E-03  0.7467E+00
    -26.995  0.1557E-01  0.7468E+00
    -26.987  0.2474E+00  0.7489E+00
    -26.978  0.1078E+01  0.7580E+00
    -26.970  0.1321E+01  0.7691E+00
    -26.961  0.4577E+00  0.7730E+00
    -26.953  0.4391E-01  0.7733E+00
    -26.945  0.1129E-02  0.7733E+00
    -26.936  0.7557E-05  0.7733E+00
    -26.928  0.1286E-07  0.7733E+00
    -26.919  0.5487E-11  0.7733E+00
    -26.911  0.7027E-15  0.7733E+00
    -26.902  0.0000E+00  0.7733E+00
    -26.894  0.0000E+00  0.7733E+00
    -26.886  0.0000E+00  0.7733E+00
    -26.877  0.0000E+00  0.7733E+00
    -26.869  0.0000E+00  0.7733E+00
    -26.860  0.0000E+00  0.7733E+00
    -26.852  0.0000E+00  0.7733E+00
    -26.843  0.0000E+00  0.7733E+00
    -26.835  0.0000E+00  0.7733E+00
    -26.827  0.0000E+00  0.7733E+00
    -26.818  0.2460E-14  0.7733E+00
    -26.810  0.1911E-10  0.7733E+00
    -26.801  0.3641E-07  0.7733E+00
    -26.793  0.1741E-04  0.7733E+00
    -26.784  0.2125E-02  0.7734E+00
    -26.776  0.6771E-01  0.7739E+00
    -26.768  0.5814E+00  0.7788E+00
    -26.759  0.1388E+01  0.7905E+00
    -26.751  0.9379E+00  0.7984E+00
    -26.742  0.1778E+00  0.7999E+00
    -26.734  0.9195E-02  0.8000E+00
    -26.725  0.1256E-03  0.8000E+00
    -26.717  0.4411E-06  0.8000E+00
    -26.709  0.3911E-09  0.8000E+00
    -26.700  0.8643E-13  0.8000E+00
    -26.692  0.0000E+00  0.8000E+00
    -26.683  0.0000E+00  0.8000E+00
    -26.675  0.0000E+00  0.8000E+00
    -26.667  0.0000E+00  0.8000E+00
    -26.658  0.0000E+00  0.8000E+00
    -26.650  0.0000E+00  0.8000E+00
    -26.641  0.0000E+00  0.8000E+00
    -26.633  0.0000E+00  0.8000E+00
    -26.624  0.0000E+00  0.8000E+00
    -26.616  0.0000E+00  0.8000E+00
    -26.608  0.0000E+00  0.8000E+00
    -26.599  0.1757E-15  0.8000E+00
    -26.591  0.2074E-11  0.8000E+00
    -26.582  0.5696E-08  0.8000E+00
    -26.574  0.3916E-05  0.8000E+00
    -26.565  0.6834E-03  0.8000E+00
    -26.557  0.3093E-01  0.8003E+00
    -26.549  0.3741E+00  0.8034E+00
    -26.540  0.1248E+01  0.8139E+00
    -26.532  0.1176E+01  0.8238E+00
    -26.523  0.3121E+00  0.8265E+00
    -26.515  0.2280E-01  0.8267E+00
    -26.506  0.4436E-03  0.8267E+00
    -26.498  0.2233E-05  0.8267E+00
    -26.490  0.2849E-08  0.8267E+00
    -26.481  0.9090E-12  0.8267E+00
    -26.473  0.0000E+00  0.8267E+00
    -26.464  0.0000E+00  0.8267E+00
    -26.456  0.0000E+00  0.8267E+00
    -26.447  0.0000E+00  0.8267E+00
    -26.439  0.0000E+00  0.8267E+00
    -26.431  0.0000E+00  0.8267E+00
    -26.422  0.0000E+00  0.8267E+00
    -26.414  0.0000E+00  0.8267E+00
    -26.405  0.0000E+00  0.8267E+00
    -26.397  0.0000E+00  0.8267E+00
    -26.388  0.0000E+00  0.8267E+00
    -26.380  0.0000E+00  0.8267E+00
    -26.372  0.3514E-15  0.8267E+00
    -26.363  0.3555E-11  0.8267E+00
    -26.355  0.8946E-08  0.8267E+00
    -26.346  0.5639E-05  0.8267E+00
    -26.338  0.9035E-03  0.8267E+00
    -26.329  0.3761E-01  0.8270E+00
    -26.321  0.4190E+00  0.8305E+00
    -26.313  0.1291E+01  0.8414E+00
    -26.304  0.1123E+01  0.8509E+00
    -26.296  0.2751E+00  0.8532E+00
    -26.287  0.1851E-01  0.8533E+00
    -26.279  0.3311E-03  0.8533E+00
    -26.270  0.1530E-05  0.8533E+00
    -26.262  0.1789E-08  0.8533E+00
    -26.254  0.5230E-12  0.8533E+00
    -26.245  0.0000E+00  0.8533E+00
    -26.237  0.0000E+00  0.8533E+00
    -26.228  0.0000E+00  0.8533E+00
    -26.220  0.0000E+00  0.8533E+00
    -26.211  0.0000E+00  0.8533E+00
    -26.203  0.0000E+00  0.8533E+00
    -26.195  0.0000E+00  0.8533E+00
    -26.186  0.0000E+00  0.8533E+00
    -26.178  0.0000E+00  0.8533E+00
    -26.169  0.0000E+00  0.8533E+00
    -26.161  0.0000E+00  0.8533E+00
    -26.153  0.0000E+00  0.8533E+00
    -26.144  0.0000E+00  0.8533E+00
    -26.136  0.1660E-13  0.8533E+00
    -26.127  0.9636E-10  0.8533E+00
    -26.119  0.1392E-06  0.8533E+00
    -26.110  0.5061E-04  0.8533E+00
    -26.102  0.4714E-02  0.8534E+00
    -26.094  0.1153E+00  0.8543E+00
    -26.085  0.7655E+00  0.8608E+00
    -26.077  0.1420E+01  0.8728E+00
    -26.068  0.7455E+00  0.8790E+00
    -26.060  0.1093E+00  0.8800E+00
    -26.051  0.4346E-02  0.8800E+00
    -26.043  0.4536E-04  0.8800E+00
    -26.035  0.1212E-06  0.8800E+00
    -26.026  0.8150E-10  0.8800E+00
    -26.018  0.1353E-13  0.8800E+00
    -26.009  0.0000E+00  0.8800E+00
    -26.001  0.0000E+00  0.8800E+00
    -25.992  0.0000E+00  0.8800E+00
    -25.984  0.0000E+00  0.8800E+00
    -25.976  0.0000E+00  0.8800E+00
    -25.967  0.0000E+00  0.8800E+00
    -25.959  0.0000E+00  0.8800E+00
    -25.950  0.0000E+00  0.8800E+00
    -25.942  0.0000E+00  0.8800E+00
    -25.933  0.0000E+00  0.8800E+00
    -25.925  0.0000E+00  0.8800E+00
    -25.917  0.0000E+00  0.8800E+00
    -25.908  0.0000E+00  0.8800E+00
    -25.900  0.1581E-14  0.8800E+00
    -25.891  0.1338E-10  0.8800E+00
    -25.883  0.2706E-07  0.8800E+00
    -25.874  0.1373E-04  0.8800E+00
    -25.866  0.1776E-02  0.8800E+00
    -25.858  0.5995E-01  0.8805E+00
    -25.849  0.5443E+00  0.8851E+00
    -25.841  0.1373E+01  0.8967E+00
    -25.832  0.9791E+00  0.9049E+00
    -25.824  0.1961E+00  0.9066E+00
    -25.815  0.1073E-01  0.9067E+00
    -25.807  0.1554E-03  0.9067E+00
    -25.799  0.5788E-06  0.9067E+00
    -25.790  0.5446E-09  0.9067E+00
    -25.782  0.1277E-12  0.9067E+00
    -25.773  0.0000E+00  0.9067E+00
    -25.765  0.0000E+00  0.9067E+00
    -25.756  0.0000E+00  0.9067E+00
    -25.748  0.0000E+00  0.9067E+00
    -25.740  0.0000E+00  0.9067E+00
    -25.731  0.0000E+00  0.9067E+00
    -25.723  0.0000E+00  0.9067E+00
    -25.714  0.0000E+00  0.9067E+00
    -25.706  0.0000E+00  0.9067E+00
    -25.698  0.0000E+00  0.9067E+00
    -25.689  0.0000E+00  0.9067E+00
    -25.681  0.0000E+00  0.9067E+00
    -25.672  0.0000E+00  0.9067E+00
    -25.664  0.0000E+00  0.9067E+00
    -25.655  0.9575E-14  0.9067E+00
    -25.647  0.6016E-10  0.9067E+00
    -25.639  0.9428E-07  0.9067E+00
    -25.630  0.3716E-04  0.9067E+00
    -25.622  0.3748E-02  0.9067E+00
    -25.613  0.9912E-01  0.9075E+00
    -25.605  0.7096E+00  0.9135E+00
    -25.596  0.1418E+01  0.9255E+00
    -25.588  0.8019E+00  0.9322E+00
    -25.580  0.1269E+00  0.9333E+00
    -25.571  0.5451E-02  0.9333E+00
    -25.563  0.6159E-04  0.9333E+00
    -25.554  0.1784E-06  0.9333E+00
    -25.546  0.1302E-09  0.9333E+00
    -25.537  0.2372E-13  0.9333E+00
    -25.529  0.0000E+00  0.9333E+00
    -25.521  0.0000E+00  0.9333E+00
    -25.512  0.0000E+00  0.9333E+00
    -25.504  0.0000E+00  0.9333E+00
    -25.495  0.0000E+00  0.9333E+00
    -25.487  0.0000E+00  0.9333E+00
    -25.478  0.0000E+00  0.9333E+00
    -25.470  0.0000E+00  0.9333E+00
    -25.462  0.0000E+00  0.9333E+00
    -25.453  0.0000E+00  0.9333E+00
    -25.445  0.0000E+00  0.9333E+00
    -25.436  0.0000E+00  0.9333E+00
    -25.428  0.0000E+00  0.9333E+00
    -25.419  0.0000E+00  0.9333E+00
    -25.411  0.3514E-15  0.9333E+00
    -25.403  0.3412E-11  0.9333E+00
    -25.394  0.8645E-08  0.9333E+00
    -25.386  0.5485E-05  0.9333E+00