    2    2    1    1
  0.3647508E+02  0.2294499E-09  0.2294499E-09  0.1600000E-08  0.5000000E-15
  1.000000000000000E-004
  CAR 
 unknown system                          
     10    150     16
 
  0.0000000E+00  0.0000000E+00  0.0000000E+00  0.6666667E-02
      1        -30.039257   1.000000
      2        -14.503481   1.000000
      3         -8.395018   1.000000
      4         -8.394995   1.000000
      5         -5.632621   1.000000
      6         -0.037431   0.000000
      7         -0.037413   0.000000
      8          0.312595   0.000000
      9          2.078115   0.000000
     10          2.232324   0.000000
     11          3.312305   0.000000
     12          4.301111   0.000000
     13          6.118607   0.000000
     14          7.730938   0.000000
     15         10.130589   0.000000
     16         12.519893   0.000000
 
  0.1360544E-01 -0.6802721E-02  0.0000000E+00  0.6666667E-02
      1        -30.035247   1.000000
      2        -14.499783   1.000000
      3         -8.418413   1.000000
      4         -8.402317   1.000000
      5         -5.630675   1.000000
      6         -0.038057   0.000000
      7         -0.029653   0.000000
      8          0.326720   0.000000
      9          2.083299   0.000000
     10          2.237389   0.000000
     11          3.317253   0.000000
     12          4.306268   0.000000
     13          6.123138   0.000000
     14          7.735953   0.000000
     15         10.134519   0.000000
     16         12.524597   0.000000
 
  0.2721088E-01 -0.1360544E-01  0.0000000E+00  0.6666667E-02
      1        -30.023228   1.000000
      2        -14.488694   1.000000
      3         -8.487416   1.000000
      4         -8.423869   1.000000
      5         -5.624712   1.000000
      6         -0.039942   0.000000
      7         -0.008527   0.000000
      8          0.370511   0.000000
      9          2.098852   0.000000
     10          2.252585   0.000000
     11          3.332102   0.000000
     12          4.321737   0.000000
     13          6.136731   0.000000
     14          7.750993   0.000000
     15         10.146301   0.000000
     16         12.538704   0.000000
 
  0.4081633E-01 -0.2040816E-01  0.0000000E+00  0.6666667E-02
      1        -30.003239   1.000000
      2        -14.470311   1.000000
      3         -8.599880   1.000000
      4         -8.459913   1.000000
      5         -5.614900   1.000000
      6         -0.042855   0.000000
      7          0.020662   0.000000
      8          0.446665   0.000000
      9          2.124767   0.000000
     10          2.277904   0.000000
     11          3.356847   0.000000
     12          4.347514   0.000000
     13          6.159378   0.000000
     14          7.776054   0.000000
     15         10.165909   0.000000
     16         12.562192   0.000000
 
  0.5442177E-01 -0.2721088E-01  0.0000000E+00  0.6666667E-02
      1        -29.975265   1.000000
      2        -14.444609   1.000000
      3         -8.752403   1.000000
      4         -8.510488   1.000000
      5         -5.601299   1.000000
      6         -0.046537   0.000000
      7          0.053219   0.000000
      8          0.556116   0.000000
      9          2.161037   0.000000
     10          2.313333   0.000000
     11          3.391484   0.000000
     12          4.383593   0.000000
     13          6.191067   0.000000
     14          7.811125   0.000000
     15         10.193305   0.000000
     16         12.595025   0.000000
 
  0.6802721E-01 -0.3401361E-01  0.0000000E+00  0.6666667E-02
      1        -29.939231   1.000000
      2        -14.411533   1.000000
      3         -8.940866   1.000000
      4         -8.574894   1.000000
      5         -5.584016   1.000000
      6         -0.050599   0.000000
      7          0.087212   0.000000
      8          0.696359   0.000000
      9          2.207649   0.000000
     10          2.358860   0.000000
     11          3.436010   0.000000
     12          4.429967   0.000000
     13          6.231782   0.000000
     14          7.856192   0.000000
     15         10.228435   0.000000
     16         12.637153   0.000000
 
  0.8163265E-01 -0.4081633E-01  0.0000000E+00  0.6666667E-02
      1        -29.895247   1.000000
      2        -14.371383   1.000000
      3         -9.160660   1.000000
      4         -8.653332   1.000000
      5         -5.563317   1.000000
      6         -0.054609   0.000000
      7          0.122347   0.000000
      8          0.862355   0.000000
      9          2.264582   0.000000
     10          2.414464   0.000000
     11          3.490418   0.000000
     12          4.486623   0.000000
     13          6.281502   0.000000
     14          7.911236   0.000000
     15         10.271227   0.000000
     16         12.688511   0.000000
 
  0.9523810E-01 -0.4761905E-01  0.0000000E+00  0.6666667E-02
      1        -29.843182   1.000000
      2        -14.323794   1.000000
      3         -9.407156   1.000000
      4         -8.745325   1.000000
      5         -5.539239   1.000000
      6         -0.058035   0.000000
      7          0.159401   0.000000
      8          1.048307   0.000000
      9          2.331813   0.000000
     10          2.480128   0.000000
     11          3.554707   0.000000
     12          4.553554   0.000000
     13          6.340205   0.000000
     14          7.976240   0.000000
     15         10.321603   0.000000
     16         12.749023   0.000000
 
  0.1088435E+00 -0.5442177E-01  0.0000000E+00  0.6666667E-02
      1        -29.783346   1.000000
      2        -14.269430   1.000000
      3         -9.677408   1.000000
      4         -8.851036   1.000000
      5         -5.512644   1.000000
      6         -0.060430   0.000000
      7          0.198845   0.000000
      8          1.248296   0.000000
      9          2.409292   0.000000
     10          2.555820   0.000000
     11          3.628863   0.000000
     12          4.630742   0.000000
     13          6.407860   0.000000
     14          8.051177   0.000000
     15         10.379466   0.000000
     16         12.818590   0.000000
 
  0.1224490E+00 -0.6122449E-01  0.0000000E+00  0.6666667E-02
      1        -29.715488   1.000000
      2        -14.208064   1.000000
      3         -9.966246   1.000000
      4         -8.969940   1.000000
      5         -5.483433   1.000000
      6         -0.061076   0.000000
      7          0.241274   0.000000
      8          1.457099   0.000000
      9          2.496969   0.000000
     10          2.641523   0.000000
     11          3.712891   0.000000
     12          4.718177   0.000000
     13          6.484443   0.000000
     14          8.136027   0.000000
     15         10.444717   0.000000
     16         12.897110   0.000000
 
  0.1360544E+00 -0.6802721E-01  0.0000000E+00  0.6666667E-02
      1        -29.639748   1.000000
      2        -14.140135   1.000000
      3        -10.269826   1.000000
      4         -9.101389   1.000000
      5         -5.452382   1.000000
      6         -0.059303   0.000000
      7          0.286897   0.000000
      8          1.669910   0.000000
      9          2.594762   0.000000
     10          2.737203   0.000000
     11          3.806782   0.000000
     12          4.815846   0.000000
     13          6.569924   0.000000
     14          8.230763   0.000000
     15         10.517248   0.000000
     16         12.984454   0.000000
 
  0.1496599E+00 -0.7482993E-01  0.0000000E+00  0.6666667E-02
      1        -29.556098   1.000000
      2        -14.065802   1.000000
      3        -10.585672   1.000000
      4         -9.244895   1.000000
      5         -5.419839   1.000000
      6         -0.054575   0.000000
      7          0.335795   0.000000
      8          1.882455   0.000000
      9          2.702575   0.000000
     10          2.842835   0.000000
     11          3.910537   0.000000
     12          4.923744   0.000000
     13          6.664275   0.000000
     14          8.335363   0.000000
     15         10.596945   0.000000
     16         13.080490   0.000000
 
  0.1632653E+00 -0.8163265E-01  0.0000000E+00  0.6666667E-02
      1        -29.464744   1.000000
      2        -13.986032   1.000000
      3        -10.910348   1.000000
      4         -9.400098   1.000000
      5         -5.386641   1.000000
      6         -0.046260   0.000000
      7          0.387896   0.000000
      8          2.090917   0.000000
      9          2.820293   0.000000
     10          2.958384   0.000000
     11          4.024155   0.000000
     12          5.041863   0.000000
     13          6.767465   0.000000
     14          8.449804   0.000000
     15         10.683688   0.000000
     16         13.185066   0.000000
 
  0.1768707E+00 -0.8843537E-01  0.0000000E+00  0.6666667E-02
      1        -29.365480   1.000000
      2        -13.900739   1.000000
      3        -11.240681   1.000000
      4         -9.566118   1.000000
      5         -5.353129   1.000000
      6         -0.033632   0.000000
      7          0.443232   0.000000
      8          2.291971   0.000000
      9          2.947837   0.000000
     10          3.083820   0.000000
     11          4.147643   0.000000
     12          5.170215   0.000000
     13          6.879474   0.000000
     14          8.574076   0.000000
     15         10.777375   0.000000
     16         13.298028   0.000000
 
  0.1904762E+00 -0.9523810E-01  0.0000000E+00  0.6666667E-02
      1        -29.258466   1.000000
      2        -13.811731   1.000000
      3        -11.573884   1.000000
      4         -9.742510   1.000000
      5         -5.320047   1.000000
      6         -0.016127   0.000000
      7          0.501590   0.000000
      8          2.482585   0.000000
      9          3.085187   0.000000
     10          3.219107   0.000000
     11          4.281006   0.000000
     12          5.308811   0.000000
     13          7.000278   0.000000
     14          8.708166   0.000000
     15         10.877891   0.000000
     16         13.419203   0.000000
 
  0.2040816E+00 -0.1020408E+00  0.0000000E+00  0.6666667E-02
      1        -29.143723   1.000000
      2        -13.721438   1.000000
      3        -11.906097   1.000000
      4         -9.928758   1.000000
      5         -5.288300   1.000000
      6          0.006804   0.000000
      7          0.562740   0.000000
      8          2.659906   0.000000
      9          3.232474   0.000000
     10          3.364202   0.000000
     11          4.424250   0.000000
     12          5.457671   0.000000
     13          7.129856   0.000000
     14          8.852066   0.000000
     15         10.985138   0.000000
     16         13.548406   0.000000
 
  0.2176871E+00 -0.1088435E+00  0.0000000E+00  0.6666667E-02
      1        -29.021179   1.000000
      2        -13.635231   1.000000
      3        -12.229867   1.000000
      4        -10.123568   1.000000
      5         -5.258608   1.000000
      6          0.035895   0.000000
      7          0.626413   0.000000
      8          2.821472   0.000000
      9          3.389996   0.000000
     10          3.519062   0.000000
     11          4.577387   0.000000
     12          5.616825   0.000000
     13          7.268198   0.000000
     14          9.005774   0.000000
     15         11.099037   0.000000
     16         13.685437   0.000000
 
  0.2312925E+00 -0.1156463E+00  0.0000000E+00  0.6666667E-02
      1        -28.891096   1.000000
      2        -13.567270   1.000000
      3        -12.531032   1.000000
      4        -10.326720   1.000000
      5         -5.231971   1.000000
      6          0.071596   0.000000
      7          0.692211   0.000000
      8          2.965129   0.000000
      9          3.558125   0.000000
     10          3.683638   0.000000
     11          4.740429   0.000000
     12          5.786301   0.000000
     13          7.415296   0.000000
     14          9.169289   0.000000
     15         11.219519   0.000000
     16         13.830071   0.000000
 
  0.2448980E+00 -0.1224490E+00  0.0000000E+00  0.6666667E-02
      1        -28.753435   1.000000
      2        -13.555725   1.000000
      3        -12.769839   1.000000
      4        -10.537065   1.000000
      5         -5.209286   1.000000
      6          0.114586   0.000000
      7          0.759706   0.000000
      8          3.089334   0.000000
      9          3.737137   0.000000
     10          3.857873   0.000000
     11          4.913391   0.000000
     12          5.966125   0.000000
     13          7.571148   0.000000
     14          9.342607   0.000000
     15         11.346536   0.000000
     16         13.982049   0.000000
 
  0.2585034E+00 -0.1292517E+00  0.0000000E+00  0.6666667E-02
      1        -28.608179   1.000000
      2        -13.668983   1.000000
      3        -12.876864   1.000000
      4        -10.753683   1.000000
      5         -5.191222   1.000000
      6          0.165474   0.000000
      7          0.828382   0.000000
      8          3.193311   0.000000
      9          3.927091   0.000000
     10          4.041711   0.000000
     11          5.096293   0.000000
     12          6.156315   0.000000
     13          7.735770   0.000000
     14          9.525721   0.000000
     15         11.480080   0.000000
     16         14.141063   0.000000
 
  0.2721088E+00 -0.1360544E+00  0.0000000E+00  0.6666667E-02
      1        -28.455548   1.000000
      2        -13.908785   1.000000
      3        -12.850706   1.000000
      4        -10.976556   1.000000
      5         -5.178986   1.000000
      6          0.224655   0.000000
      7          0.897543   0.000000
      8          3.276869   0.000000
      9          4.127861   0.000000
     10          4.235082   0.000000
     11          5.289156   0.000000
     12          6.356875   0.000000
     13          7.909177   0.000000
     14          9.718608   0.000000
     15         11.620149   0.000000
     16         14.306718   0.000000
 
  0.2857143E+00 -0.1428571E+00  0.0000000E+00  0.6666667E-02
      1        -28.295516   1.000000
      2        -14.208212   1.000000
      3        -12.756640   1.000000
      4        -11.203960   1.000000
      5         -5.173165   1.000000
      6          0.292746   0.000000
      7          0.966474   0.000000
      8          3.340622   0.000000
      9          4.339244   0.000000
     10          4.437912   0.000000
     11          5.492005   0.000000
     12          6.567794   0.000000
     13          8.091402   0.000000
     14          9.921231   0.000000
     15         11.766773   0.000000
     16         14.478504   0.000000
 
  0.2993197E+00 -0.1496599E+00  0.0000000E+00  0.6666667E-02
      1        -28.128117   1.000000
      2        -14.529838   1.000000
      3        -12.632092   1.000000
      4        -11.435695   1.000000
      5         -5.174480   1.000000
      6          0.370127   0.000000
      7          1.034220   0.000000
      8          3.385688   0.000000
      9          4.561044   0.000000
     10          4.650117   0.000000
     11          5.704865   0.000000
     12          6.789046   0.000000
     13          8.282481   0.000000
     14         10.133528   0.000000
     15         11.919985   0.000000
     16         14.655733   0.000000
 
  0.3129252E+00 -0.1564626E+00  0.0000000E+00  0.6666667E-02
      1        -27.953505   1.000000
      2        -14.859729   1.000000
      3        -12.491039   1.000000
      4        -11.670612   1.000000
      5         -5.183876   1.000000
      6          0.457168   0.000000
      7          1.099698   0.000000
      8          3.413702   0.000000
      9          4.793099   0.000000
     10          4.871605   0.000000
     11          5.927768   0.000000
     12          7.020590   0.000000
     13          8.482467   0.000000
     14         10.355405   0.000000
     15         12.079810   0.000000
     16         14.837465   0.000000
 
  0.3265306E+00 -0.1632653E+00  0.0000000E+00  0.6666667E-02
      1        -27.771681   1.000000
      2        -15.191864   1.000000
      3        -12.338671   1.000000
      4        -11.908139   1.000000
      5         -5.201856   1.000000
      6          0.554112   0.000000
      7          1.161561   0.000000
      8          3.426840   0.000000
      9          5.035293   0.000000
     10          5.102269   0.000000
     11          6.160745   0.000000
     12          7.262376   0.000000
     13          8.691419   0.000000
     14         10.586739   0.000000
     15         12.246247   0.000000
     16         15.022398   0.000000
 
  0.3401361E+00 -0.1700680E+00  0.0000000E+00  0.6666667E-02
      1        -27.583071   1.000000
      2        -15.523092   1.000000
      3        -12.178114   1.000000
      4        -12.147249   1.000000
      5         -5.228689   1.000000
      6          0.661167   0.000000
      7          1.218200   0.000000
      8          3.427799   0.000000
      9          5.287533   0.000000
     10          5.341995   0.000000
     11          6.403832   0.000000
     12          7.514340   0.000000
     13          8.909405   0.000000
     14         10.827358   0.000000
     15         12.419195   0.000000
     16         15.208690   0.000000
 
  0.3537415E+00 -0.1768707E+00  0.0000000E+00  0.6666667E-02
      1        -27.387637   1.000000
      2        -15.852322   1.000000
      3        -12.387454   1.000000
      4        -12.010629   1.000000
      5         -5.264782   1.000000
      6          0.778325   0.000000
      7          1.267801   0.000000
      8          3.419633   0.000000
      9          5.549748   0.000000
     10          5.590651   0.000000
     11          6.657064   0.000000
     12          7.776417   0.000000
     13          9.136494   0.000000
     14         11.077042   0.000000
     15         12.598399   0.000000
     16         15.382765   0.000000
 
  0.3673469E+00 -0.1836735E+00  0.0000000E+00  0.6666667E-02
      1        -27.185512   1.000000
      2        -16.178432   1.000000
      3        -12.627973   1.000000
      4        -11.837224   1.000000
      5         -5.310231   1.000000
      6          0.905505   0.000000
      7          1.308289   0.000000
      8          3.405856   0.000000
      9          5.821872   0.000000
     10          5.848089   0.000000
     11          6.920479   0.000000
     12          8.048529   0.000000
     13          9.372759   0.000000
     14         11.335503   0.000000
     15         12.783333   0.000000
     16         15.333307   0.000000
 
  0.3809524E+00 -0.1904762E+00  0.0000000E+00  0.6666667E-02
      1        -26.976915   1.000000
      2        -16.501415   1.000000
      3        -12.868557   1.000000
      4        -11.658548   1.000000
      5         -5.365217   1.000000
      6          1.042444   0.000000
      7          1.337408   0.000000
      8          3.390198   0.000000
      9          6.103837   0.000000
     10          6.114140   0.000000
     11          7.194113   0.000000
     12          8.330592   0.000000
     13          9.618265   0.000000
     14         11.602368   0.000000
     15         12.973005   0.000000
     16         15.299737   0.000000
 
  0.3945578E+00 -0.1972789E+00  0.0000000E+00  0.6666667E-02
      1        -26.761817   1.000000
      2        -16.819302   1.000000
      3        -13.107492   1.000000
      4        -11.474765   1.000000
      5         -5.429165   1.000000
      6          1.188879   0.000000
      7          1.353048   0.000000
      8          3.376436   0.000000
      9          6.388622   0.000000
     10          6.395572   0.000000
     11          7.478010   0.000000
     12          8.622512   0.000000
     13          9.873084   0.000000
     14         11.877146   0.000000
     15         13.165705   0.000000
     16         15.267293   0.000000
 
  0.4081633E+00 -0.2040816E+00  0.0000000E+00  0.6666667E-02
      1        -26.540518   1.000000
      2        -17.132517   1.000000
      3        -13.344650   1.000000
      4        -11.286849   1.000000
      5         -5.502006   1.000000
      6          1.344225   0.000000
      7          1.353293   0.000000
      8          3.367929   0.000000
      9          6.671315   0.000000
     10          6.696994   0.000000
     11          7.772202   0.000000
     12          8.924177   0.000000
     13         10.137248   0.000000
     14         12.159171   0.000000
     15         13.358382   0.000000
     16         15.236932   0.000000
 
  0.4217687E+00 -0.2108844E+00  0.0000000E+00  0.6666667E-02
      1        -26.313543   1.000000
      2        -17.440821   1.000000
      3        -13.579685   1.000000
      4        -11.095369   1.000000
      5         -5.583415   1.000000
      6          1.336886   0.000000
      7          1.507829   0.000000
      8          3.367463   0.000000
      9          6.961970   0.000000
     10          7.008004   0.000000
     11          8.076722   0.000000
     12          9.235456   0.000000
     13         10.410765   0.000000
     14         12.447511   0.000000
     15         13.545812   0.000000
     16         15.211996   0.000000
 
  0.4353741E+00 -0.2176871E+00  0.0000000E+00  0.6666667E-02
      1        -26.080983   1.000000
      2        -17.743801   1.000000
      3        -13.811425   1.000000
      4        -10.900760   1.000000
      5         -5.672815   1.000000
      6          1.303491   0.000000
      7          1.678910   0.000000
      8          3.376839   0.000000
      9          7.260302   0.000000
     10          7.328485   0.000000
     11          8.391603   0.000000
     12          9.556189   0.000000
     13         10.693613   0.000000
     14         12.740815   0.000000
     15         13.719292   0.000000
     16         15.199672   0.000000
 
  0.4489796E+00 -0.2244898E+00  0.0000000E+00  0.6666667E-02
      1        -25.843007   1.000000
      2        -18.041208   1.000000
      3        -14.039231   1.000000
      4        -10.703416   1.000000
      5         -5.769602   1.000000
      6          1.253794   0.000000
      7          1.856578   0.000000
      8          3.396764   0.000000
      9          7.565976   0.000000
     10          7.658296   0.000000
     11          8.716865   0.000000
     12          9.886171   0.000000
     13         10.985693   0.000000
     14         13.037022   0.000000
     15         13.865228   0.000000
     16         15.212229   0.000000
 
  0.4625850E+00 -0.2312925E+00  0.0000000E+00  0.6666667E-02
      1        -25.600198   1.000000
      2        -18.332770   1.000000
      3        -14.262289   1.000000
      4        -10.504109   1.000000
      5         -5.873423   1.000000
      6          1.189407   0.000000
      7          2.039728   0.000000
      8          3.426876   0.000000
      9          7.878591   0.000000
     10          7.997259   0.000000
     11          9.052522   0.000000
     12         10.225137   0.000000
     13         11.286807   0.000000
     14         13.332796   0.000000
     15         13.966565   0.000000
     16         15.265761   0.000000
 
  0.4761905E+00 -0.2380952E+00  0.0000000E+00  0.6666667E-02
      1        -25.352925   1.000000
      2        -18.618247   1.000000
      3        -14.480083   1.000000
      4        -10.303342   1.000000
      5         -5.983166   1.000000
      6          1.112660   0.000000
      7          2.227125   0.000000
      8          3.466072   0.000000
      9          8.197675   0.000000
     10          8.345155   0.000000
     11          9.398579   0.000000
     12         10.572724   0.000000
     13         11.596615   0.000000
     14         13.622406   0.000000
     15         14.010477   0.000000
     16         15.372211   0.000000
 
  0.4897959E+00 -0.2448980E+00  0.0000000E+00  0.6666667E-02
      1        -25.101545   1.000000
      2        -18.897527   1.000000
      3        -14.691726   1.000000
      4        -10.101631   1.000000
      5         -6.098216   1.000000
      6          1.026271   0.000000
      7          2.417374   0.000000
      8          3.512764   0.000000
      9          8.522649   0.000000
     10          8.701703   0.000000
     11          9.755024   0.000000
     12         10.928418   0.000000
     13         11.914501   0.000000
     14         13.895395   0.000000
     15         13.997477   0.000000
     16         15.529929   0.000000
 
  0.5034014E+00 -0.2517007E+00  0.0000000E+00  0.6666667E-02
      1        -24.846526   1.000000
      2        -19.170733   1.000000
      3        -14.896615   1.000000
      4         -9.899810   1.000000
      5         -6.218061   1.000000
      6          0.933078   0.000000
      7          2.608895   0.000000
      8          3.565144   0.000000
      9          8.852797   0.000000
     10          9.066533   0.000000
     11         10.121819   0.000000
     12         11.291452   0.000000
     13         12.239306   0.000000
     14         13.939670   0.000000
     15         14.132354   0.000000
     16         15.698259   0.000000
 
  0.5170068E+00 -0.2585034E+00  0.0000000E+00  0.6666667E-02
      1        -24.588972   1.000000
      2        -19.437590   1.000000
      3        -15.094007   1.000000
      4         -9.698756   1.000000
      5         -6.341978   1.000000
      6          0.835872   0.000000
      7          2.799870   0.000000
      8          3.621393   0.000000
      9          9.187231   0.000000
     10          9.439149   0.000000
     11         10.498904   0.000000
     12         11.660596   0.000000
     13         12.568598   0.000000
     14         13.852516   0.000000
     15         14.301590   0.000000
     16         15.642820   0.000000
 
  0.5306122E+00 -0.2653061E+00  0.0000000E+00  0.6666667E-02
      1        -24.329468   1.000000
      2        -19.697924   1.000000
      3        -15.282588   1.000000
      4         -9.499302   1.000000
      5         -6.469317   1.000000
      6          0.737284   0.000000
      7          2.988314   0.000000
      8          3.679784   0.000000
      9          9.524823   0.000000
     10          9.818864   0.000000
     11         10.886179   0.000000
     12         12.033731   0.000000
     13         12.895728   0.000000
     14         13.752906   0.000000
     15         14.373663   0.000000
     16         15.699885   0.000000
 
  0.5442177E+00 -0.2721088E+00  0.0000000E+00  0.6666667E-02
      1        -24.068926   1.000000
      2        -19.951623   1.000000
      3        -15.461470   1.000000
      4         -9.302135   1.000000
      5         -6.599370   1.000000
      6          0.639792   0.000000
      7          3.171923   0.000000
      8          3.738747   0.000000
      9          9.864125   0.000000
     10         10.204680   0.000000
     11         11.283490   0.000000
     12         12.406812   0.000000
     13         13.191897   0.000000
     14         13.676306   0.000000
     15         14.357173   0.000000
     16         15.824879   0.000000
 
  0.5578231E+00 -0.2789116E+00  0.0000000E+00  0.6666667E-02
      1        -23.808219   1.000000
      2        -20.198403   1.000000
      3        -15.629244   1.000000
      4         -9.108115   1.000000
      5         -6.731411   1.000000
      6          0.545651   0.000000
      7          3.348181   0.000000
      8          3.796877   0.000000
      9         10.203253   0.000000
     10         10.595076   0.000000
     11         11.690604   0.000000
     12         12.771108   0.000000
     13         13.318956   0.000000
     14         13.764470   0.000000
     15         14.296978   0.000000
     16         15.921446   0.000000
 
  0.5714286E+00 -0.2857143E+00  0.0000000E+00  0.6666667E-02
      1        -23.548871   1.000000
      2        -20.438426   1.000000
      3        -15.784675   1.000000
      4         -8.918398   1.000000
      5         -6.864836   1.000000
      6          0.456882   0.000000
      7          3.514244   0.000000
      8          3.852913   0.000000
      9         10.539733   0.000000
     10         10.987569   0.000000
     11         12.107159   0.000000
     12         13.105368   0.000000
     13         13.246543   0.000000
     14         14.048067   0.000000
     15         14.247086   0.000000
     16         15.875724   0.000000
 
  0.5850340E+00 -0.2925170E+00  0.0000000E+00  0.6666667E-02
      1        -23.291627   1.000000
      2        -20.671311   1.000000
      3        -15.925598   1.000000
      4         -8.733536   1.000000
      5         -6.998957   1.000000
      6          0.375436   0.000000
      7          3.667066   0.000000
      8          3.905797   0.000000
      9         10.870306   0.000000
     10         11.377787   0.000000
     11         12.532564   0.000000
     12         13.128319   0.000000
     13         13.359849   0.000000
     14         14.277024   0.000000
     15         14.368445   0.000000
     16         15.713927   0.000000
 
  0.5986395E+00 -0.2993197E+00  0.0000000E+00  0.6666667E-02
      1        -23.039408   1.000000
      2        -20.897330   1.000000
      3        -16.051362   1.000000
      4         -8.555205   1.000000
      5         -7.133365   1.000000
      6          0.302952   0.000000
      7          3.803254   0.000000
      8          3.954536   0.000000
      9         11.190643   0.000000
     10         11.757252   0.000000
     11         12.964790   0.000000
     12         13.004775   0.000000
     13         13.480102   0.000000
     14         14.452058   0.000000
     15         14.669527   0.000000
     16         15.513350   0.000000
 
  0.6122449E+00 -0.3061224E+00  0.0000000E+00  0.6666667E-02
      1        -22.793572   1.000000
      2        -21.116601   1.000000
      3        -16.160054   1.000000
      4         -8.384117   1.000000
      5         -7.267334   1.000000
      6          0.241022   0.000000
      7          3.919329   0.000000