 running   16 mpi-ranks, on    1 nodes
 distrk:  each k-point on   16 cores,    1 groups
 distr:  one band on    4 cores,    4 groups
 vasp.6.4.2 20Jul23 (build Nov 14 2023 12:59:38) complex                        
  
 POSCAR found type information on POSCAR N 
 POSCAR found :  1 types and       2 ions
 Reading from existing POTCAR
 scaLAPACK will be used
 Reading from existing POTCAR
 LDA part: xc-table for Pade appr. of Perdew
 POSCAR, INCAR and KPOINTS ok, starting setup
 FFT: planning ... GRIDC
 FFT: planning ... GRID_SOFT
 FFT: planning ... GRID
 WAVECAR not read
 entering main loop
       N       E                     dE             d eps       ncg     rms          rms(c)
DAV:   1     0.706509586260E+02    0.70651E+02   -0.40202E+03  1432   0.455E+02
DAV:   2    -0.919056819162E+01   -0.79842E+02   -0.67159E+02  2056   0.155E+02
DAV:   3    -0.140096685184E+02   -0.48191E+01   -0.47904E+01  1720   0.418E+01
DAV:   4    -0.140441167494E+02   -0.34448E-01   -0.34445E-01  1848   0.446E+00
DAV:   5    -0.140445058339E+02   -0.38908E-03   -0.38908E-03  1832   0.332E-01
DAV:   6    -0.140445130108E+02   -0.71769E-05   -0.71769E-05  2056   0.313E-02
DAV:   7    -0.140445131428E+02   -0.13206E-06   -0.13208E-06  1880   0.241E-03
DAV:   8    -0.140445131457E+02   -0.28283E-08   -0.29190E-08  1464   0.244E-04
DAV:   9    -0.140445131456E+02    0.38312E-10   -0.99913E-10  1008   0.774E-05
DAV:  10    -0.140445131455E+02    0.91745E-10   -0.27945E-10   960   0.437E-05
DAV:  11    -0.140445131454E+02    0.15189E-09   -0.10955E-10   824   0.269E-05
DAV:  12    -0.140445131459E+02   -0.57560E-09   -0.44521E-11   824   0.163E-05    0.607E+00
DAV:  13    -0.138576845594E+02    0.18683E+00   -0.27025E-02  1728   0.112E+00    0.532E+00
DAV:  14    -0.134167963837E+02    0.44089E+00   -0.13710E+00  1904   0.740E+00    0.709E-01
DAV:  15    -0.134174149298E+02   -0.61855E-03   -0.70288E-02  1512   0.184E+00    0.524E-01
DAV:  16    -0.134201820128E+02   -0.27671E-02   -0.72337E-03  1688   0.635E-01    0.148E-01
DAV:  17    -0.134198681160E+02    0.31390E-03   -0.18079E-03  1840   0.275E-01    0.598E-02
DAV:  18    -0.134198843071E+02   -0.16191E-04   -0.83745E-05  2032   0.620E-02    0.361E-02
DAV:  19    -0.134198902809E+02   -0.59738E-05   -0.40608E-05  1864   0.473E-02    0.988E-03
DAV:  20    -0.134198908261E+02   -0.54516E-06   -0.13342E-05  1568   0.281E-02    0.991E-03
DAV:  21    -0.134198895147E+02    0.13114E-05   -0.47590E-06  1528   0.149E-02    0.936E-04
DAV:  22    -0.134198895211E+02   -0.64119E-08   -0.20606E-07  1400   0.303E-03
   1 F= -.13419890E+02 E0= -.13419890E+02  d E =-.109800E-12
