       N       E                     dE             d eps       ncg     rms          rms(c)
DAV:   1     0.704447296008E+02    0.70445E+02   -0.39845E+03  4864   0.444E+02
DAV:   2    -0.950589806237E+01   -0.79951E+02   -0.67271E+02  7304   0.158E+02
DAV:   3    -0.134558874825E+02   -0.39500E+01   -0.39215E+01  6232   0.379E+01
DAV:   4    -0.134835159100E+02   -0.27628E-01   -0.27626E-01  6424   0.375E+00
DAV:   5    -0.134838213431E+02   -0.30543E-03   -0.30543E-03  6672   0.266E-01
DAV:   6    -0.134838269905E+02   -0.56474E-05   -0.56472E-05  6640   0.220E-02
DAV:   7    -0.134838270716E+02   -0.81129E-07   -0.81161E-07  6688   0.147E-03
DAV:   8    -0.134838270741E+02   -0.24917E-08   -0.24965E-08  4752   0.172E-04
DAV:   9    -0.134838270742E+02   -0.85493E-10   -0.97108E-10  4048   0.548E-05
DAV:  10    -0.134838270742E+02   -0.37744E-10   -0.27669E-10  3688   0.323E-05
DAV:  11    -0.134838270742E+02   -0.10914E-10   -0.11293E-10  3552   0.203E-05
DAV:  12    -0.134838270742E+02    0.18190E-11   -0.47052E-11  3352   0.128E-05
DAV:  13    -0.134838270742E+02    0.22737E-11   -0.19740E-11  3184   0.820E-06
   1 F= -.13483827E+02 E0= -.13483827E+02  d E =-.393756E-12
