 vasp.6.4.2 20Jul23 (build Nov 14 2023 12:59:38) complex                        
  
 executed on             LinuxIFC date 2023.12.17  08:42:03
 running   16 mpi-ranks, on    1 nodes
 distrk:  each k-point on   16 cores,    1 groups
 distr:  one band on NCORE=   4 cores,    4 groups


--------------------------------------------------------------------------------------------------------


 INCAR:
   ENCUT = 473.514750
   ALGO = Normal
   NELM = 200
   NELMIN = 6
   NELMDL = -12
   EDIFF = 1.0E-6
   AMIX = 0.1
   BMIX = 0.0001
   NBANDS = 16
   PREC = Accurate
   IVDW = 0
   ISPIN = 1
   ADDGRID = .TRUE.
   LASPH = .TRUE.
   NSW = 0
   EDIFFG = -0.010
   IBRION = 2
   ISIF = -1
   POTIM = 0.5
   STRESSTYPE = 2
   ISMEAR = 0
   SIGMA = 0.01
   LORBIT = 10
   NEDOS = 6001
   NWRITE = 1
   LWAVE = .FALSE.
   LCHARG = .FALSE.
   ICHARG = 11
   NCORE = 4
   LPLANE = .TRUE.

 POTCAR:    PAW_PBE N_GW 10Apr2007                
 POTCAR:    PAW_PBE N_GW 10Apr2007                
  local pseudopotential read in
  kinetic energy density of atom read in
  atomic valenz-charges read in
  non local Contribution for L=           0  read in
    real space projection operators read in
  non local Contribution for L=           0  read in
    real space projection operators read in
  non local Contribution for L=           1  read in
    real space projection operators read in
  non local Contribution for L=           1  read in
    real space projection operators read in
    PAW grid and wavefunctions read in
 
   number of l-projection  operators is LMAX  =           4
   number of lm-projection operators is LMMAX =           8
 
  PAW_PBE N_GW 10Apr2007                :
 energy of atom  1       EATOM= -264.5486
 kinetic energy error for atom=    0.0147 (will be added to EATOM!!)
 
 
 POSCAR: pnictogen honeycomb monolayer
  positions in direct lattice
  velocities in cartesian coordinates
 exchange correlation table for  LEXCH =        8
   RHO(1)=    0.500       N(1)  =     2000
   RHO(2)=  100.500       N(2)  =     4000
 


--------------------------------------------------------------------------------------------------------


 ion  position               nearest neighbor table
   1  0.667  0.333  0.478-   2 1.50   2 1.50   2 1.50
   2  0.333  0.667  0.522-   1 1.50   1 1.50   1 1.50
 
  LATTYP: Found a hexagonal cell.
 ALAT       =     2.2944985944
 C/A-ratio  =     6.9732010465
  
  Lattice vectors:
  
 A1 = (   2.2944985944,   0.0000000000,   0.0000000000)
 A2 = (  -1.1472492972,   1.9870940717,   0.0000000000)
 A3 = (   0.0000000000,   0.0000000000,  16.0000000000)


Analysis of symmetry for initial positions (statically):
=====================================================================
 Subroutine PRICEL returns:
 Original cell was already a primitive cell.
 

 Routine SETGRP: Setting up the symmetry group for a 
 hexagonal supercell.


 Subroutine GETGRP returns: Found 12 space group operations
 (whereof 12 operations were pure point group operations)
 out of a pool of 24 trial point group operations.


The static configuration has the point symmetry D_3d.


Analysis of symmetry for dynamics (positions and initial velocities):
=====================================================================
 Subroutine PRICEL returns:
 Original cell was already a primitive cell.
 

 Routine SETGRP: Setting up the symmetry group for a 
 hexagonal supercell.


 Subroutine GETGRP returns: Found 12 space group operations
 (whereof 12 operations were pure point group operations)
 out of a pool of 24 trial point group operations.


The dynamic configuration has the point symmetry D_3d.


 Subroutine INISYM returns: Found 12 space group operations
 (whereof 12 operations are pure point group operations),
 and found     1 'primitive' translations


----------------------------------------------------------------------------------------

                                     Primitive cell                                     

  volume of cell :      72.9502

  direct lattice vectors                    reciprocal lattice vectors
     2.294498594  0.000000000  0.000000000     0.435825065  0.251623719  0.000000000
    -1.147249297  1.987094072  0.000000000     0.000000000  0.503247438  0.000000000
     0.000000000  0.000000000 16.000000000     0.000000000  0.000000000  0.062500000

  length of vectors
     2.294498594  2.294498594 16.000000000     0.503247438  0.503247438  0.062500000

  position of ions in fractional coordinates (direct lattice)
     0.666666667  0.333333333  0.478221854
     0.333333333  0.666666667  0.521778146

  ion indices of the primitive-cell ions
   primitive index   ion index
                 1           1
                 2           2

----------------------------------------------------------------------------------------

 
 
 KPOINTS: kpoints along symmetry lines            

Interpolating k-points between supplied coordinates.

 Line segments in fractional coordinates (reciprocal lattice):
    0.000000  0.000000  0.000000  ...  0.666667 -0.333333  0.000000
    0.666667 -0.333333  0.000000  ...  0.333333  0.333333  0.000000
    0.333333  0.333333  0.000000  ...  0.000000  0.000000  0.000000

 Generated    50 points on each line segment, for a total of    150 k-points:

 Following reciprocal coordinates:
            Coordinates               Weight
  0.000000  0.000000  0.000000      0.006667
  0.013605 -0.006803  0.000000      0.006667
  0.027211 -0.013605  0.000000      0.006667
  0.040816 -0.020408  0.000000      0.006667
  0.054422 -0.027211  0.000000      0.006667
  0.068027 -0.034014  0.000000      0.006667
  0.081633 -0.040816  0.000000      0.006667
  0.095238 -0.047619  0.000000      0.006667
  0.108844 -0.054422  0.000000      0.006667
  0.122449 -0.061224  0.000000      0.006667
  0.136054 -0.068027  0.000000      0.006667
  0.149660 -0.074830  0.000000      0.006667
  0.163265 -0.081633  0.000000      0.006667
  0.176871 -0.088435  0.000000      0.006667
  0.190476 -0.095238  0.000000      0.006667
  0.204082 -0.102041  0.000000      0.006667
  0.217687 -0.108844  0.000000      0.006667
  0.231293 -0.115646  0.000000      0.006667
  0.244898 -0.122449  0.000000      0.006667
  0.258503 -0.129252  0.000000      0.006667
  0.272109 -0.136054  0.000000      0.006667
  0.285714 -0.142857  0.000000      0.006667
  0.299320 -0.149660  0.000000      0.006667
  0.312925 -0.156463  0.000000      0.006667
  0.326531 -0.163265  0.000000      0.006667
  0.340136 -0.170068  0.000000      0.006667
  0.353741 -0.176871  0.000000      0.006667
  0.367347 -0.183673  0.000000      0.006667
  0.380952 -0.190476  0.000000      0.006667
  0.394558 -0.197279  0.000000      0.006667
  0.408163 -0.204082  0.000000      0.006667
  0.421769 -0.210884  0.000000      0.006667
  0.435374 -0.217687  0.000000      0.006667
  0.448980 -0.224490  0.000000      0.006667
  0.462585 -0.231293  0.000000      0.006667
  0.476190 -0.238095  0.000000      0.006667
  0.489796 -0.244898  0.000000      0.006667
  0.503401 -0.251701  0.000000      0.006667
  0.517007 -0.258503  0.000000      0.006667
  0.530612 -0.265306  0.000000      0.006667
  0.544218 -0.272109  0.000000      0.006667
  0.557823 -0.278912  0.000000      0.006667
  0.571429 -0.285714  0.000000      0.006667
  0.585034 -0.292517  0.000000      0.006667
  0.598639 -0.299320  0.000000      0.006667
  0.612245 -0.306122  0.000000      0.006667
  0.625850 -0.312925  0.000000      0.006667
  0.639456 -0.319728  0.000000      0.006667
  0.653061 -0.326531  0.000000      0.006667
  0.666667 -0.333333  0.000000      0.006667
  0.666667 -0.333333  0.000000      0.006667
  0.659864 -0.319728  0.000000      0.006667
  0.653061 -0.306122  0.000000      0.006667
  0.646259 -0.292517  0.000000      0.006667
  0.639456 -0.278912  0.000000      0.006667
  0.632653 -0.265306  0.000000      0.006667
  0.625850 -0.251701  0.000000      0.006667
  0.619048 -0.238095  0.000000      0.006667
  0.612245 -0.224490  0.000000      0.006667
  0.605442 -0.210884  0.000000      0.006667
  0.598639 -0.197279  0.000000      0.006667
  0.591837 -0.183673  0.000000      0.006667
  0.585034 -0.170068  0.000000      0.006667
  0.578231 -0.156463  0.000000      0.006667
  0.571429 -0.142857  0.000000      0.006667
  0.564626 -0.129252  0.000000      0.006667
  0.557823 -0.115646  0.000000      0.006667
  0.551020 -0.102041  0.000000      0.006667
  0.544218 -0.088435  0.000000      0.006667
  0.537415 -0.074830  0.000000      0.006667
  0.530612 -0.061224  0.000000      0.006667
  0.523810 -0.047619  0.000000      0.006667
  0.517007 -0.034014  0.000000      0.006667
  0.510204 -0.020408  0.000000      0.006667
  0.503401 -0.006803  0.000000      0.006667
  0.496599  0.006803  0.000000      0.006667
  0.489796  0.020408  0.000000      0.006667
  0.482993  0.034014  0.000000      0.006667
  0.476190  0.047619  0.000000      0.006667
  0.469388  0.061224  0.000000      0.006667
  0.462585  0.074830  0.000000      0.006667
  0.455782  0.088435  0.000000      0.006667
  0.448980  0.102041  0.000000      0.006667
  0.442177  0.115646  0.000000      0.006667
  0.435374  0.129252  0.000000      0.006667
  0.428571  0.142857  0.000000      0.006667
  0.421769  0.156463  0.000000      0.006667
  0.414966  0.170068  0.000000      0.006667
  0.408163  0.183673  0.000000      0.006667
  0.401361  0.197279  0.000000      0.006667
  0.394558  0.210884  0.000000      0.006667
  0.387755  0.224490  0.000000      0.006667
  0.380952  0.238095  0.000000      0.006667
  0.374150  0.251701  0.000000      0.006667
  0.367347  0.265306  0.000000      0.006667
  0.360544  0.278912  0.000000      0.006667
  0.353741  0.292517  0.000000      0.006667
  0.346939  0.306122  0.000000      0.006667
  0.340136  0.319728  0.000000      0.006667
  0.333333  0.333333  0.000000      0.006667
  0.333333  0.333333  0.000000      0.006667
  0.326531  0.326531  0.000000      0.006667
  0.319728  0.319728  0.000000      0.006667
  0.312925  0.312925  0.000000      0.006667
  0.306122  0.306122  0.000000      0.006667
  0.299320  0.299320  0.000000      0.006667
  0.292517  0.292517  0.000000      0.006667
  0.285714  0.285714  0.000000      0.006667
  0.278912  0.278912  0.000000      0.006667
  0.272109  0.272109  0.000000      0.006667
  0.265306  0.265306  0.000000      0.006667
  0.258503  0.258503  0.000000      0.006667
  0.251701  0.251701  0.000000      0.006667
  0.244898  0.244898  0.000000      0.006667
  0.238095  0.238095  0.000000      0.006667
  0.231293  0.231293  0.000000      0.006667
  0.224490  0.224490  0.000000      0.006667
  0.217687  0.217687  0.000000      0.006667
  0.210884  0.210884  0.000000      0.006667
  0.204082  0.204082  0.000000      0.006667
  0.197279  0.197279  0.000000      0.006667
  0.190476  0.190476  0.000000      0.006667
  0.183673  0.183673  0.000000      0.006667
  0.176871  0.176871  0.000000      0.006667
  0.170068  0.170068  0.000000      0.006667
  0.163265  0.163265  0.000000      0.006667
  0.156463  0.156463  0.000000      0.006667
  0.149660  0.149660  0.000000      0.006667
  0.142857  0.142857  0.000000      0.006667
  0.136054  0.136054  0.000000      0.006667
  0.129252  0.129252  0.000000      0.006667
  0.122449  0.122449  0.000000      0.006667
  0.115646  0.115646  0.000000      0.006667
  0.108844  0.108844  0.000000      0.006667
  0.102041  0.102041  0.000000      0.006667
  0.095238  0.095238  0.000000      0.006667
  0.088435  0.088435  0.000000      0.006667
  0.081633  0.081633  0.000000      0.006667
  0.074830  0.074830  0.000000      0.006667
  0.068027  0.068027  0.000000      0.006667
  0.061224  0.061224  0.000000      0.006667
  0.054422  0.054422  0.000000      0.006667
  0.047619  0.047619  0.000000      0.006667
  0.040816  0.040816  0.000000      0.006667
  0.034014  0.034014  0.000000      0.006667
  0.027211  0.027211  0.000000      0.006667
  0.020408  0.020408  0.000000      0.006667
  0.013605  0.013605  0.000000      0.006667
  0.006803  0.006803  0.000000      0.006667
  0.000000  0.000000  0.000000      0.006667

 Following cartesian coordinates:
            Coordinates               Weight
  0.000000  0.000000  0.000000      0.006667
  0.005930  0.000000  0.000000      0.006667
  0.011859  0.000000  0.000000      0.006667
  0.017789  0.000000  0.000000      0.006667
  0.023718  0.000000  0.000000      0.006667
  0.029648  0.000000  0.000000      0.006667
  0.035578  0.000000  0.000000      0.006667
  0.041507  0.000000  0.000000      0.006667
  0.047437  0.000000  0.000000      0.006667
  0.053366  0.000000  0.000000      0.006667
  0.059296  0.000000  0.000000      0.006667
  0.065226  0.000000  0.000000      0.006667
  0.071155  0.000000  0.000000      0.006667
  0.077085  0.000000  0.000000      0.006667
  0.083014  0.000000  0.000000      0.006667
  0.088944  0.000000  0.000000      0.006667
  0.094873  0.000000  0.000000      0.006667
  0.100803  0.000000  0.000000      0.006667
  0.106733  0.000000  0.000000      0.006667
  0.112662  0.000000  0.000000      0.006667
  0.118592  0.000000  0.000000      0.006667
  0.124521  0.000000  0.000000      0.006667
  0.130451  0.000000  0.000000      0.006667
  0.136381  0.000000  0.000000      0.006667
  0.142310  0.000000  0.000000      0.006667
  0.148240  0.000000  0.000000      0.006667
  0.154169  0.000000  0.000000      0.006667
  0.160099  0.000000  0.000000      0.006667
  0.166029  0.000000  0.000000      0.006667
  0.171958  0.000000  0.000000      0.006667
  0.177888  0.000000  0.000000      0.006667
  0.183817  0.000000  0.000000      0.006667
  0.189747  0.000000  0.000000      0.006667
  0.195677  0.000000  0.000000      0.006667
  0.201606  0.000000  0.000000      0.006667
  0.207536  0.000000  0.000000      0.006667
  0.213465  0.000000  0.000000      0.006667
  0.219395  0.000000  0.000000      0.006667
  0.225325  0.000000  0.000000      0.006667
  0.231254  0.000000  0.000000      0.006667
  0.237184  0.000000  0.000000      0.006667
  0.243113  0.000000  0.000000      0.006667
  0.249043  0.000000  0.000000      0.006667
  0.254972  0.000000  0.000000      0.006667
  0.260902  0.000000  0.000000      0.006667
  0.266832  0.000000  0.000000      0.006667
  0.272761  0.000000  0.000000      0.006667
  0.278691  0.000000  0.000000      0.006667
  0.284620  0.000000  0.000000      0.006667
  0.290550  0.000000  0.000000      0.006667
  0.290550  0.000000  0.000000      0.006667
  0.287585  0.005135  0.000000      0.006667
  0.284620  0.010270  0.000000      0.006667
  0.281656  0.015406  0.000000      0.006667
  0.278691  0.020541  0.000000      0.006667
  0.275726  0.025676  0.000000      0.006667
  0.272761  0.030811  0.000000      0.006667
  0.269796  0.035946  0.000000      0.006667
  0.266832  0.041081  0.000000      0.006667
  0.263867  0.046217  0.000000      0.006667
  0.260902  0.051352  0.000000      0.006667
  0.257937  0.056487  0.000000      0.006667
  0.254972  0.061622  0.000000      0.006667
  0.252008  0.066757  0.000000      0.006667
  0.249043  0.071892  0.000000      0.006667
  0.246078  0.077028  0.000000      0.006667
  0.243113  0.082163  0.000000      0.006667
  0.240149  0.087298  0.000000      0.006667
  0.237184  0.092433  0.000000      0.006667
  0.234219  0.097568  0.000000      0.006667
  0.231254  0.102704  0.000000      0.006667
  0.228289  0.107839  0.000000      0.006667
  0.225325  0.112974  0.000000      0.006667
  0.222360  0.118109  0.000000      0.006667
  0.219395  0.123244  0.000000      0.006667
  0.216430  0.128379  0.000000      0.006667
  0.213465  0.133515  0.000000      0.006667
  0.210501  0.138650  0.000000      0.006667
  0.207536  0.143785  0.000000      0.006667
  0.204571  0.148920  0.000000      0.006667
  0.201606  0.154055  0.000000      0.006667
  0.198641  0.159191  0.000000      0.006667
  0.195677  0.164326  0.000000      0.006667
  0.192712  0.169461  0.000000      0.006667
  0.189747  0.174596  0.000000      0.006667
  0.186782  0.179731  0.000000      0.006667
  0.183817  0.184866  0.000000      0.006667
  0.180853  0.190002  0.000000      0.006667
  0.177888  0.195137  0.000000      0.006667
  0.174923  0.200272  0.000000      0.006667
  0.171958  0.205407  0.000000      0.006667
  0.168993  0.210542  0.000000      0.006667
  0.166029  0.215677  0.000000      0.006667
  0.163064  0.220813  0.000000      0.006667
  0.160099  0.225948  0.000000      0.006667
  0.157134  0.231083  0.000000      0.006667
  0.154169  0.236218  0.000000      0.006667
  0.151205  0.241353  0.000000      0.006667
  0.148240  0.246489  0.000000      0.006667
  0.145275  0.251624  0.000000      0.006667
  0.145275  0.251624  0.000000      0.006667
  0.142310  0.246489  0.000000      0.006667
  0.139345  0.241353  0.000000      0.006667
  0.136381  0.236218  0.000000      0.006667
  0.133416  0.231083  0.000000      0.006667
  0.130451  0.225948  0.000000      0.006667
  0.127486  0.220813  0.000000      0.006667
  0.124521  0.215677  0.000000      0.006667
  0.121557  0.210542  0.000000      0.006667
  0.118592  0.205407  0.000000      0.006667
  0.115627  0.200272  0.000000      0.006667
  0.112662  0.195137  0.000000      0.006667
  0.109697  0.190002  0.000000      0.006667
  0.106733  0.184866  0.000000      0.006667
  0.103768  0.179731  0.000000      0.006667
  0.100803  0.174596  0.000000      0.006667
  0.097838  0.169461  0.000000      0.006667
  0.094873  0.164326  0.000000      0.006667
  0.091909  0.159191  0.000000      0.006667
  0.088944  0.154055  0.000000      0.006667
  0.085979  0.148920  0.000000      0.006667
  0.083014  0.143785  0.000000      0.006667
  0.080050  0.138650  0.000000      0.006667
  0.077085  0.133515  0.000000      0.006667
  0.074120  0.128379  0.000000      0.006667
  0.071155  0.123244  0.000000      0.006667
  0.068190  0.118109  0.000000      0.006667
  0.065226  0.112974  0.000000      0.006667
  0.062261  0.107839  0.000000      0.006667
  0.059296  0.102704  0.000000      0.006667
  0.056331  0.097568  0.000000      0.006667
  0.053366  0.092433  0.000000      0.006667
  0.050402  0.087298  0.000000      0.006667
  0.047437  0.082163  0.000000      0.006667
  0.044472  0.077028  0.000000      0.006667
  0.041507  0.071892  0.000000      0.006667
  0.038542  0.066757  0.000000      0.006667
  0.035578  0.061622  0.000000      0.006667
  0.032613  0.056487  0.000000      0.006667
  0.029648  0.051352  0.000000      0.006667
  0.026683  0.046217  0.000000      0.006667
  0.023718  0.041081  0.000000      0.006667
  0.020754  0.035946  0.000000      0.006667
  0.017789  0.030811  0.000000      0.006667
  0.014824  0.025676  0.000000      0.006667
  0.011859  0.020541  0.000000      0.006667
  0.008894  0.015406  0.000000      0.006667
  0.005930  0.010270  0.000000      0.006667
  0.002965  0.005135  0.000000      0.006667
  0.000000  0.000000  0.000000      0.006667
 


--------------------------------------------------------------------------------------------------------




 Dimension of arrays:
   k-points           NKPTS =    150   k-points in BZ     NKDIM =    150   number of bands    NBANDS=     16
   number of dos      NEDOS =   6001   number of ions     NIONS =      2
   non local maximal  LDIM  =      4   non local SUM 2l+1 LMDIM =      8
   total plane-waves  NPLWV =  30720
   max r-space proj   IRMAX =      1   max aug-charges    IRDMAX=  24124
   dimension x,y,z NGX =    16 NGY =   16 NGZ =  120
   dimension x,y,z NGXF=    32 NGYF=   32 NGZF=  240
   support grid    NGXF=    64 NGYF=   64 NGZF=  480
   ions per type =               2
   NGX,Y,Z   is equivalent  to a cutoff of  11.59, 11.59, 12.47 a.u.
   NGXF,Y,Z  is equivalent  to a cutoff of  23.19, 23.19, 24.94 a.u.

 SYSTEM =  unknown system                          
 POSCAR =  pnictogen honeycomb monolayer           

 Startparameter for this run:
   NWRITE =      1    write-flag & timer
   PREC   = accura    normal or accurate (medium, high low for compatibility)
   ISTART =      0    job   : 0-new  1-cont  2-samecut
   ICHARG =     11    charge: 1-file 2-atom 10-const
   ISPIN  =      1    spin polarized calculation?
   LNONCOLLINEAR =      F non collinear calculations
   LSORBIT =      F    spin-orbit coupling
   INIWAV =      1    electr: 0-lowe 1-rand  2-diag
   LASPH  =      T    aspherical Exc in radial PAW
 Electronic Relaxation 1
   ENCUT  =  473.5 eV  34.80 Ry    5.90 a.u.   4.07  4.07 28.39*2*pi/ulx,y,z
   ENINI  =  473.5     initial cutoff
   ENAUG  =  904.6 eV  augmentation charge cutoff
   NELM   =    200;   NELMIN=  6; NELMDL=-12     # of ELM steps 
   EDIFF  = 0.1E-05   stopping-criterion for ELM
   LREAL  =      F    real-space projection
   NLSPLINE    = F    spline interpolate recip. space projectors
   LCOMPAT=      F    compatible to vasp.4.4
   GGA_COMPAT  = T    GGA compatible to vasp.4.4-vasp.4.6
   LMAXPAW     = -100 max onsite density
   LMAXMIX     =    2 max onsite mixed and CHGCAR
   VOSKOWN=      0    Vosko Wilk Nusair interpolation
   ROPT   =    0.00000
 Ionic relaxation
   EDIFFG = -.1E-01   stopping-criterion for IOM
   NSW    =      0    number of steps for IOM
   NBLOCK =      1;   KBLOCK =      1    inner block; outer block 
   IBRION =     -1    ionic relax: 0-MD 1-quasi-New 2-CG
   NFREE  =      1    steps in history (QN), initial steepest desc. (CG)
   ISIF   =     -1    stress and relaxation
   IWAVPR =     10    prediction:  0-non 1-charg 2-wave 3-comb
   ISYM   =      2    0-nonsym 1-usesym 2-fastsym
   LCORR  =      T    Harris-Foulkes like correction to forces

   POTIM  = 0.5000    time-step for ionic-motion
   TEIN   =    0.0    initial temperature
   TEBEG  =    0.0;   TEEND  =   0.0 temperature during run
   SMASS  =  -3.00    Nose mass-parameter (am)
   estimated Nose-frequenzy (Omega)   =  0.10E-29 period in steps = 0.13E+47 mass=  -0.120E-27a.u.
   SCALEE = 1.0000    scale energy and forces
   NPACO  =    256;   APACO  = 10.0  distance and # of slots for P.C.
   PSTRESS=    0.0 pullay stress

  Mass of Ions in am
   POMASS =  14.00
  Ionic Valenz
   ZVAL   =   5.00
  Atomic Wigner-Seitz radii
   RWIGS  =  -1.00
  virtual crystal weights 
   VCA    =   1.00
   NELECT =      10.0000    total number of electrons
   NUPDOWN=      -1.0000    fix difference up-down

 DOS related values:
   EMIN   =  10.00;   EMAX   =-10.00  energy-range for DOS
   EFERMI =   0.00;   METHOD = LEGACY      
   ISMEAR =     0;   SIGMA  =   0.01  broadening in eV -4-tet -1-fermi 0-gaus

 Electronic relaxation 2 (details)
   IALGO  =     38    algorithm
   LDIAG  =      T    sub-space diagonalisation (order eigenvalues)
   LSUBROT=      F    optimize rotation matrix (better conditioning)
   TURBO    =      0    0=normal 1=particle mesh
   IRESTART =      0    0=no restart 2=restart with 2 vectors
   NREBOOT  =      0    no. of reboots
   NMIN     =      0    reboot dimension
   EREF     =   0.00    reference energy to select bands
   IMIX   =      4    mixing-type and parameters
     AMIX     =   0.10;   BMIX     =  0.00
     AMIX_MAG =   0.40;   BMIX_MAG =  0.00
     AMIN     =   0.10
     WC   =   100.;   INIMIX=   1;  MIXPRE=   1;  MAXMIX= -45

 Intra band minimization:
   WEIMIN = 0.0000     energy-eigenvalue tresh-hold
   EBREAK =  0.16E-07  absolut break condition
   DEPER  =   0.30     relativ break condition  

   TIME   =   0.40     timestep for ELM

  volume/ion in A,a.u.               =      36.48       246.15
  Fermi-wavevector in a.u.,A,eV,Ry     =   0.844111  1.595138  9.694463  0.712523
  Thomas-Fermi vector in A             =   1.959086
 
 Write flags
   LWAVE        =      F    write WAVECAR
   LDOWNSAMPLE  =      F    k-point downsampling of WAVECAR
   LCHARG       =      F    write CHGCAR
   LVTOT        =      F    write LOCPOT, total local potential
   LVHAR        =      F    write LOCPOT, Hartree potential only
   LELF         =      F    write electronic localiz. function (ELF)
   LORBIT       =     10    0 simple, 1 ext, 2 COOP (PROOUT), +10 PAW based schemes


 Dipole corrections
   LMONO  =      F    monopole corrections only (constant potential shift)
   LDIPOL =      F    correct potential (dipole corrections)
   IDIPOL =      0    1-x, 2-y, 3-z, 4-all directions 
   EPSILON=  1.0000000 bulk dielectric constant

 Exchange correlation treatment:
   GGA     =    --    GGA type
   LEXCH   =     8    internal setting for exchange type
   LIBXC   =     F    Libxc                    
   VOSKOWN =     0    Vosko Wilk Nusair interpolation
   LHFCALC =     F    Hartree Fock is set to
   LHFONE  =     F    Hartree Fock one center treatment
   AEXX    =    0.0000 exact exchange contribution

 Linear response parameters
   LEPSILON=     F    determine dielectric tensor
   LRPA    =     F    only Hartree local field effects (RPA)
   LNABLA  =     F    use nabla operator in PAW spheres
   LVEL    =     F    velocity operator in full k-point grid
   CSHIFT  =0.1000    complex shift for real part using Kramers Kronig
   OMEGAMAX=  -1.0    maximum frequency
   DEG_THRESHOLD= 0.2000000E-02 threshold for treating states as degnerate
   RTIME   =   -0.100 relaxation time in fs
  (WPLASMAI=    0.000 imaginary part of plasma frequency in eV, 0.658/RTIME)
   DFIELD  = 0.0000000 0.0000000 0.0000000 field for delta impulse in time
 
  Optional k-point grid parameters
   LKPOINTS_OPT  =     F    use optional k-point grid
   KPOINTS_OPT_MODE=     1    mode for optional k-point grid
 
 Orbital magnetization related:
   ORBITALMAG=     F  switch on orbital magnetization
   LCHIMAG   =     F  perturbation theory with respect to B field
   DQ        =  0.001000  dq finite difference perturbation B field
   LLRAUG    =     F  two centre corrections for induced B field
   LBONE     =     F  B-component reconstruction in AE one-centre
   LVGVCALC  =     T  calculate vGv susceptibility
   LVGVAPPL  =     F  apply vGv susceptibility instead of pGv for G=0

 Random number generation:
   RANDOM_GENERATOR = DEFAULT
   PCG_SEED         = not used


--------------------------------------------------------------------------------------------------------


 Static calculation
 charge density and potential remain constant during run
 non-spin polarized calculation
 Variant of blocked Davidson
 Davidson routine will perform the subspace rotation
 perform sub-space diagonalisation
    after iterative eigenvector-optimisation
 no mixing
 using additional bands           11
 reciprocal scheme for non local part
 calculate Harris-corrections to forces 
   (improved forces if not selfconsistent)
 use gradient corrections 
 WARNING: stress and forces are not correct
  (second derivative of E(xc) not defined)
 use of overlap-Matrix (Vanderbilt PP)
 Gauss-broadening in eV      SIGMA  =   0.01


--------------------------------------------------------------------------------------------------------


  energy-cutoff  :      473.51
  volume of cell :       72.95
      direct lattice vectors                 reciprocal lattice vectors
     2.294498594  0.000000000  0.000000000     0.435825065  0.251623719  0.000000000
    -1.147249297  1.987094072  0.000000000     0.000000000  0.503247438  0.000000000
     0.000000000  0.000000000 16.000000000     0.000000000  0.000000000  0.062500000

  length of vectors
     2.294498594  2.294498594 16.000000000     0.503247438  0.503247438  0.062500000


 
 k-points in units of 2pi/SCALE and weight: kpoints along symmetry lines            
   0.00000000  0.00000000  0.00000000       0.007
   0.00592959  0.00000000  0.00000000       0.007
   0.01185919  0.00000000  0.00000000       0.007
   0.01778878  0.00000000  0.00000000       0.007
   0.02371837  0.00000000  0.00000000       0.007
   0.02964796  0.00000000  0.00000000       0.007
   0.03557756  0.00000000  0.00000000       0.007
   0.04150715  0.00000000  0.00000000       0.007
   0.04743674  0.00000000  0.00000000       0.007
   0.05336633  0.00000000  0.00000000       0.007
   0.05929593  0.00000000  0.00000000       0.007
   0.06522552  0.00000000  0.00000000       0.007
   0.07115511  0.00000000  0.00000000       0.007
   0.07708471  0.00000000  0.00000000       0.007
   0.08301430  0.00000000  0.00000000       0.007
   0.08894389  0.00000000  0.00000000       0.007
   0.09487348  0.00000000  0.00000000       0.007
   0.10080308  0.00000000  0.00000000       0.007
   0.10673267  0.00000000  0.00000000       0.007
   0.11266226  0.00000000  0.00000000       0.007
   0.11859185  0.00000000  0.00000000       0.007
   0.12452145  0.00000000  0.00000000       0.007
   0.13045104  0.00000000  0.00000000       0.007
   0.13638063  0.00000000  0.00000000       0.007
   0.14231023  0.00000000  0.00000000       0.007
   0.14823982  0.00000000  0.00000000       0.007
   0.15416941  0.00000000  0.00000000       0.007
   0.16009900  0.00000000  0.00000000       0.007
   0.16602860  0.00000000  0.00000000       0.007
   0.17195819  0.00000000  0.00000000       0.007
   0.17788778  0.00000000  0.00000000       0.007
   0.18381737  0.00000000  0.00000000       0.007
   0.18974697  0.00000000  0.00000000       0.007
   0.19567656  0.00000000  0.00000000       0.007
   0.20160615  0.00000000  0.00000000       0.007
   0.20753575  0.00000000  0.00000000       0.007
   0.21346534  0.00000000  0.00000000       0.007
   0.21939493  0.00000000  0.00000000       0.007
   0.22532452  0.00000000  0.00000000       0.007
   0.23125412  0.00000000  0.00000000       0.007
   0.23718371  0.00000000  0.00000000       0.007
   0.24311330  0.00000000  0.00000000       0.007
   0.24904289  0.00000000  0.00000000       0.007
   0.25497249  0.00000000  0.00000000       0.007
   0.26090208  0.00000000  0.00000000       0.007
   0.26683167  0.00000000  0.00000000       0.007
   0.27276127  0.00000000  0.00000000       0.007
   0.27869086  0.00000000  0.00000000       0.007
   0.28462045  0.00000000  0.00000000       0.007
   0.29055004  0.00000000  0.00000000       0.007
   0.29055004  0.00000000  0.00000000       0.007
   0.28758525  0.00513518  0.00000000       0.007
   0.28462045  0.01027036  0.00000000       0.007
   0.28165565  0.01540553  0.00000000       0.007
   0.27869086  0.02054071  0.00000000       0.007
   0.27572606  0.02567589  0.00000000       0.007
   0.27276127  0.03081107  0.00000000       0.007
   0.26979647  0.03594625  0.00000000       0.007
   0.26683167  0.04108142  0.00000000       0.007
   0.26386688  0.04621660  0.00000000       0.007
   0.26090208  0.05135178  0.00000000       0.007
   0.25793728  0.05648696  0.00000000       0.007
   0.25497249  0.06162214  0.00000000       0.007
   0.25200769  0.06675731  0.00000000       0.007
   0.24904289  0.07189249  0.00000000       0.007
   0.24607810  0.07702767  0.00000000       0.007
   0.24311330  0.08216285  0.00000000       0.007
   0.24014851  0.08729802  0.00000000       0.007
   0.23718371  0.09243320  0.00000000       0.007
   0.23421891  0.09756838  0.00000000       0.007
   0.23125412  0.10270356  0.00000000       0.007
   0.22828932  0.10783874  0.00000000       0.007
   0.22532452  0.11297391  0.00000000       0.007
   0.22235973  0.11810909  0.00000000       0.007
   0.21939493  0.12324427  0.00000000       0.007
   0.21643013  0.12837945  0.00000000       0.007
   0.21346534  0.13351463  0.00000000       0.007
   0.21050054  0.13864980  0.00000000       0.007
   0.20753575  0.14378498  0.00000000       0.007
   0.20457095  0.14892016  0.00000000       0.007
   0.20160615  0.15405534  0.00000000       0.007
   0.19864136  0.15919052  0.00000000       0.007
   0.19567656  0.16432569  0.00000000       0.007
   0.19271176  0.16946087  0.00000000       0.007
   0.18974697  0.17459605  0.00000000       0.007
   0.18678217  0.17973123  0.00000000       0.007
   0.18381737  0.18486641  0.00000000       0.007
   0.18085258  0.19000158  0.00000000       0.007
   0.17788778  0.19513676  0.00000000       0.007
   0.17492299  0.20027194  0.00000000       0.007
   0.17195819  0.20540712  0.00000000       0.007
   0.16899339  0.21054230  0.00000000       0.007
   0.16602860  0.21567747  0.00000000       0.007
   0.16306380  0.22081265  0.00000000       0.007
   0.16009900  0.22594783  0.00000000       0.007
   0.15713421  0.23108301  0.00000000       0.007
   0.15416941  0.23621819  0.00000000       0.007
   0.15120461  0.24135336  0.00000000       0.007
   0.14823982  0.24648854  0.00000000       0.007
   0.14527502  0.25162372  0.00000000       0.007
   0.14527502  0.25162372  0.00000000       0.007
   0.14231023  0.24648854  0.00000000       0.007
   0.13934543  0.24135336  0.00000000       0.007
   0.13638063  0.23621819  0.00000000       0.007
   0.13341584  0.23108301  0.00000000       0.007
   0.13045104  0.22594783  0.00000000       0.007
   0.12748624  0.22081265  0.00000000       0.007
   0.12452145  0.21567747  0.00000000       0.007
   0.12155665  0.21054230  0.00000000       0.007
   0.11859185  0.20540712  0.00000000       0.007
   0.11562706  0.20027194  0.00000000       0.007
   0.11266226  0.19513676  0.00000000       0.007
   0.10969747  0.19000158  0.00000000       0.007
   0.10673267  0.18486641  0.00000000       0.007
   0.10376787  0.17973123  0.00000000       0.007
   0.10080308  0.17459605  0.00000000       0.007
   0.09783828  0.16946087  0.00000000       0.007
   0.09487348  0.16432569  0.00000000       0.007
   0.09190869  0.15919052  0.00000000       0.007
   0.08894389  0.15405534  0.00000000       0.007
   0.08597909  0.14892016  0.00000000       0.007
   0.08301430  0.14378498  0.00000000       0.007
   0.08004950  0.13864980  0.00000000       0.007
   0.07708471  0.13351463  0.00000000       0.007
   0.07411991  0.12837945  0.00000000       0.007
   0.07115511  0.12324427  0.00000000       0.007
   0.06819032  0.11810909  0.00000000       0.007
   0.06522552  0.11297391  0.00000000       0.007
   0.06226072  0.10783874  0.00000000       0.007
   0.05929593  0.10270356  0.00000000       0.007
   0.05633113  0.09756838  0.00000000       0.007
   0.05336633  0.09243320  0.00000000       0.007
   0.05040154  0.08729802  0.00000000       0.007
   0.04743674  0.08216285  0.00000000       0.007
   0.04447195  0.07702767  0.00000000       0.007
   0.04150715  0.07189249  0.00000000       0.007
   0.03854235  0.06675731  0.00000000       0.007
   0.03557756  0.06162214  0.00000000       0.007
   0.03261276  0.05648696  0.00000000       0.007
   0.02964796  0.05135178  0.00000000       0.007
   0.02668317  0.04621660  0.00000000       0.007
   0.02371837  0.04108142  0.00000000       0.007
   0.02075357  0.03594625  0.00000000       0.007
   0.01778878  0.03081107  0.00000000       0.007
   0.01482398  0.02567589  0.00000000       0.007
   0.01185919  0.02054071  0.00000000       0.007
   0.00889439  0.01540553  0.00000000       0.007
   0.00592959  0.01027036  0.00000000       0.007
   0.00296480  0.00513518  0.00000000       0.007
   0.00000000  0.00000000  0.00000000       0.007
 
 k-points in reciprocal lattice and weights: kpoints along symmetry lines            
   0.00000000  0.00000000  0.00000000       0.007
   0.01360544 -0.00680272  0.00000000       0.007
   0.02721088 -0.01360544  0.00000000       0.007
   0.04081633 -0.02040816  0.00000000       0.007
   0.05442177 -0.02721088  0.00000000       0.007
   0.06802721 -0.03401361  0.00000000       0.007
   0.08163265 -0.04081633  0.00000000       0.007
   0.09523810 -0.04761905  0.00000000       0.007
   0.10884354 -0.05442177  0.00000000       0.007
   0.12244898 -0.06122449  0.00000000       0.007
   0.13605442 -0.06802721  0.00000000       0.007
   0.14965986 -0.07482993  0.00000000       0.007
   0.16326531 -0.08163265  0.00000000       0.007
   0.17687075 -0.08843537  0.00000000       0.007
   0.19047619 -0.09523810  0.00000000       0.007
   0.20408163 -0.10204082  0.00000000       0.007
   0.21768707 -0.10884354  0.00000000       0.007
   0.23129252 -0.11564626  0.00000000       0.007
   0.24489796 -0.12244898  0.00000000       0.007
   0.25850340 -0.12925170  0.00000000       0.007
   0.27210884 -0.13605442  0.00000000       0.007
   0.28571429 -0.14285714  0.00000000       0.007
   0.29931973 -0.14965986  0.00000000       0.007
   0.31292517 -0.15646259  0.00000000       0.007
   0.32653061 -0.16326531  0.00000000       0.007
   0.34013605 -0.17006803  0.00000000       0.007
   0.35374150 -0.17687075  0.00000000       0.007
   0.36734694 -0.18367347  0.00000000       0.007
   0.38095238 -0.19047619  0.00000000       0.007
   0.39455782 -0.19727891  0.00000000       0.007
   0.40816327 -0.20408163  0.00000000       0.007
   0.42176871 -0.21088435  0.00000000       0.007
   0.43537415 -0.21768707  0.00000000       0.007
   0.44897959 -0.22448980  0.00000000       0.007
   0.46258503 -0.23129252  0.00000000       0.007
   0.47619048 -0.23809524  0.00000000       0.007
   0.48979592 -0.24489796  0.00000000       0.007
   0.50340136 -0.25170068  0.00000000       0.007
   0.51700680 -0.25850340  0.00000000       0.007
   0.53061224 -0.26530612  0.00000000       0.007
   0.54421769 -0.27210884  0.00000000       0.007
   0.55782313 -0.27891156  0.00000000       0.007
   0.57142857 -0.28571429  0.00000000       0.007
   0.58503401 -0.29251701  0.00000000       0.007
   0.59863946 -0.29931973  0.00000000       0.007
   0.61224490 -0.30612245  0.00000000       0.007
   0.62585034 -0.31292517  0.00000000       0.007
   0.63945578 -0.31972789  0.00000000       0.007
   0.65306122 -0.32653061  0.00000000       0.007
   0.66666667 -0.33333333  0.00000000       0.007
   0.66666667 -0.33333333  0.00000000       0.007
   0.65986395 -0.31972789  0.00000000       0.007
   0.65306122 -0.30612245  0.00000000       0.007
   0.64625850 -0.29251701  0.00000000       0.007
   0.63945578 -0.27891156  0.00000000       0.007
   0.63265306 -0.26530612  0.00000000       0.007
   0.62585034 -0.25170068  0.00000000       0.007
   0.61904762 -0.23809524  0.00000000       0.007
   0.61224490 -0.22448980  0.00000000       0.007
   0.60544218 -0.21088435  0.00000000       0.007
   0.59863946 -0.19727891  0.00000000       0.007
   0.59183673 -0.18367347  0.00000000       0.007
   0.58503401 -0.17006803  0.00000000       0.007
   0.57823129 -0.15646259  0.00000000       0.007
   0.57142857 -0.14285714  0.00000000       0.007
   0.56462585 -0.12925170  0.00000000       0.007
   0.55782313 -0.11564626  0.00000000       0.007
   0.55102041 -0.10204082  0.00000000       0.007
   0.54421769 -0.08843537  0.00000000       0.007
   0.53741497 -0.07482993  0.00000000       0.007
   0.53061224 -0.06122449  0.00000000       0.007
   0.52380952 -0.04761905  0.00000000       0.007
   0.51700680 -0.03401361  0.00000000       0.007
   0.51020408 -0.02040816  0.00000000       0.007
   0.50340136 -0.00680272  0.00000000       0.007
   0.49659864  0.00680272  0.00000000       0.007
   0.48979592  0.02040816  0.00000000       0.007
   0.48299320  0.03401361  0.00000000       0.007
   0.47619048  0.04761905  0.00000000       0.007
   0.46938776  0.06122449  0.00000000       0.007
   0.46258503  0.07482993  0.00000000       0.007
   0.45578231  0.08843537  0.00000000       0.007
   0.44897959  0.10204082  0.00000000       0.007
   0.44217687  0.11564626  0.00000000       0.007
   0.43537415  0.12925170  0.00000000       0.007
   0.42857143  0.14285714  0.00000000       0.007
   0.42176871  0.15646259  0.00000000       0.007
   0.41496599  0.17006803  0.00000000       0.007
   0.40816327  0.18367347  0.00000000       0.007
   0.40136054  0.19727891  0.00000000       0.007
   0.39455782  0.21088435  0.00000000       0.007
   0.38775510  0.22448980  0.00000000       0.007
   0.38095238  0.23809524  0.00000000       0.007
   0.37414966  0.25170068  0.00000000       0.007
   0.36734694  0.26530612  0.00000000       0.007
   0.36054422  0.27891156  0.00000000       0.007
   0.35374150  0.29251701  0.00000000       0.007
   0.34693878  0.30612245  0.00000000       0.007
   0.34013605  0.31972789  0.00000000       0.007
   0.33333333  0.33333333  0.00000000       0.007
   0.33333333  0.33333333  0.00000000       0.007
   0.32653061  0.32653061  0.00000000       0.007
   0.31972789  0.31972789  0.00000000       0.007
   0.31292517  0.31292517  0.00000000       0.007
   0.30612245  0.30612245  0.00000000       0.007
   0.29931973  0.29931973  0.00000000       0.007
   0.29251701  0.29251701  0.00000000       0.007
   0.28571429  0.28571429  0.00000000       0.007
   0.27891156  0.27891156  0.00000000       0.007
   0.27210884  0.27210884  0.00000000       0.007
   0.26530612  0.26530612  0.00000000       0.007
   0.25850340  0.25850340  0.00000000       0.007
   0.25170068  0.25170068  0.00000000       0.007
   0.24489796  0.24489796  0.00000000       0.007
   0.23809524  0.23809524  0.00000000       0.007
   0.23129252  0.23129252  0.00000000       0.007
   0.22448980  0.22448980  0.00000000       0.007
   0.21768707  0.21768707  0.00000000       0.007
   0.21088435  0.21088435  0.00000000       0.007
   0.20408163  0.20408163  0.00000000       0.007
   0.19727891  0.19727891  0.00000000       0.007
   0.19047619  0.19047619  0.00000000       0.007
   0.18367347  0.18367347  0.00000000       0.007
   0.17687075  0.17687075  0.00000000       0.007
   0.17006803  0.17006803  0.00000000       0.007
   0.16326531  0.16326531  0.00000000       0.007
   0.15646259  0.15646259  0.00000000       0.007
   0.14965986  0.14965986  0.00000000       0.007
   0.14285714  0.14285714  0.00000000       0.007
   0.13605442  0.13605442  0.00000000       0.007
   0.12925170  0.12925170  0.00000000       0.007
   0.12244898  0.12244898  0.00000000       0.007
   0.11564626  0.11564626  0.00000000       0.007
   0.10884354  0.10884354  0.00000000       0.007
   0.10204082  0.10204082  0.00000000       0.007
   0.09523810  0.09523810  0.00000000       0.007
   0.08843537  0.08843537  0.00000000       0.007
   0.08163265  0.08163265  0.00000000       0.007
   0.07482993  0.07482993  0.00000000       0.007
   0.06802721  0.06802721  0.00000000       0.007
   0.06122449  0.06122449  0.00000000       0.007
   0.05442177  0.05442177  0.00000000       0.007
   0.04761905  0.04761905  0.00000000       0.007
   0.04081633  0.04081633  0.00000000       0.007
   0.03401361  0.03401361  0.00000000       0.007
   0.02721088  0.02721088  0.00000000       0.007
   0.02040816  0.02040816  0.00000000       0.007
   0.01360544  0.01360544  0.00000000       0.007
   0.00680272  0.00680272  0.00000000       0.007
   0.00000000  0.00000000  0.00000000       0.007
 
 position of ions in fractional coordinates (direct lattice) 
   0.66666667  0.33333333  0.47822185
   0.33333333  0.66666667  0.52177815
 
 position of ions in cartesian coordinates  (Angst):
   1.14724930  0.66236469  7.65154966
   0.00000000  1.32472938  8.34845034
 


--------------------------------------------------------------------------------------------------------


 k-point   1 :   0.0000 0.0000 0.0000  plane waves:    1647
 k-point   2 :   0.0136-0.0068 0.0000  plane waves:    1649
 k-point   3 :   0.0272-0.0136 0.0000  plane waves:    1647
 k-point   4 :   0.0408-0.0204 0.0000  plane waves:    1649
 k-point   5 :   0.0544-0.0272 0.0000  plane waves:    1655
 k-point   6 :   0.0680-0.0340 0.0000  plane waves:    1651
 k-point   7 :   0.0816-0.0408 0.0000  plane waves:    1650
 k-point   8 :   0.0952-0.0476 0.0000  plane waves:    1636
 k-point   9 :   0.1088-0.0544 0.0000  plane waves:    1650
 k-point  10 :   0.1224-0.0612 0.0000  plane waves:    1654
 k-point  11 :   0.1361-0.0680 0.0000  plane waves:    1656
 k-point  12 :   0.1497-0.0748 0.0000  plane waves:    1660
 k-point  13 :   0.1633-0.0816 0.0000  plane waves:    1676
 k-point  14 :   0.1769-0.0884 0.0000  plane waves:    1678
 k-point  15 :   0.1905-0.0952 0.0000  plane waves:    1680
 k-point  16 :   0.2041-0.1020 0.0000  plane waves:    1688
 k-point  17 :   0.2177-0.1088 0.0000  plane waves:    1684
 k-point  18 :   0.2313-0.1156 0.0000  plane waves:    1692
 k-point  19 :   0.2449-0.1224 0.0000  plane waves:    1696
 k-point  20 :   0.2585-0.1293 0.0000  plane waves:    1690
 k-point  21 :   0.2721-0.1361 0.0000  plane waves:    1702
 k-point  22 :   0.2857-0.1429 0.0000  plane waves:    1702
 k-point  23 :   0.2993-0.1497 0.0000  plane waves:    1702
 k-point  24 :   0.3129-0.1565 0.0000  plane waves:    1704
 k-point  25 :   0.3265-0.1633 0.0000  plane waves:    1704
 k-point  26 :   0.3401-0.1701 0.0000  plane waves:    1700
 k-point  27 :   0.3537-0.1769 0.0000  plane waves:    1700
 k-point  28 :   0.3673-0.1837 0.0000  plane waves:    1702
 k-point  29 :   0.3810-0.1905 0.0000  plane waves:    1716
 k-point  30 :   0.3946-0.1973 0.0000  plane waves:    1710
 k-point  31 :   0.4082-0.2041 0.0000  plane waves:    1706
 k-point  32 :   0.4218-0.2109 0.0000  plane waves:    1710
 k-point  33 :   0.4354-0.2177 0.0000  plane waves:    1714
 k-point  34 :   0.4490-0.2245 0.0000  plane waves:    1714
 k-point  35 :   0.4626-0.2313 0.0000  plane waves:    1716
 k-point  36 :   0.4762-0.2381 0.0000  plane waves:    1716
 k-point  37 :   0.4898-0.2449 0.0000  plane waves:    1712
 k-point  38 :   0.5034-0.2517 0.0000  plane waves:    1708
 k-point  39 :   0.5170-0.2585 0.0000  plane waves:    1710
 k-point  40 :   0.5306-0.2653 0.0000  plane waves:    1714
 k-point  41 :   0.5442-0.2721 0.0000  plane waves:    1720
 k-point  42 :   0.5578-0.2789 0.0000  plane waves:    1720
 k-point  43 :   0.5714-0.2857 0.0000  plane waves:    1724
 k-point  44 :   0.5850-0.2925 0.0000  plane waves:    1710
 k-point  45 :   0.5986-0.2993 0.0000  plane waves:    1710
 k-point  46 :   0.6122-0.3061 0.0000  plane waves:    1714
 k-point  47 :   0.6259-0.3129 0.0000  plane waves:    1710
 k-point  48 :   0.6395-0.3197 0.0000  plane waves:    1708
 k-point  49 :   0.6531-0.3265 0.0000  plane waves:    1706
 k-point  50 :   0.6667-0.3333 0.0000  plane waves:    1710
 k-point  51 :   0.6667-0.3333 0.0000  plane waves:    1710
 k-point  52 :   0.6599-0.3197 0.0000  plane waves:    1708
 k-point  53 :   0.6531-0.3061 0.0000  plane waves:    1706
 k-point  54 :   0.6463-0.2925 0.0000  plane waves:    1714
 k-point  55 :   0.6395-0.2789 0.0000  plane waves:    1710
 k-point  56 :   0.6327-0.2653 0.0000  plane waves:    1714
 k-point  57 :   0.6259-0.2517 0.0000  plane waves:    1716
 k-point  58 :   0.6190-0.2381 0.0000  plane waves:    1720
 k-point  59 :   0.6122-0.2245 0.0000  plane waves:    1720
 k-point  60 :   0.6054-0.2109 0.0000  plane waves:    1716
 k-point  61 :   0.5986-0.1973 0.0000  plane waves:    1716
 k-point  62 :   0.5918-0.1837 0.0000  plane waves:    1716
 k-point  63 :   0.5850-0.1701 0.0000  plane waves:    1716
 k-point  64 :   0.5782-0.1565 0.0000  plane waves:    1720
 k-point  65 :   0.5714-0.1429 0.0000  plane waves:    1726
 k-point  66 :   0.5646-0.1293 0.0000  plane waves:    1726
 k-point  67 :   0.5578-0.1156 0.0000  plane waves:    1730
 k-point  68 :   0.5510-0.1020 0.0000  plane waves:    1728
 k-point  69 :   0.5442-0.0884 0.0000  plane waves:    1724
 k-point  70 :   0.5374-0.0748 0.0000  plane waves:    1724
 k-point  71 :   0.5306-0.0612 0.0000  plane waves:    1716
 k-point  72 :   0.5238-0.0476 0.0000  plane waves:    1728
 k-point  73 :   0.5170-0.0340 0.0000  plane waves:    1720
 k-point  74 :   0.5102-0.0204 0.0000  plane waves:    1732
 k-point  75 :   0.5034-0.0068 0.0000  plane waves:    1736
 k-point  76 :   0.4966 0.0068 0.0000  plane waves:    1736
 k-point  77 :   0.4898 0.0204 0.0000  plane waves:    1732
 k-point  78 :   0.4830 0.0340 0.0000  plane waves:    1720
 k-point  79 :   0.4762 0.0476 0.0000  plane waves:    1728
 k-point  80 :   0.4694 0.0612 0.0000  plane waves:    1716
 k-point  81 :   0.4626 0.0748 0.0000  plane waves:    1724
 k-point  82 :   0.4558 0.0884 0.0000  plane waves:    1724
 k-point  83 :   0.4490 0.1020 0.0000  plane waves:    1728
 k-point  84 :   0.4422 0.1156 0.0000  plane waves:    1730
 k-point  85 :   0.4354 0.1293 0.0000  plane waves:    1726
 k-point  86 :   0.4286 0.1429 0.0000  plane waves:    1726
 k-point  87 :   0.4218 0.1565 0.0000  plane waves:    1720
 k-point  88 :   0.4150 0.1701 0.0000  plane waves:    1716
 k-point  89 :   0.4082 0.1837 0.0000  plane waves:    1716
 k-point  90 :   0.4014 0.1973 0.0000  plane waves:    1716
 k-point  91 :   0.3946 0.2109 0.0000  plane waves:    1716
 k-point  92 :   0.3878 0.2245 0.0000  plane waves:    1720
 k-point  93 :   0.3810 0.2381 0.0000  plane waves:    1720
 k-point  94 :   0.3741 0.2517 0.0000  plane waves:    1716
 k-point  95 :   0.3673 0.2653 0.0000  plane waves:    1714
 k-point  96 :   0.3605 0.2789 0.0000  plane waves:    1710
 k-point  97 :   0.3537 0.2925 0.0000  plane waves:    1714
 k-point  98 :   0.3469 0.3061 0.0000  plane waves:    1706
 k-point  99 :   0.3401 0.3197 0.0000  plane waves:    1708
 k-point 100 :   0.3333 0.3333 0.0000  plane waves:    1710
 k-point 101 :   0.3333 0.3333 0.0000  plane waves:    1710
 k-point 102 :   0.3265 0.3265 0.0000  plane waves:    1706
 k-point 103 :   0.3197 0.3197 0.0000  plane waves:    1708
 k-point 104 :   0.3129 0.3129 0.0000  plane waves:    1710
 k-point 105 :   0.3061 0.3061 0.0000  plane waves:    1714
 k-point 106 :   0.2993 0.2993 0.0000  plane waves:    1710
 k-point 107 :   0.2925 0.2925 0.0000  plane waves:    1710
 k-point 108 :   0.2857 0.2857 0.0000  plane waves:    1724
 k-point 109 :   0.2789 0.2789 0.0000  plane waves:    1720
 k-point 110 :   0.2721 0.2721 0.0000  plane waves:    1720
 k-point 111 :   0.2653 0.2653 0.0000  plane waves:    1714
 k-point 112 :   0.2585 0.2585 0.0000  plane waves:    1710
 k-point 113 :   0.2517 0.2517 0.0000  plane waves:    1708
 k-point 114 :   0.2449 0.2449 0.0000  plane waves:    1712
 k-point 115 :   0.2381 0.2381 0.0000  plane waves:    1716
 k-point 116 :   0.2313 0.2313 0.0000  plane waves:    1716
 k-point 117 :   0.2245 0.2245 0.0000  plane waves:    1714
 k-point 118 :   0.2177 0.2177 0.0000  plane waves:    1714
 k-point 119 :   0.2109 0.2109 0.0000  plane waves:    1710
 k-point 120 :   0.2041 0.2041 0.0000  plane waves:    1706
 k-point 121 :   0.1973 0.1973 0.0000  plane waves:    1710
 k-point 122 :   0.1905 0.1905 0.0000  plane waves:    1716
 k-point 123 :   0.1837 0.1837 0.0000  plane waves:    1702
 k-point 124 :   0.1769 0.1769 0.0000  plane waves:    1700
 k-point 125 :   0.1701 0.1701 0.0000  plane waves:    1700
 k-point 126 :   0.1633 0.1633 0.0000  plane waves:    1704
 k-point 127 :   0.1565 0.1565 0.0000  plane waves:    1704
 k-point 128 :   0.1497 0.1497 0.0000  plane waves:    1702
 k-point 129 :   0.1429 0.1429 0.0000  plane waves:    1702
 k-point 130 :   0.1361 0.1361 0.0000  plane waves:    1702
 k-point 131 :   0.1293 0.1293 0.0000  plane waves:    1690
 k-point 132 :   0.1224 0.1224 0.0000  plane waves:    1696
 k-point 133 :   0.1156 0.1156 0.0000  plane waves:    1692
 k-point 134 :   0.1088 0.1088 0.0000  plane waves:    1684
 k-point 135 :   0.1020 0.1020 0.0000  plane waves:    1688
 k-point 136 :   0.0952 0.0952 0.0000  plane waves:    1680
 k-point 137 :   0.0884 0.0884 0.0000  plane waves:    1678
 k-point 138 :   0.0816 0.0816 0.0000  plane waves:    1676
 k-point 139 :   0.0748 0.0748 0.0000  plane waves:    1660
 k-point 140 :   0.0680 0.0680 0.0000  plane waves:    1656
 k-point 141 :   0.0612 0.0612 0.0000  plane waves:    1654
 k-point 142 :   0.0544 0.0544 0.0000  plane waves:    1650
 k-point 143 :   0.0476 0.0476 0.0000  plane waves:    1636
 k-point 144 :   0.0408 0.0408 0.0000  plane waves:    1650
 k-point 145 :   0.0340 0.0340 0.0000  plane waves:    1651
 k-point 146 :   0.0272 0.0272 0.0000  plane waves:    1655
 k-point 147 :   0.0204 0.0204 0.0000  plane waves:    1649
 k-point 148 :   0.0136 0.0136 0.0000  plane waves:    1647
 k-point 149 :   0.0068 0.0068 0.0000  plane waves:    1649
 k-point 150 :   0.0000 0.0000 0.0000  plane waves:    1647

 maximum and minimum number of plane-waves per node :       446      407

 maximum number of plane-waves:      1736
 maximum index in each direction: 
   IXMAX=    4   IYMAX=    4   IZMAX=   28
   IXMIN=   -4   IYMIN=   -4   IZMIN=  -28


 parallel 3D FFT for wavefunctions:
    minimum data exchange during FFTs selected (reduces bandwidth)
 parallel 3D FFT for charge:
    minimum data exchange during FFTs selected (reduces bandwidth)


 total amount of memory used by VASP MPI-rank0    41908. kBytes
=======================================================================

   base      :      30000. kBytes
   nonl-proj :       4161. kBytes
   fftplans  :       2471. kBytes
   grid      :       1049. kBytes
   one-center:          3. kBytes
   wavefun   :       4224. kBytes
 
     INWAV:  cpu time      0.0000: real time      0.0000
 initial charge density was supplied:
 number of electron      10.0000000 magnetization 
 keeping initial charge density in first step


--------------------------------------------------------------------------------------------------------


 Maximum index for augmentation-charges         1474 (set IRDMAX)


--------------------------------------------------------------------------------------------------------


 First call to EWALD:  gamma=   0.424
 Maximum number of real-space cells 5x 5x 1
 Maximum number of reciprocal cells 2x 2x 9

    FEWALD:  cpu time      0.0017: real time      0.0017


--------------------------------------- Ionic step        1  -------------------------------------------




--------------------------------------- Iteration      1(   1)  ---------------------------------------


    POTLOK:  cpu time      0.0129: real time      0.0787
    SETDIJ:  cpu time      0.1032: real time      0.1033
     EDDAV:  cpu time      1.2387: real time      1.2398
       DOS:  cpu time      0.0043: real time      0.0043
    --------------------------------------------
      LOOP:  cpu time      1.3591: real time      1.4262

 eigenvalue-minimisations  :  4864
 total energy-change (2. order) : 0.7044473E+02  (-0.3984511E+03)
 number of electron      10.0000000 magnetization 
 augmentation part       10.0000000 magnetization 

 Free energy of the ion-electron system (eV)
  ---------------------------------------------------
  alpha Z        PSCENC =         5.96913924
  Ewald energy   TEWEN  =      1610.65328944
  -Hartree energ DENC   =     -2051.53366086
  -exchange      EXHF   =         0.00000000
  -V(xc)+E(xc)   XCENC  =        40.83880616
  PAW double counting   =       530.72780874     -533.14038655
  entropy T*S    EENTRO =        -0.00000684
  eigenvalues    EBANDS =       -62.13805019
  atomic energy  EATOM  =       529.06779047
  Solvation  Ediel_sol  =         0.00000000
  ---------------------------------------------------
  free energy    TOTEN  =        70.44472960 eV

  energy without entropy =       70.44473644  energy(sigma->0) =       70.44473302


--------------------------------------------------------------------------------------------------------




--------------------------------------- Iteration      1(   2)  ---------------------------------------


     EDDAV:  cpu time      1.6783: real time      1.6796
       DOS:  cpu time      0.0025: real time      0.0025
    --------------------------------------------
      LOOP:  cpu time      1.6808: real time      1.6822

 eigenvalue-minimisations  :  7304
 total energy-change (2. order) :-0.7995063E+02  (-0.6727073E+02)
 number of electron      10.0000000 magnetization 
 augmentation part       10.0000000 magnetization 

 Free energy of the ion-electron system (eV)
  ---------------------------------------------------
  alpha Z        PSCENC =         5.96913924
  Ewald energy   TEWEN  =      1610.65328944
  -Hartree energ DENC   =     -2051.53366086
  -exchange      EXHF   =         0.00000000
  -V(xc)+E(xc)   XCENC  =        40.83880616
  PAW double counting   =       530.72780874     -533.14038655
  entropy T*S    EENTRO =        -0.00000000
  eigenvalues    EBANDS =      -142.08868470
  atomic energy  EATOM  =       529.06779047
  Solvation  Ediel_sol  =         0.00000000
  ---------------------------------------------------
  free energy    TOTEN  =        -9.50589806 eV

  energy without entropy =       -9.50589806  energy(sigma->0) =       -9.50589806


--------------------------------------------------------------------------------------------------------




--------------------------------------- Iteration      1(   3)  ---------------------------------------


     EDDAV:  cpu time      1.4625: real time      1.4637
       DOS:  cpu time      0.0025: real time      0.0025
    --------------------------------------------
      LOOP:  cpu time      1.4650: real time      1.4662

 eigenvalue-minimisations  :  6232
 total energy-change (2. order) :-0.3949989E+01  (-0.3921527E+01)
 number of electron      10.0000000 magnetization 
 augmentation part       10.0000000 magnetization 

 Free energy of the ion-electron system (eV)
  ---------------------------------------------------
  alpha Z        PSCENC =         5.96913924
  Ewald energy   TEWEN  =      1610.65328944
  -Hartree energ DENC   =     -2051.53366086
  -exchange      EXHF   =         0.00000000
  -V(xc)+E(xc)   XCENC  =        40.83880616
  PAW double counting   =       530.72780874     -533.14038655
  entropy T*S    EENTRO =        -0.00000000
  eigenvalues    EBANDS =      -146.03867412
  atomic energy  EATOM  =       529.06779047
  Solvation  Ediel_sol  =         0.00000000
  ---------------------------------------------------
  free energy    TOTEN  =       -13.45588748 eV

  energy without entropy =      -13.45588748  energy(sigma->0) =      -13.45588748


--------------------------------------------------------------------------------------------------------




--------------------------------------- Iteration      1(   4)  ---------------------------------------


     EDDAV:  cpu time      1.5482: real time      1.5495
       DOS:  cpu time      0.0027: real time      0.0027
    --------------------------------------------
      LOOP:  cpu time      1.5509: real time      1.5522

 eigenvalue-minimisations  :  6424
 total energy-change (2. order) :-0.2762843E-01  (-0.2762623E-01)
 number of electron      10.0000000 magnetization 
 augmentation part       10.0000000 magnetization 

 Free energy of the ion-electron system (eV)
  ---------------------------------------------------
  alpha Z        PSCENC =         5.96913924
  Ewald energy   TEWEN  =      1610.65328944
  -Hartree energ DENC   =     -2051.53366086
  -exchange      EXHF   =         0.00000000
  -V(xc)+E(xc)   XCENC  =        40.83880616
  PAW double counting   =       530.72780874     -533.14038655
  entropy T*S    EENTRO =        -0.00000000
  eigenvalues    EBANDS =      -146.06630254
  atomic energy  EATOM  =       529.06779047
  Solvation  Ediel_sol  =         0.00000000
  ---------------------------------------------------
  free energy    TOTEN  =       -13.48351591 eV

  energy without entropy =      -13.48351591  energy(sigma->0) =      -13.48351591


--------------------------------------------------------------------------------------------------------




--------------------------------------- Iteration      1(   5)  ---------------------------------------


     EDDAV:  cpu time      1.6777: real time      1.6793
       DOS:  cpu time      0.0027: real time      0.0027
    --------------------------------------------
      LOOP:  cpu time      1.6804: real time      1.6820

 eigenvalue-minimisations  :  6672
 total energy-change (2. order) :-0.3054331E-03  (-0.3054327E-03)
 number of electron      10.0000000 magnetization 
 augmentation part       10.0000000 magnetization 

 Free energy of the ion-electron system (eV)
  ---------------------------------------------------
  alpha Z        PSCENC =         5.96913924
  Ewald energy   TEWEN  =      1610.65328944
  -Hartree energ DENC   =     -2051.53366086
  -exchange      EXHF   =         0.00000000
  -V(xc)+E(xc)   XCENC  =        40.83880616
  PAW double counting   =       530.72780874     -533.14038655
  entropy T*S    EENTRO =        -0.00000000
  eigenvalues    EBANDS =      -146.06660798
  atomic energy  EATOM  =       529.06779047
  Solvation  Ediel_sol  =         0.00000000
  ---------------------------------------------------
  free energy    TOTEN  =       -13.48382134 eV

  energy without entropy =      -13.48382134  energy(sigma->0) =      -13.48382134


--------------------------------------------------------------------------------------------------------




--------------------------------------- Iteration      1(   6)  ---------------------------------------


     EDDAV:  cpu time      1.6715: real time      1.6728
       DOS:  cpu time      0.0027: real time      0.0027
    --------------------------------------------
      LOOP:  cpu time      1.6741: real time      1.6755

 eigenvalue-minimisations  :  6640
 total energy-change (2. order) :-0.5647356E-05  (-0.5647152E-05)
 number of electron      10.0000000 magnetization 
 augmentation part       10.0000000 magnetization 

 Free energy of the ion-electron system (eV)
  ---------------------------------------------------
  alpha Z        PSCENC =         5.96913924
  Ewald energy   TEWEN  =      1610.65328944
  -Hartree energ DENC   =     -2051.53366086
  -exchange      EXHF   =         0.00000000
  -V(xc)+E(xc)   XCENC  =        40.83880616
  PAW double counting   =       530.72780874     -533.14038655
  entropy T*S    EENTRO =        -0.00000000
  eigenvalues    EBANDS =      -146.06661362
  atomic energy  EATOM  =       529.06779047
  Solvation  Ediel_sol  =         0.00000000
  ---------------------------------------------------
  free energy    TOTEN  =       -13.48382699 eV

  energy without entropy =      -13.48382699  energy(sigma->0) =      -13.48382699


--------------------------------------------------------------------------------------------------------




--------------------------------------- Iteration      1(   7)  ---------------------------------------


     EDDAV:  cpu time      1.6817: real time      1.6830
       DOS:  cpu time      0.0027: real time      0.0027
    --------------------------------------------
      LOOP:  cpu time      1.6844: real time      1.6857

 eigenvalue-minimisations  :  6688
 total energy-change (2. order) :-0.8112943E-07  (-0.8116058E-07)
 number of electron      10.0000000 magnetization 
 augmentation part       10.0000000 magnetization 

 Free energy of the ion-electron system (eV)
  ---------------------------------------------------
  alpha Z        PSCENC =         5.96913924
  Ewald energy   TEWEN  =      1610.65328944
  -Hartree energ DENC   =     -2051.53366086
  -exchange      EXHF   =         0.00000000
  -V(xc)+E(xc)   XCENC  =        40.83880616
  PAW double counting   =       530.72780874     -533.14038655
  entropy T*S    EENTRO =        -0.00000000
  eigenvalues    EBANDS =      -146.06661370
  atomic energy  EATOM  =       529.06779047
  Solvation  Ediel_sol  =         0.00000000
  ---------------------------------------------------
  free energy    TOTEN  =       -13.48382707 eV

  energy without entropy =      -13.48382707  energy(sigma->0) =      -13.48382707


--------------------------------------------------------------------------------------------------------




--------------------------------------- Iteration      1(   8)  ---------------------------------------


     EDDAV:  cpu time      1.2829: real time      1.2839
       DOS:  cpu time      0.0027: real time      0.0027
    --------------------------------------------
      LOOP:  cpu time      1.2856: real time      1.2866

 eigenvalue-minimisations  :  4752
 total energy-change (2. order) :-0.2491674E-08  (-0.2496528E-08)
 number of electron      10.0000000 magnetization 
 augmentation part       10.0000000 magnetization 

 Free energy of the ion-electron system (eV)
  ---------------------------------------------------
  alpha Z        PSCENC =         5.96913924
  Ewald energy   TEWEN  =      1610.65328944
  -Hartree energ DENC   =     -2051.53366086
  -exchange      EXHF   =         0.00000000
  -V(xc)+E(xc)   XCENC  =        40.83880616
  PAW double counting   =       530.72780874     -533.14038655
  entropy T*S    EENTRO =        -0.00000000
  eigenvalues    EBANDS =      -146.06661371
  atomic energy  EATOM  =       529.06779047
  Solvation  Ediel_sol  =         0.00000000
  ---------------------------------------------------
  free energy    TOTEN  =       -13.48382707 eV

  energy without entropy =      -13.48382707  energy(sigma->0) =      -13.48382707


--------------------------------------------------------------------------------------------------------




--------------------------------------- Iteration      1(   9)  ---------------------------------------


     EDDAV:  cpu time      1.0844: real time      1.0852
       DOS:  cpu time      0.0016: real time      0.0016
    --------------------------------------------
      LOOP:  cpu time      1.0860: real time      1.0868

 eigenvalue-minimisations  :  4048
 total energy-change (2. order) :-0.8549250E-10  (-0.9710813E-10)
 number of electron      10.0000000 magnetization 
 augmentation part       10.0000000 magnetization 

 Free energy of the ion-electron system (eV)
  ---------------------------------------------------
  alpha Z        PSCENC =         5.96913924
  Ewald energy   TEWEN  =      1610.65328944
  -Hartree energ DENC   =     -2051.53366086
  -exchange      EXHF   =         0.00000000
  -V(xc)+E(xc)   XCENC  =        40.83880616
  PAW double counting   =       530.72780874     -533.14038655
  entropy T*S    EENTRO =        -0.00000000
  eigenvalues    EBANDS =      -146.06661371
  atomic energy  EATOM  =       529.06779047
  Solvation  Ediel_sol  =         0.00000000
  ---------------------------------------------------
  free energy    TOTEN  =       -13.48382707 eV

  energy without entropy =      -13.48382707  energy(sigma->0) =      -13.48382707


--------------------------------------------------------------------------------------------------------




--------------------------------------- Iteration      1(  10)  ---------------------------------------


     EDDAV:  cpu time      0.6850: real time      0.6855
       DOS:  cpu time      0.0017: real time      0.0017
    --------------------------------------------
      LOOP:  cpu time      0.6866: real time      0.6872

 eigenvalue-minimisations  :  3688
 total energy-change (2. order) :-0.3774403E-10  (-0.2766921E-10)
 number of electron      10.0000000 magnetization 
 augmentation part       10.0000000 magnetization 

 Free energy of the ion-electron system (eV)
  ---------------------------------------------------
  alpha Z        PSCENC =         5.96913924
  Ewald energy   TEWEN  =      1610.65328944
  -Hartree energ DENC   =     -2051.53366086
  -exchange      EXHF   =         0.00000000
  -V(xc)+E(xc)   XCENC  =        40.83880616
  PAW double counting   =       530.72780874     -533.14038655
  entropy T*S    EENTRO =        -0.00000000
  eigenvalues    EBANDS =      -146.06661371
  atomic energy  EATOM  =       529.06779047
  Solvation  Ediel_sol  =         0.00000000
  ---------------------------------------------------
  free energy    TOTEN  =       -13.48382707 eV

  energy without entropy =      -13.48382707  energy(sigma->0) =      -13.48382707


--------------------------------------------------------------------------------------------------------




--------------------------------------- Iteration      1(  11)  ---------------------------------------


     EDDAV:  cpu time      0.6676: real time      0.6682
       DOS:  cpu time      0.0016: real time      0.0016
    --------------------------------------------
      LOOP:  cpu time      0.6693: real time      0.6698

 eigenvalue-minimisations  :  3552
 total energy-change (2. order) :-0.1091394E-10  (-0.1129328E-10)
 number of electron      10.0000000 magnetization 
 augmentation part       10.0000000 magnetization 

 Free energy of the ion-electron system (eV)
  ---------------------------------------------------
  alpha Z        PSCENC =         5.96913924
  Ewald energy   TEWEN  =      1610.65328944
  -Hartree energ DENC   =     -2051.53366086
  -exchange      EXHF   =         0.00000000
  -V(xc)+E(xc)   XCENC  =        40.83880616
  PAW double counting   =       530.72780874     -533.14038655
  entropy T*S    EENTRO =        -0.00000000
  eigenvalues    EBANDS =      -146.06661371
  atomic energy  EATOM  =       529.06779047
  Solvation  Ediel_sol  =         0.00000000
  ---------------------------------------------------
  free energy    TOTEN  =       -13.48382707 eV

  energy without entropy =      -13.48382707  energy(sigma->0) =      -13.48382707


--------------------------------------------------------------------------------------------------------




--------------------------------------- Iteration      1(  12)  ---------------------------------------


     EDDAV:  cpu time      0.6418: real time      0.6423
       DOS:  cpu time      0.0016: real time      0.0016
    --------------------------------------------
      LOOP:  cpu time      0.6434: real time      0.6439

 eigenvalue-minimisations  :  3352
 total energy-change (2. order) : 0.1818989E-11  (-0.4705238E-11)
 number of electron      10.0000000 magnetization 
 augmentation part       10.0000000 magnetization 

 Free energy of the ion-electron system (eV)
  ---------------------------------------------------
  alpha Z        PSCENC =         5.96913924
  Ewald energy   TEWEN  =      1610.65328944
  -Hartree energ DENC   =     -2051.53366086
  -exchange      EXHF   =         0.00000000
  -V(xc)+E(xc)   XCENC  =        40.83880616
  PAW double counting   =       530.72780874     -533.14038655
  entropy T*S    EENTRO =        -0.00000000
  eigenvalues    EBANDS =      -146.06661371
  atomic energy  EATOM  =       529.06779047
  Solvation  Ediel_sol  =         0.00000000
  ---------------------------------------------------
  free energy    TOTEN  =       -13.48382707 eV

  energy without entropy =      -13.48382707  energy(sigma->0) =      -13.48382707


--------------------------------------------------------------------------------------------------------




--------------------------------------- Iteration      1(  13)  ---------------------------------------


     EDDAV:  cpu time      0.6228: real time      0.6233
       DOS:  cpu time      0.0017: real time      0.0017
    --------------------------------------------
      LOOP:  cpu time      0.6245: real time      0.6250

 eigenvalue-minimisations  :  3184
 total energy-change (2. order) : 0.2273737E-11  (-0.1973959E-11)
 number of electron      10.0000000 magnetization 
 augmentation part       10.0000000 magnetization 

 Free energy of the ion-electron system (eV)
  ---------------------------------------------------
  alpha Z        PSCENC =         5.96913924
  Ewald energy   TEWEN  =      1610.65328944
  -Hartree energ DENC   =     -2051.53366086
  -exchange      EXHF   =         0.00000000
  -V(xc)+E(xc)   XCENC  =        40.83880616
  PAW double counting   =       530.72780874     -533.14038655
  entropy T*S    EENTRO =        -0.00000000
  eigenvalues    EBANDS =      -146.06661371
  atomic energy  EATOM  =       529.06779047
  Solvation  Ediel_sol  =         0.00000000
  ---------------------------------------------------
  free energy    TOTEN  =       -13.48382707 eV

  energy without entropy =      -13.48382707  energy(sigma->0) =      -13.48382707


--------------------------------------------------------------------------------------------------------




 average (electrostatic) potential at core
  the test charge radii are     0.5902
  (the norm of the test charge is              1.0000)
       1 -75.1332       2 -75.1332
 
 
 
 E-fermi :  -5.1292     XC(G=0):  -3.0981     alpha+bet : -2.3745

 Fermi energy:        -5.1291878774

 k-point     1 :       0.0000    0.0000    0.0000
  band No.  band energies     occupation 
      1     -30.0393      2.00000
      2     -14.5035      2.00000
      3      -8.3950      2.00000
      4      -8.3950      2.00000
      5      -5.6326      2.00000
      6      -0.0374      0.00000
      7      -0.0374      0.00000
      8       0.3126      0.00000
      9       2.0781      0.00000
     10       2.2323      0.00000
     11       3.3123      0.00000
     12       4.3011      0.00000
     13       6.1186      0.00000
     14       7.7309      0.00000
     15      10.1306      0.00000
     16      12.5199      0.00000

 k-point     2 :       0.0136   -0.0068    0.0000
  band No.  band energies     occupation 
      1     -30.0352      2.00000
      2     -14.4998      2.00000
      3      -8.4184      2.00000
      4      -8.4023      2.00000
      5      -5.6307      2.00000
      6      -0.0381      0.00000
      7      -0.0297      0.00000
      8       0.3267      0.00000
      9       2.0833      0.00000
     10       2.2374      0.00000
     11       3.3173      0.00000
     12       4.3063      0.00000
     13       6.1231      0.00000
     14       7.7360      0.00000
     15      10.1345      0.00000
     16      12.5246      0.00000

 k-point     3 :       0.0272   -0.0136    0.0000
  band No.  band energies     occupation 
      1     -30.0232      2.00000
      2     -14.4887      2.00000
      3      -8.4874      2.00000
      4      -8.4239      2.00000
      5      -5.6247      2.00000
      6      -0.0399      0.00000
      7      -0.0085      0.00000
      8       0.3705      0.00000
      9       2.0989      0.00000
     10       2.2526      0.00000
     11       3.3321      0.00000
     12       4.3217      0.00000
     13       6.1367      0.00000
     14       7.7510      0.00000
     15      10.1463      0.00000
     16      12.5387      0.00000

 k-point     4 :       0.0408   -0.0204    0.0000
  band No.  band energies     occupation 
      1     -30.0032      2.00000
      2     -14.4703      2.00000
      3      -8.5999      2.00000
      4      -8.4599      2.00000
      5      -5.6149      2.00000
      6      -0.0429      0.00000
      7       0.0207      0.00000
      8       0.4467      0.00000
      9       2.1248      0.00000
     10       2.2779      0.00000
     11       3.3568      0.00000
     12       4.3475      0.00000
     13       6.1594      0.00000
     14       7.7761      0.00000
     15      10.1659      0.00000
     16      12.5622      0.00000

 k-point     5 :       0.0544   -0.0272    0.0000
  band No.  band energies     occupation 
      1     -29.9753      2.00000
      2     -14.4446      2.00000
      3      -8.7524      2.00000
      4      -8.5105      2.00000
      5      -5.6013      2.00000
      6      -0.0465      0.00000
      7       0.0532      0.00000
      8       0.5561      0.00000
      9       2.1610      0.00000
     10       2.3133      0.00000
     11       3.3915      0.00000
     12       4.3836      0.00000
     13       6.1911      0.00000
     14       7.8111      0.00000
     15      10.1933      0.00000
     16      12.5950      0.00000

 k-point     6 :       0.0680   -0.0340    0.0000
  band No.  band energies     occupation 
      1     -29.9392      2.00000
      2     -14.4115      2.00000
      3      -8.9409      2.00000
      4      -8.5749      2.00000
      5      -5.5840      2.00000
      6      -0.0506      0.00000
      7       0.0872      0.00000
      8       0.6964      0.00000
      9       2.2076      0.00000
     10       2.3589      0.00000
     11       3.4360      0.00000
     12       4.4300      0.00000
     13       6.2318      0.00000
     14       7.8562      0.00000
     15      10.2284      0.00000
     16      12.6372      0.00000

 k-point     7 :       0.0816   -0.0408    0.0000
  band No.  band energies     occupation 
      1     -29.8952      2.00000
      2     -14.3714      2.00000
      3      -9.1607      2.00000
      4      -8.6533      2.00000
      5      -5.5633      2.00000
      6      -0.0546      0.00000
      7       0.1223      0.00000
      8       0.8624      0.00000
      9       2.2646      0.00000
     10       2.4145      0.00000
     11       3.4904      0.00000
     12       4.4866      0.00000
     13       6.2815      0.00000
     14       7.9112      0.00000
     15      10.2712      0.00000
     16      12.6885      0.00000

 k-point     8 :       0.0952   -0.0476    0.0000
  band No.  band energies     occupation 
      1     -29.8432      2.00000
      2     -14.3238      2.00000
      3      -9.4072      2.00000
      4      -8.7453      2.00000
      5      -5.5392      2.00000
      6      -0.0580      0.00000
      7       0.1594      0.00000
      8       1.0483      0.00000
      9       2.3318      0.00000
     10       2.4801      0.00000
     11       3.5547      0.00000
     12       4.5536      0.00000
     13       6.3402      0.00000
     14       7.9762      0.00000
     15      10.3216      0.00000
     16      12.7490      0.00000

 k-point     9 :       0.1088   -0.0544    0.0000
  band No.  band energies     occupation 
      1     -29.7833      2.00000
      2     -14.2694      2.00000
      3      -9.6774      2.00000
      4      -8.8510      2.00000
      5      -5.5126      2.00000
      6      -0.0604      0.00000
      7       0.1988      0.00000
      8       1.2483      0.00000
      9       2.4093      0.00000
     10       2.5558      0.00000
     11       3.6289      0.00000
     12       4.6307      0.00000
     13       6.4079      0.00000
     14       8.0512      0.00000
     15      10.3795      0.00000
     16      12.8186      0.00000

 k-point    10 :       0.1224   -0.0612    0.0000
  band No.  band energies     occupation 
      1     -29.7155      2.00000
      2     -14.2081      2.00000
      3      -9.9662      2.00000
      4      -8.9699      2.00000
      5      -5.4834      2.00000
      6      -0.0611      0.00000
      7       0.2413      0.00000
      8       1.4571      0.00000
      9       2.4970      0.00000
     10       2.6415      0.00000
     11       3.7129      0.00000
     12       4.7182      0.00000
     13       6.4844      0.00000
     14       8.1360      0.00000
     15      10.4447      0.00000
     16      12.8971      0.00000

 k-point    11 :       0.1361   -0.0680    0.0000
  band No.  band energies     occupation 
      1     -29.6397      2.00000
      2     -14.1401      2.00000
      3     -10.2698      2.00000
      4      -9.1014      2.00000
      5      -5.4524      2.00000
      6      -0.0593      0.00000
      7       0.2869      0.00000
      8       1.6699      0.00000
      9       2.5948      0.00000
     10       2.7372      0.00000
     11       3.8068      0.00000
     12       4.8158      0.00000
     13       6.5699      0.00000
     14       8.2308      0.00000
     15      10.5172      0.00000
     16      12.9845      0.00000

 k-point    12 :       0.1497   -0.0748    0.0000
  band No.  band energies     occupation 
      1     -29.5561      2.00000
      2     -14.0658      2.00000
      3     -10.5857      2.00000
      4      -9.2449      2.00000
      5      -5.4198      2.00000
      6      -0.0546      0.00000
      7       0.3358      0.00000
      8       1.8825      0.00000
      9       2.7026      0.00000
     10       2.8428      0.00000
     11       3.9105      0.00000
     12       4.9237      0.00000
     13       6.6643      0.00000
     14       8.3354      0.00000
     15      10.5969      0.00000
     16      13.0805      0.00000

 k-point    13 :       0.1633   -0.0816    0.0000
  band No.  band energies     occupation 
      1     -29.4647      2.00000
      2     -13.9860      2.00000
      3     -10.9103      2.00000
      4      -9.4001      2.00000
      5      -5.3866      2.00000
      6      -0.0463      0.00000
[...]
     10       5.3420      0.00000
     11       6.4038      0.00000
     12       7.5143      0.00000
     13       8.9094      0.00000
     14      10.8274      0.00000
     15      12.4192      0.00000
     16      15.2087      0.00000

 k-point   126 :       0.1633    0.1633    0.0000
  band No.  band energies     occupation 
      1     -27.7717      2.00000
      2     -15.1919      2.00000
      3     -12.3387      2.00000
      4     -11.9081      2.00000
      5      -5.2019      2.00000
      6       0.5541      0.00000
      7       1.1616      0.00000
      8       3.4268      0.00000
      9       5.0353      0.00000
     10       5.1023      0.00000
     11       6.1607      0.00000
     12       7.2624      0.00000
     13       8.6914      0.00000
     14      10.5867      0.00000
     15      12.2462      0.00000
     16      15.0224      0.00000

 k-point   127 :       0.1565    0.1565    0.0000
  band No.  band energies     occupation 
      1     -27.9535      2.00000
      2     -14.8598      2.00000
      3     -12.4910      2.00000
      4     -11.6706      2.00000
      5      -5.1839      2.00000
      6       0.4572      0.00000
      7       1.0997      0.00000
      8       3.4137      0.00000
      9       4.7931      0.00000
     10       4.8716      0.00000
     11       5.9278      0.00000
     12       7.0206      0.00000
     13       8.4825      0.00000
     14      10.3554      0.00000
     15      12.0798      0.00000
     16      14.8375      0.00000

 k-point   128 :       0.1497    0.1497    0.0000
  band No.  band energies     occupation 
      1     -28.1281      2.00000
      2     -14.5299      2.00000
      3     -12.6321      2.00000
      4     -11.4357      2.00000
      5      -5.1745      2.00000
      6       0.3701      0.00000
      7       1.0342      0.00000
      8       3.3857      0.00000
      9       4.5610      0.00000
     10       4.6501      0.00000
     11       5.7049      0.00000
     12       6.7890      0.00000
     13       8.2825      0.00000
     14      10.1335      0.00000
     15      11.9200      0.00000
     16      14.6557      0.00000

 k-point   129 :       0.1429    0.1429    0.0000
  band No.  band energies     occupation 
      1     -28.2955      2.00000
      2     -14.2082      2.00000
      3     -12.7566      2.00000
      4     -11.2039      2.00000
      5      -5.1732      2.00000
      6       0.2927      0.00000
      7       0.9665      0.00000
      8       3.3406      0.00000
      9       4.3392      0.00000
     10       4.4379      0.00000
     11       5.4920      0.00000
     12       6.5678      0.00000
     13       8.0914      0.00000
     14       9.9212      0.00000
     15      11.7668      0.00000
     16      14.4785      0.00000

 k-point   130 :       0.1361    0.1361    0.0000
  band No.  band energies     occupation 
      1     -28.4555      2.00000
      2     -13.9088      2.00000
      3     -12.8507      2.00000
      4     -10.9765      2.00000
      5      -5.1790      2.00000
      6       0.2247      0.00000
      7       0.8976      0.00000
      8       3.2769      0.00000
      9       4.1279      0.00000
     10       4.2351      0.00000
     11       5.2892      0.00000
     12       6.3569      0.00000
     13       7.9092      0.00000
     14       9.7186      0.00000
     15      11.6202      0.00000
     16      14.3067      0.00000

 k-point   131 :       0.1293    0.1293    0.0000
  band No.  band energies     occupation 
      1     -28.6082      2.00000
      2     -13.6690      2.00000
      3     -12.8769      2.00000
      4     -10.7537      2.00000
      5      -5.1912      2.00000
      6       0.1655      0.00000
      7       0.8284      0.00000
      8       3.1933      0.00000
      9       3.9271      0.00000
     10       4.0417      0.00000
     11       5.0963      0.00000
     12       6.1563      0.00000
     13       7.7358      0.00000
     14       9.5257      0.00000
     15      11.4801      0.00000
     16      14.1411      0.00000

 k-point   132 :       0.1224    0.1224    0.0000
  band No.  band energies     occupation 
      1     -28.7534      2.00000
      2     -13.5557      2.00000
      3     -12.7699      2.00000
      4     -10.5370      2.00000
      5      -5.2093      2.00000
      6       0.1146      0.00000
      7       0.7597      0.00000
      8       3.0893      0.00000
      9       3.7371      0.00000
     10       3.8579      0.00000
     11       4.9134      0.00000
     12       5.9661      0.00000
     13       7.5711      0.00000
     14       9.3426      0.00000
     15      11.3465      0.00000
     16      13.9820      0.00000

 k-point   133 :       0.1156    0.1156    0.0000
  band No.  band energies     occupation 
      1     -28.8911      2.00000
      2     -13.5673      2.00000
      3     -12.5311      2.00000
      4     -10.3267      2.00000
      5      -5.2320      2.00000
      6       0.0716      0.00000
      7       0.6922      0.00000
      8       2.9651      0.00000
      9       3.5581      0.00000
     10       3.6836      0.00000
     11       4.7404      0.00000
     12       5.7863      0.00000
     13       7.4153      0.00000
     14       9.1693      0.00000
     15      11.2195      0.00000
     16      13.8301      0.00000

 k-point   134 :       0.1088    0.1088    0.0000
  band No.  band energies     occupation 
      1     -29.0212      2.00000
      2     -13.6352      2.00000
      3     -12.2299      2.00000
      4     -10.1235      2.00000
      5      -5.2586      2.00000
      6       0.0359      0.00000
      7       0.6264      0.00000
      8       2.8215      0.00000
      9       3.3900      0.00000
     10       3.5191      0.00000
     11       4.5774      0.00000
     12       5.6168      0.00000
     13       7.2682      0.00000
     14       9.0058      0.00000
     15      11.0990      0.00000
     16      13.6854      0.00000

 k-point   135 :       0.1020    0.1020    0.0000
  band No.  band energies     occupation 
      1     -29.1437      2.00000
      2     -13.7214      2.00000
      3     -11.9061      2.00000
      4      -9.9287      2.00000
      5      -5.2883      2.00000
      6       0.0068      0.00000
      7       0.5628      0.00000
      8       2.6599      0.00000
      9       3.2325      0.00000
     10       3.3642      0.00000
     11       4.4243      0.00000
     12       5.4577      0.00000
     13       7.1299      0.00000
     14       8.8521      0.00000
     15      10.9851      0.00000
     16      13.5484      0.00000

 k-point   136 :       0.0952    0.0952    0.0000
  band No.  band energies     occupation 
      1     -29.2585      2.00000
      2     -13.8117      2.00000
      3     -11.5739      2.00000
      4      -9.7425      2.00000
      5      -5.3200      2.00000
      6      -0.0161      0.00000
      7       0.5016      0.00000
      8       2.4826      0.00000
      9       3.0852      0.00000
     10       3.2191      0.00000
     11       4.2810      0.00000
     12       5.3088      0.00000
     13       7.0003      0.00000
     14       8.7082      0.00000
     15      10.8779      0.00000
     16      13.4192      0.00000

 k-point   137 :       0.0884    0.0884    0.0000
  band No.  band energies     occupation 
      1     -29.3655      2.00000
      2     -13.9007      2.00000
      3     -11.2407      2.00000
      4      -9.5661      2.00000
      5      -5.3531      2.00000
      6      -0.0336      0.00000
      7       0.4433      0.00000
      8       2.2920      0.00000
      9       2.9478      0.00000
     10       3.0838      0.00000
     11       4.1476      0.00000
     12       5.1702      0.00000
     13       6.8795      0.00000
     14       8.5741      0.00000
     15      10.7774      0.00000
     16      13.2980      0.00000

 k-point   138 :       0.0816    0.0816    0.0000
  band No.  band energies     occupation 
      1     -29.4647      2.00000
      2     -13.9860      2.00000
      3     -10.9104      2.00000
      4      -9.4001      2.00000
      5      -5.3866      2.00000
      6      -0.0463      0.00000
      7       0.3879      0.00000
      8       2.0909      0.00000
      9       2.8203      0.00000
     10       2.9584      0.00000
     11       4.0242      0.00000
     12       5.0419      0.00000
     13       6.7675      0.00000
     14       8.4498      0.00000
     15      10.6837      0.00000
     16      13.1851      0.00000

 k-point   139 :       0.0748    0.0748    0.0000
  band No.  band energies     occupation 
      1     -29.5561      2.00000
      2     -14.0658      2.00000
      3     -10.5857      2.00000
      4      -9.2449      2.00000
      5      -5.4198      2.00000
      6      -0.0546      0.00000
      7       0.3358      0.00000
      8       1.8824      0.00000
      9       2.7026      0.00000
     10       2.8428      0.00000
     11       3.9105      0.00000
     12       4.9237      0.00000
     13       6.6643      0.00000
     14       8.3354      0.00000
     15      10.5969      0.00000
     16      13.0805      0.00000

 k-point   140 :       0.0680    0.0680    0.0000
  band No.  band energies     occupation 
      1     -29.6397      2.00000
      2     -14.1401      2.00000
      3     -10.2698      2.00000
      4      -9.1014      2.00000
      5      -5.4524      2.00000
      6      -0.0593      0.00000
      7       0.2869      0.00000
      8       1.6699      0.00000
      9       2.5948      0.00000
     10       2.7372      0.00000
     11       3.8068      0.00000
     12       4.8158      0.00000
     13       6.5699      0.00000
     14       8.2308      0.00000
     15      10.5172      0.00000
     16      12.9845      0.00000

 k-point   141 :       0.0612    0.0612    0.0000
  band No.  band energies     occupation 
      1     -29.7155      2.00000
      2     -14.2081      2.00000
      3      -9.9663      2.00000
      4      -8.9699      2.00000
      5      -5.4834      2.00000
      6      -0.0611      0.00000
      7       0.2413      0.00000
      8       1.4571      0.00000
      9       2.4970      0.00000
     10       2.6415      0.00000
     11       3.7129      0.00000
     12       4.7182      0.00000
     13       6.4844      0.00000
     14       8.1360      0.00000
     15      10.4447      0.00000
     16      12.8971      0.00000

 k-point   142 :       0.0544    0.0544    0.0000
  band No.  band energies     occupation 
      1     -29.7833      2.00000
      2     -14.2694      2.00000
      3      -9.6774      2.00000
      4      -8.8510      2.00000
      5      -5.5126      2.00000
      6      -0.0604      0.00000
      7       0.1989      0.00000
      8       1.2483      0.00000
      9       2.4093      0.00000
     10       2.5558      0.00000
     11       3.6289      0.00000
     12       4.6307      0.00000
     13       6.4079      0.00000
     14       8.0512      0.00000
     15      10.3795      0.00000
     16      12.8186      0.00000

 k-point   143 :       0.0476    0.0476    0.0000
  band No.  band energies     occupation 
      1     -29.8432      2.00000
      2     -14.3238      2.00000
      3      -9.4072      2.00000
      4      -8.7453      2.00000
      5      -5.5392      2.00000
      6      -0.0580      0.00000
      7       0.1594      0.00000
      8       1.0483      0.00000
      9       2.3318      0.00000
     10       2.4801      0.00000
     11       3.5547      0.00000
     12       4.5536      0.00000
     13       6.3402      0.00000
     14       7.9762      0.00000
     15      10.3216      0.00000
     16      12.7490      0.00000

 k-point   144 :       0.0408    0.0408    0.0000
  band No.  band energies     occupation 
      1     -29.8952      2.00000
      2     -14.3714      2.00000
      3      -9.1607      2.00000
      4      -8.6533      2.00000
      5      -5.5633      2.00000
      6      -0.0546      0.00000
      7       0.1224      0.00000
      8       0.8623      0.00000
      9       2.2646      0.00000
     10       2.4145      0.00000
     11       3.4904      0.00000
     12       4.4866      0.00000
     13       6.2815      0.00000
     14       7.9112      0.00000
     15      10.2712      0.00000
     16      12.6885      0.00000

 k-point   145 :       0.0340    0.0340    0.0000
  band No.  band energies     occupation 
      1     -29.9392      2.00000
      2     -14.4115      2.00000
      3      -8.9409      2.00000
      4      -8.5749      2.00000
      5      -5.5840      2.00000
      6      -0.0506      0.00000
      7       0.0872      0.00000
      8       0.6963      0.00000
      9       2.2076      0.00000
     10       2.3589      0.00000
     11       3.4360      0.00000
     12       4.4300      0.00000
     13       6.2318      0.00000
     14       7.8562      0.00000
     15      10.2284      0.00000
     16      12.6372      0.00000

 k-point   146 :       0.0272    0.0272    0.0000
  band No.  band energies     occupation 
      1     -29.9753      2.00000
      2     -14.4446      2.00000
      3      -8.7524      2.00000
      4      -8.5105      2.00000
      5      -5.6013      2.00000
      6      -0.0465      0.00000
      7       0.0532      0.00000
      8       0.5561      0.00000
      9       2.1610      0.00000
     10       2.3133      0.00000
     11       3.3915      0.00000
     12       4.3836      0.00000
     13       6.1911      0.00000
     14       7.8111      0.00000
     15      10.1933      0.00000
     16      12.5950      0.00000

 k-point   147 :       0.0204    0.0204    0.0000
  band No.  band energies     occupation 
      1     -30.0032      2.00000
      2     -14.4703      2.00000
      3      -8.5999      2.00000
      4      -8.4599      2.00000
      5      -5.6149      2.00000
      6      -0.0428      0.00000
      7       0.0207      0.00000
      8       0.4467      0.00000
      9       2.1248      0.00000
     10       2.2779      0.00000
     11       3.3568      0.00000
     12       4.3475      0.00000
     13       6.1594      0.00000
     14       7.7761      0.00000
     15      10.1659      0.00000
     16      12.5622      0.00000

 k-point   148 :       0.0136    0.0136    0.0000
  band No.  band energies     occupation 
      1     -30.0232      2.00000
      2     -14.4887      2.00000
      3      -8.4874      2.00000
      4      -8.4239      2.00000
      5      -5.6247      2.00000
      6      -0.0399      0.00000
      7      -0.0085      0.00000
      8       0.3705      0.00000
      9       2.0989      0.00000
     10       2.2526      0.00000
     11       3.3321      0.00000
     12       4.3217      0.00000
     13       6.1367      0.00000
     14       7.7510      0.00000
     15      10.1463      0.00000
     16      12.5387      0.00000

 k-point   149 :       0.0068    0.0068    0.0000
  band No.  band energies     occupation 
      1     -30.0352      2.00000
      2     -14.4998      2.00000
      3      -8.4184      2.00000
      4      -8.4023      2.00000
      5      -5.6307      2.00000
      6      -0.0380      0.00000
      7      -0.0297      0.00000
      8       0.3267      0.00000
      9       2.0833      0.00000
     10       2.2374      0.00000
     11       3.3173      0.00000
     12       4.3063      0.00000
     13       6.1231      0.00000
     14       7.7360      0.00000
     15      10.1345      0.00000
     16      12.5246      0.00000

 k-point   150 :       0.0000    0.0000    0.0000
  band No.  band energies     occupation 
      1     -30.0393      2.00000
      2     -14.5035      2.00000
      3      -8.3950      2.00000
      4      -8.3950      2.00000
      5      -5.6326      2.00000
      6      -0.0374      0.00000
      7      -0.0374      0.00000
      8       0.3126      0.00000
      9       2.0781      0.00000
     10       2.2323      0.00000
     11       3.3123      0.00000
     12       4.3011      0.00000
     13       6.1186      0.00000
     14       7.7309      0.00000
     15      10.1306      0.00000
     16      12.5199      0.00000


--------------------------------------------------------------------------------------------------------


 soft charge-density along one line, spin component           1
         0         1         2         3         4         5         6         7         8         9
 total charge-density along one line
 
 pseudopotential strength for first ion, spin component:           1
 14.675 -14.801   0.000   0.036  -0.000  -0.000   0.238   0.000
-14.801  19.056  -0.000  -0.009   0.000   0.000  -0.333  -0.000
  0.000  -0.000  -7.674   0.000   0.000   4.274  -0.000  -0.000
  0.036  -0.009   0.000  -7.638  -0.000  -0.000   4.177   0.000
 -0.000   0.000   0.000  -0.000  -7.674  -0.000   0.000   4.274
 -0.000   0.000   4.274  -0.000  -0.000  32.803   0.000   0.000
  0.238  -0.333  -0.000   4.177   0.000   0.000  32.914  -0.000
  0.000  -0.000  -0.000   0.000   4.274   0.000  -0.000  32.803
 total augmentation occupancy for first ion, spin component:           1
  2.000   0.000   0.000   0.000   0.000   0.000   0.000   0.000
  0.000   0.000   0.000   0.000   0.000   0.000   0.000   0.000
  0.000   0.000   1.000   0.000   0.000   0.000   0.000   0.000
  0.000   0.000   0.000   1.000   0.000   0.000   0.000   0.000
  0.000   0.000   0.000   0.000   1.000   0.000   0.000   0.000
  0.000   0.000   0.000   0.000   0.000   0.000   0.000   0.000
  0.000   0.000   0.000   0.000   0.000   0.000   0.000   0.000
  0.000   0.000   0.000   0.000   0.000   0.000   0.000   0.000


------------------------ aborting loop because EDIFF is reached ----------------------------------------





 total charge

# of ion       s       p       d       tot
------------------------------------------
    1        1.279   2.289   0.000   3.568
    2        1.279   2.289   0.000   3.568
--------------------------------------------------
tot          2.558   4.578   0.000   7.136
 


--------------------------------------------------------------------------------------------------------



  FREE ENERGIE OF THE ION-ELECTRON SYSTEM (eV)
  ---------------------------------------------------
  free  energy   TOTEN  =       -13.48382707 eV

  energy  without entropy=      -13.48382707  energy(sigma->0) =      -13.48382707
 


--------------------------------------------------------------------------------------------------------




--------------------------------------------------------------------------------------------------------


     LOOP+:  cpu time     16.1010: real time     16.3893
    4ORBIT:  cpu time      0.0000: real time      0.0000



 total charge

# of ion       s       p       d       tot
------------------------------------------
    1        1.279   2.289   0.000   3.568
    2        1.279   2.289   0.000   3.568
--------------------------------------------------
tot          2.558   4.578   0.000   7.136
 

 total amount of memory used by VASP MPI-rank0    41908. kBytes
=======================================================================

   base      :      30000. kBytes
   nonl-proj :       4161. kBytes
   fftplans  :       2471. kBytes
   grid      :       1049. kBytes
   one-center:          3. kBytes
   wavefun   :       4224. kBytes
 
  
  
 General timing and accounting informations for this job:
 ========================================================
  
                  Total CPU time used (sec):       17.379
                            User time (sec):       17.176
                          System time (sec):        0.204
                         Elapsed time (sec):       18.905
  
                   Maximum memory used (kb):      145148.
                   Average memory used (kb):          N/A
  
                          Minor page faults:        12181
                          Major page faults:         3502
                 Voluntary context switches:          293
