PROCAR new format
# of k-points:  150         # of bands:   16         # of ions:    2

 k-point     1 :    0.00000000 0.00000000 0.00000000     weight = 0.00666667

band     1 # energy  -30.03925705 # occ.  2.00000000
 
ion      s      p      d    tot
    1  0.319  0.025  0.000  0.344
    2  0.319  0.025  0.000  0.344
tot    0.638  0.051  0.000  0.689
 
band     2 # energy  -14.50348112 # occ.  2.00000000
 
ion      s      p      d    tot
    1  0.148  0.132  0.000  0.280
    2  0.148  0.132  0.000  0.280
tot    0.296  0.263  0.000  0.560
 
band     3 # energy   -8.39501788 # occ.  2.00000000
 
ion      s      p      d    tot
    1  0.000  0.424  0.000  0.424
    2  0.000  0.424  0.000  0.424
tot    0.000  0.847  0.000  0.847
 
band     4 # energy   -8.39499505 # occ.  2.00000000
 
ion      s      p      d    tot
    1  0.000  0.424  0.000  0.424
    2  0.000  0.424  0.000  0.424
tot    0.000  0.847  0.000  0.847
 
band     5 # energy   -5.63262060 # occ.  2.00000000
 
ion      s      p      d    tot
    1  0.003  0.276  0.000  0.279
    2  0.003  0.276  0.000  0.279
tot    0.006  0.553  0.000  0.558
 
band     6 # energy   -0.03743082 # occ.  0.00000000
 
ion      s      p      d    tot
    1  0.000  0.390  0.000  0.390
    2  0.000  0.390  0.000  0.390
tot    0.000  0.780  0.000  0.780
 
band     7 # energy   -0.03741332 # occ.  0.00000000
 
ion      s      p      d    tot
    1  0.000  0.390  0.000  0.390
    2  0.000  0.390  0.000  0.390
tot    0.000  0.780  0.000  0.780
 
band     8 # energy    0.31259510 # occ.  0.00000000
 
ion      s      p      d    tot
    1  0.297  0.147  0.000  0.444
    2  0.297  0.147  0.000  0.444
tot    0.595  0.294  0.000  0.889
 
band     9 # energy    2.07811468 # occ.  0.00000000
 
ion      s      p      d    tot
    1  0.001  0.012  0.000  0.013
    2  0.001  0.012  0.000  0.013
tot    0.002  0.024  0.000  0.025
 
band    10 # energy    2.23232365 # occ.  0.00000000
 
ion      s      p      d    tot
    1  0.002  0.016  0.000  0.018
    2  0.002  0.016  0.000  0.018
tot    0.003  0.033  0.000  0.036
 
band    11 # energy    3.31230482 # occ.  0.00000000
 
ion      s      p      d    tot
    1  0.002  0.020  0.000  0.022
    2  0.002  0.020  0.000  0.022
tot    0.005  0.039  0.000  0.044
 
band    12 # energy    4.30111123 # occ.  0.00000000
 
ion      s      p      d    tot
    1  0.002  0.007  0.000  0.010
    2  0.002  0.007  0.000  0.010
tot    0.005  0.014  0.000  0.019
 
band    13 # energy    6.11860675 # occ.  0.00000000
 
ion      s      p      d    tot
    1  0.006  0.030  0.000  0.035
    2  0.006  0.030  0.000  0.035
tot    0.011  0.059  0.000  0.071
 
band    14 # energy    7.73093828 # occ.  0.00000000
 
ion      s      p      d    tot
    1  0.005  0.010  0.000  0.015
    2  0.005  0.010  0.000  0.015
tot    0.011  0.020  0.000  0.031
 
band    15 # energy   10.13058933 # occ.  0.00000000
 
ion      s      p      d    tot
    1  0.011  0.033  0.000  0.044
    2  0.011  0.033  0.000  0.044
tot    0.022  0.065  0.000  0.088
 
band    16 # energy   12.51989271 # occ.  0.00000000
 
ion      s      p      d    tot
    1  0.008  0.014  0.000  0.022
    2  0.008  0.014  0.000  0.022
tot    0.015  0.028  0.000  0.044
 

 k-point     2 :    0.01360544-0.00680272 0.00000000     weight = 0.00666667

band     1 # energy  -30.03524691 # occ.  2.00000000
 
ion      s      p      d    tot
    1  0.319  0.026  0.000  0.344
    2  0.319  0.026  0.000  0.344
tot    0.638  0.051  0.000  0.689
 
band     2 # energy  -14.49978290 # occ.  2.00000000
 
ion      s      p      d    tot
    1  0.148  0.132  0.000  0.280
    2  0.148  0.132  0.000  0.280
tot    0.297  0.263  0.000  0.560
 
band     3 # energy   -8.41841268 # occ.  2.00000000
 
ion      s      p      d    tot
    1  0.001  0.423  0.000  0.423
    2  0.001  0.423  0.000  0.423
tot    0.002  0.845  0.000  0.847
 
band     4 # energy   -8.40231678 # occ.  2.00000000
 
ion      s      p      d    tot
    1  0.000  0.424  0.000  0.424
    2  0.000  0.424  0.000  0.424
tot    0.000  0.847  0.000  0.847
 
band     5 # energy   -5.63067545 # occ.  2.00000000
 
ion      s      p      d    tot
    1  0.003  0.276  0.000  0.279
    2  0.003  0.276  0.000  0.279
tot    0.006  0.553  0.000  0.558
 
band     6 # energy   -0.03805677 # occ.  0.00000000
 
ion      s      p      d    tot
    1  0.000  0.390  0.000  0.390
    2  0.000  0.390  0.000  0.390
tot    0.000  0.780  0.000  0.780
 
band     7 # energy   -0.02965287 # occ.  0.00000000
 
ion      s      p      d    tot
    1  0.000  0.390  0.000  0.390
    2  0.000  0.390  0.000  0.390
tot    0.000  0.780  0.000  0.781
 
band     8 # energy    0.32671997 # occ.  0.00000000
 
ion      s      p      d    tot
    1  0.296  0.148  0.000  0.444
    2  0.296  0.148  0.000  0.444
tot    0.593  0.296  0.000  0.889
 
band     9 # energy    2.08329920 # occ.  0.00000000
 
ion      s      p      d    tot
    1  0.001  0.012  0.000  0.013
    2  0.001  0.012  0.000  0.013
tot    0.002  0.024  0.000  0.026
 
band    10 # energy    2.23738886 # occ.  0.00000000
 
ion      s      p      d    tot
    1  0.002  0.016  0.000  0.018
    2  0.002  0.016  0.000  0.018
tot    0.003  0.033  0.000  0.036
 
band    11 # energy    3.31725347 # occ.  0.00000000
 
ion      s      p      d    tot
    1  0.002  0.020  0.000  0.022
    2  0.002  0.020  0.000  0.022
tot    0.005  0.039  0.000  0.044
 
band    12 # energy    4.30626784 # occ.  0.00000000
 
ion      s      p      d    tot
    1  0.002  0.007  0.000  0.010
    2  0.002  0.007  0.000  0.010
tot    0.005  0.014  0.000  0.019
 
band    13 # energy    6.12313762 # occ.  0.00000000
 
ion      s      p      d    tot
    1  0.006  0.030  0.000  0.035
    2  0.006  0.030  0.000  0.035
tot    0.011  0.059  0.000  0.071
 
band    14 # energy    7.73595255 # occ.  0.00000000
 
ion      s      p      d    tot
    1  0.005  0.010  0.000  0.015
    2  0.005  0.010  0.000  0.015
tot    0.011  0.020  0.000  0.031
 
band    15 # energy   10.13451867 # occ.  0.00000000
 
ion      s      p      d    tot
    1  0.011  0.033  0.000  0.044
    2  0.011  0.033  0.000  0.044
tot    0.022  0.065  0.000  0.087
 
band    16 # energy   12.52459729 # occ.  0.00000000
 
ion      s      p      d    tot
    1  0.008  0.014  0.000  0.022
    2  0.008  0.014  0.000  0.022
tot    0.015  0.028  0.000  0.044
 

 k-point     3 :    0.02721088-0.01360544 0.00000000     weight = 0.00666667

band     1 # energy  -30.02322819 # occ.  2.00000000
 
ion      s      p      d    tot
    1  0.319  0.026  0.000  0.344
    2  0.319  0.026  0.000  0.344
tot    0.638  0.051  0.000  0.689
 
band     2 # energy  -14.48869432 # occ.  2.00000000
 
ion      s      p      d    tot
    1  0.148  0.132  0.000  0.280
    2  0.148  0.132  0.000  0.280
tot    0.297  0.263  0.000  0.560
 
band     3 # energy   -8.48741583 # occ.  2.00000000
 
ion      s      p      d    tot
    1  0.003  0.420  0.000  0.423
    2  0.003  0.420  0.000  0.423
tot    0.007  0.839  0.000  0.846
 
band     4 # energy   -8.42386854 # occ.  2.00000000
 
ion      s      p      d    tot
    1  0.000  0.423  0.000  0.423
    2  0.000  0.423  0.000  0.423
tot    0.000  0.846  0.000  0.846
 
band     5 # energy   -5.62471211 # occ.  2.00000000
 
ion      s      p      d    tot
    1  0.003  0.277  0.000  0.280
    2  0.003  0.277  0.000  0.280
tot    0.006  0.553  0.000  0.559
 
band     6 # energy   -0.03994209 # occ.  0.00000000
 
ion      s      p      d    tot
    1  0.001  0.389  0.000  0.390
    2  0.001  0.389  0.000  0.390
tot    0.002  0.778  0.000  0.779
 
band     7 # energy   -0.00852744 # occ.  0.00000000
 
ion      s      p      d    tot
    1  0.002  0.389  0.000  0.391
    2  0.002  0.389  0.000  0.391
tot    0.005  0.778  0.000  0.782
 
band     8 # energy    0.37051083 # occ.  0.00000000
 
ion      s      p      d    tot
    1  0.292  0.153  0.000  0.444
    2  0.292  0.153  0.000  0.444
tot    0.583  0.305  0.000  0.888
 
band     9 # energy    2.09885181 # occ.  0.00000000
 
ion      s      p      d    tot
    1  0.001  0.012  0.000  0.013
    2  0.001  0.012  0.000  0.013
tot    0.002  0.024  0.000  0.026
 
band    10 # energy    2.25258530 # occ.  0.00000000
 
ion      s      p      d    tot
    1  0.002  0.017  0.000  0.018
    2  0.002  0.017  0.000  0.018
tot    0.003  0.033  0.000  0.036
 
band    11 # energy    3.33210237 # occ.  0.00000000
 
ion      s      p      d    tot
    1  0.002  0.020  0.000  0.022
    2  0.002  0.020  0.000  0.022
tot    0.005  0.039  0.000  0.044
 
band    12 # energy    4.32173669 # occ.  0.00000000
 
ion      s      p      d    tot
    1  0.002  0.007  0.000  0.010
    2  0.002  0.007  0.000  0.010
tot    0.005  0.014  0.000  0.019
 
band    13 # energy    6.13673132 # occ.  0.00000000
 
ion      s      p      d    tot
    1  0.006  0.030  0.000  0.035
    2  0.006  0.030  0.000  0.035
tot    0.011  0.059  0.000  0.071
 
band    14 # energy    7.75099346 # occ.  0.00000000
 
ion      s      p      d    tot
    1  0.005  0.010  0.000  0.015
    2  0.005  0.010  0.000  0.015
tot    0.011  0.020  0.000  0.031
 
band    15 # energy   10.14630055 # occ.  0.00000000
 
ion      s      p      d    tot
    1  0.011  0.032  0.000  0.044
    2  0.011  0.032  0.000  0.044
tot    0.022  0.065  0.000  0.087
 
band    16 # energy   12.53870416 # occ.  0.00000000
 
ion      s      p      d    tot
    1  0.008  0.014  0.000  0.022
    2  0.008  0.014  0.000  0.022
tot    0.015  0.029  0.000  0.044
 

 k-point     4 :    0.04081633-0.02040816 0.00000000     weight = 0.00666667

band     1 # energy  -30.00323879 # occ.  2.00000000
 
ion      s      p      d    tot
    1  0.319  0.026  0.000  0.345
    2  0.319  0.026  0.000  0.345
tot    0.637  0.052  0.000  0.689
 
band     2 # energy  -14.47031149 # occ.  2.00000000
 
ion      s      p      d    tot
    1  0.149  0.132  0.000  0.280
    2  0.149  0.132  0.000  0.280
tot    0.297  0.263  0.000  0.561
 
band     3 # energy   -8.59987952 # occ.  2.00000000
 
ion      s      p      d    tot
    1  0.007  0.415  0.000  0.422
    2  0.007  0.415  0.000  0.422
tot    0.014  0.830  0.000  0.844
 
band     4 # energy   -8.45991335 # occ.  2.00000000
 
ion      s      p      d    tot
    1  0.000  0.423  0.000  0.423
    2  0.000  0.423  0.000  0.423
tot    0.000  0.845  0.000  0.845
 
band     5 # energy   -5.61489981 # occ.  2.00000000
 
ion      s      p      d    tot
    1  0.003  0.277  0.000  0.280
    2  0.003  0.277  0.000  0.280
tot    0.006  0.554  0.000  0.560
 
band     6 # energy   -0.04285518 # occ.  0.00000000
 
ion      s      p      d    tot
    1  0.002  0.387  0.000  0.389
    2  0.002  0.387  0.000  0.389
tot    0.004  0.775  0.000  0.778
 
band     7 # energy    0.02066160 # occ.  0.00000000
 
ion      s      p      d    tot
    1  0.009  0.384  0.000  0.393
    2  0.009  0.384  0.000  0.393
tot    0.018  0.767  0.000  0.785
 
band     8 # energy    0.44666509 # occ.  0.00000000
 
ion      s      p      d    tot
    1  0.281  0.163  0.000  0.444
    2  0.281  0.163  0.000  0.444
tot    0.561  0.326  0.000  0.887
 
band     9 # energy    2.12476693 # occ.  0.00000000
 
ion      s      p      d    tot
    1  0.001  0.012  0.000  0.013
    2  0.001  0.012  0.000  0.013
tot    0.002  0.024  0.000  0.026
 
band    10 # energy    2.27790359 # occ.  0.00000000
 
ion      s      p      d    tot
    1  0.002  0.017  0.000  0.018
    2  0.002  0.017  0.000  0.018
tot    0.003  0.033  0.000  0.037
 
band    11 # energy    3.35684679 # occ.  0.00000000
 
ion      s      p      d    tot
    1  0.002  0.020  0.000  0.022
    2  0.002  0.020  0.000  0.022
tot    0.005  0.039  0.000  0.044
 
band    12 # energy    4.34751362 # occ.  0.00000000
 
ion      s      p      d    tot
    1  0.002  0.007  0.000  0.010
    2  0.002  0.007  0.000  0.010
tot    0.005  0.014  0.000  0.019
 
band    13 # energy    6.15937827 # occ.  0.00000000
 
ion      s      p      d    tot
    1  0.006  0.030  0.000  0.035
    2  0.006  0.030  0.000  0.035
tot    0.011  0.059  0.000  0.071
 
band    14 # energy    7.77605437 # occ.  0.00000000
 
ion      s      p      d    tot
    1  0.005  0.010  0.000  0.016
    2  0.005  0.010  0.000  0.016
tot    0.011  0.020  0.000  0.031
 
band    15 # energy   10.16590944 # occ.  0.00000000
 
ion      s      p      d    tot
    1  0.011  0.032  0.000  0.043
    2  0.011  0.032  0.000  0.043
tot    0.022  0.065  0.000  0.087
 
band    16 # energy   12.56219192 # occ.  0.00000000
 
ion      s      p      d    tot
    1  0.008  0.014  0.000  0.022
    2  0.008  0.014  0.000  0.022
tot    0.015  0.029  0.000  0.044
 

 k-point     5 :    0.05442177-0.02721088 0.00000000     weight = 0.00666667

band     1 # energy  -29.97526542 # occ.  2.00000000
 
ion      s      p      d    tot
    1  0.318  0.026  0.000  0.345
    2  0.318  0.026  0.000  0.345
tot    0.637  0.053  0.000  0.689
 
band     2 # energy  -14.44460885 # occ.  2.00000000
 
ion      s      p      d    tot
    1  0.149  0.132  0.000  0.281
    2  0.149  0.132  0.000  0.281
tot    0.298  0.263  0.000  0.561
 
band     3 # energy   -8.75240262 # occ.  2.00000000
 
ion      s      p      d    tot
    1  0.012  0.409  0.000  0.421
    2  0.012  0.409  0.000  0.421
tot    0.024  0.818  0.000  0.842
 
band     4 # energy   -8.51048847 # occ.  2.00000000
 
ion      s      p      d    tot
    1  0.000  0.422  0.000  0.422
    2  0.000  0.422  0.000  0.422
tot    0.000  0.844  0.000  0.844
 
band     5 # energy   -5.60129909 # occ.  2.00000000
 
ion      s      p      d    tot
    1  0.003  0.278  0.000  0.281
    2  0.003  0.278  0.000  0.281
tot    0.006  0.556  0.000  0.562
 
band     6 # energy   -0.04653655 # occ.  0.00000000
 
ion      s      p      d    tot
    1  0.003  0.385  0.000  0.388
    2  0.003  0.385  0.000  0.388
tot    0.006  0.771  0.000  0.777
 
band     7 # energy    0.05321937 # occ.  0.00000000
 
ion      s      p      d    tot
    1  0.020  0.375  0.000  0.395
    2  0.020  0.375  0.000  0.395
tot    0.039  0.750  0.000  0.790
 
band     8 # energy    0.55611555 # occ.  0.00000000
 
ion      s      p      d    tot
    1  0.264  0.178  0.000  0.443
    2  0.264  0.178  0.000  0.443
tot    0.528  0.357  0.000  0.885
 
band     9 # energy    2.16103695 # occ.  0.00000000
 
ion      s      p      d    tot
    1  0.001  0.012  0.000  0.013
    2  0.001  0.012  0.000  0.013
tot    0.002  0.025  0.000  0.026
 
band    10 # energy    2.31333319 # occ.  0.00000000
 
ion      s      p      d    tot
    1  0.002  0.017  0.000  0.018
    2  0.002  0.017  0.000  0.018
tot    0.003  0.034  0.000  0.037
 
band    11 # energy    3.39148381 # occ.  0.00000000
 
ion      s      p      d    tot
    1  0.002  0.020  0.000  0.022
    2  0.002  0.020  0.000  0.022
tot    0.005  0.039  0.000  0.044
 
band    12 # energy    4.38359296 # occ.  0.00000000
 
ion      s      p      d    tot
    1  0.002  0.007  0.000  0.010
    2  0.002  0.007  0.000  0.010
tot    0.005  0.014  0.000  0.019
 
band    13 # energy    6.19106693 # occ.  0.00000000
 
ion      s      p      d    tot
    1  0.006  0.030  0.000  0.035
    2  0.006  0.030  0.000  0.035
tot    0.011  0.059  0.000  0.070
 
band    14 # energy    7.81112509 # occ.  0.00000000
 
ion      s      p      d    tot
    1  0.005  0.010  0.000  0.016
    2  0.005  0.010  0.000  0.016
tot    0.011  0.021  0.000  0.031
 
band    15 # energy   10.19330542 # occ.  0.00000000
 
ion      s      p      d    tot
    1  0.011  0.032  0.000  0.043
    2  0.011  0.032  0.000  0.043
tot    0.022  0.065  0.000  0.086
 
band    16 # energy   12.59502475 # occ.  0.00000000
 
ion      s      p      d    tot
    1  0.008  0.014  0.000  0.022
    2  0.008  0.014  0.000  0.022
tot    0.016  0.029  0.000  0.044
 

 k-point     6 :    0.06802721-0.03401361 0.00000000     weight = 0.00666667

band     1 # energy  -29.93923082 # occ.  2.00000000
 
ion      s      p      d    tot
    1  0.318  0.027  0.000  0.345
    2  0.318  0.027  0.000  0.345
tot    0.636  0.054  0.000  0.690
 
band     2 # energy  -14.41153284 # occ.  2.00000000
 
ion      s      p      d    tot
    1  0.150  0.132  0.000  0.281
    2  0.150  0.132  0.000  0.281
tot    0.299  0.263  0.000  0.562
 
band     3 # energy   -8.94086571 # occ.  2.00000000
 
ion      s      p      d    tot
    1  0.018  0.402  0.000  0.420
    2  0.018  0.402  0.000  0.420
tot    0.035  0.804  0.000  0.839
 
band     4 # energy   -8.57489374 # occ.  2.00000000
 
ion      s      p      d    tot
    1  0.000  0.421  0.000  0.421
    2  0.000  0.421  0.000  0.421
tot    0.000  0.842  0.000  0.842
 
band     5 # energy   -5.58401582 # occ.  2.00000000
 
ion      s      p      d    tot
    1  0.003  0.279  0.000  0.282
    2  0.003  0.279  0.000  0.282
tot    0.006  0.558  0.000  0.564
 
band     6 # energy   -0.05059927 # occ.  0.00000000
 
ion      s      p      d    tot
    1  0.005  0.383  0.000  0.387
    2  0.005  0.383  0.000  0.387
tot    0.010  0.765  0.000  0.775
 
band     7 # energy    0.08721200 # occ.  0.00000000
 
ion      s      p      d    tot
    1  0.032  0.366  0.000  0.397
    2  0.032  0.366  0.000  0.397
tot    0.063  0.731  0.000  0.794
 
band     8 # energy    0.69635889 # occ.  0.00000000
 
ion      s      p      d    tot
    1  0.246  0.196  0.000  0.442
    2  0.246  0.196  0.000  0.442
tot    0.491  0.392  0.000  0.883
 
band     9 # energy    2.20764946 # occ.  0.00000000
 
ion      s      p      d    tot
    1  0.001  0.013  0.000  0.013
    2  0.001  0.013  0.000  0.013
tot    0.001  0.025  0.000  0.027
 
band    10 # energy    2.35885980 # occ.  0.00000000
 
ion      s      p      d    tot
    1  0.002  0.017  0.000  0.019
    2  0.002  0.017  0.000  0.019
tot    0.003  0.034  0.000  0.037
 
band    11 # energy    3.43600965 # occ.  0.00000000
 
ion      s      p      d    tot
    1  0.002  0.020  0.000  0.022
    2  0.002  0.020  0.000  0.022
tot    0.005  0.040  0.000  0.044
 
band    12 # energy    4.42996677 # occ.  0.00000000
 
ion      s      p      d    tot
    1  0.002  0.007  0.000  0.010
    2  0.002  0.007  0.000  0.010
tot    0.005  0.014  0.000  0.019
 
band    13 # energy    6.23178187 # occ.  0.00000000
 
ion      s      p      d    tot
    1  0.006  0.030  0.000  0.035
    2  0.006  0.030  0.000  0.035
tot    0.011  0.059  0.000  0.070
 
band    14 # energy    7.85619189 # occ.  0.00000000
 
ion      s      p      d    tot
    1  0.005  0.010  0.000  0.016
    2  0.005  0.010  0.000  0.016
tot    0.011  0.021  0.000  0.031
 
band    15 # energy   10.22843471 # occ.  0.00000000
 
ion      s      p      d    tot
    1  0.011  0.032  0.000  0.043
    2  0.011  0.032  0.000  0.043
tot    0.022  0.064  0.000  0.086
 
band    16 # energy   12.63715314 # occ.  0.00000000
 
ion      s      p      d    tot
    1  0.008  0.015  0.000  0.022
    2  0.008  0.015  0.000  0.022
tot    0.016  0.029  0.000  0.045
 

 k-point     7 :    0.08163265-0.04081633 0.00000000     weight = 0.00666667

band     1 # energy  -29.89524720 # occ.  2.00000000
 
ion      s      p      d    tot
    1  0.318  0.027  0.000  0.345
    2  0.318  0.027  0.000  0.345
tot    0.635  0.055  0.000  0.690
 
band     2 # energy  -14.37138250 # occ.  2.00000000
 
ion      s      p      d    tot
    1  0.150  0.131  0.000  0.282
    2  0.150  0.131  0.000  0.282
tot    0.300  0.263  0.000  0.563
 
band     3 # energy   -9.16065989 # occ.  2.00000000
 
ion      s      p      d    tot
    1  0.024  0.394  0.000  0.418
    2  0.024  0.394  0.000  0.418
tot    0.048  0.788  0.000  0.836
 
band     4 # energy   -8.65333162 # occ.  2.00000000
 
ion      s      p      d    tot
    1  0.000  0.420  0.000  0.420
    2  0.000  0.420  0.000  0.420
tot    0.000  0.839  0.000  0.840
 
band     5 # energy   -5.56331698 # occ.  2.00000000
 
ion      s      p      d    tot
    1  0.003  0.280  0.000  0.284
    2  0.003  0.280  0.000  0.284
tot    0.007  0.560  0.000  0.567
 
band     6 # energy   -0.05460911 # occ.  0.00000000
 
ion      s      p      d    tot
    1  0.007  0.380  0.000  0.386
    2  0.007  0.380  0.000  0.386
tot    0.014  0.759  0.000  0.773
 
band     7 # energy    0.12234680 # occ.  0.00000000
 
ion      s      p      d    tot
    1  0.042  0.357  0.000  0.399
    2  0.042  0.357  0.000  0.399
tot    0.084  0.714  0.000  0.799
 
band     8 # energy    0.86235468 # occ.  0.00000000
 
ion      s      p      d    tot
    1  0.228  0.214  0.000  0.441
    2  0.228  0.214  0.000  0.441
tot    0.455  0.427  0.000  0.882
 
band     9 # energy    2.26458212 # occ.  0.00000000
 
ion      s      p      d    tot
    1  0.001  0.013  0.000  0.014
    2  0.001  0.013  0.000  0.014
tot    0.001  0.026  0.000  0.027
 
band    10 # energy    2.41446420 # occ.  0.00000000
 
ion      s      p      d    tot
    1  0.002  0.017  0.000  0.019
    2  0.002  0.017  0.000  0.019
tot    0.003  0.035  0.000  0.038
 
band    11 # energy    3.49041818 # occ.  0.00000000
 
ion      s      p      d    tot
    1  0.002  0.020  0.000  0.022
    2  0.002  0.020  0.000  0.022
tot    0.005  0.040  0.000  0.044
 
band    12 # energy    4.48662320 # occ.  0.00000000
 
ion      s      p      d    tot
    1  0.002  0.007  0.000  0.010
    2  0.002  0.007  0.000  0.010
tot    0.005  0.014  0.000  0.019
 
band    13 # energy    6.28150181 # occ.  0.00000000
 
ion      s      p      d    tot
    1  0.005  0.030  0.000  0.035
    2  0.005  0.030  0.000  0.035
tot    0.011  0.059  0.000  0.070
 
band    14 # energy    7.91123568 # occ.  0.00000000
 
ion      s      p      d    tot
    1  0.005  0.010  0.000  0.016
    2  0.005  0.010  0.000  0.016
tot    0.011  0.021  0.000  0.031
 
band    15 # energy   10.27122720 # occ.  0.00000000
 
ion      s      p      d    tot
    1  0.011  0.032  0.000  0.042
    2  0.011  0.032  0.000  0.042
tot    0.021  0.064  0.000  0.085
 
band    16 # energy   12.68851145 # occ.  0.00000000
 
ion      s      p      d    tot
    1  0.008  0.015  0.000  0.023
    2  0.008  0.015  0.000  0.023
tot    0.016  0.029  0.000  0.045
 

 k-point     8 :    0.09523810-0.04761905 0.00000000     weight = 0.00666667

band     1 # energy  -29.84318177 # occ.  2.00000000
 
ion      s      p      d    tot
    1  0.317  0.028  0.000  0.345
    2  0.317  0.028  0.000  0.345
tot    0.634  0.056  0.000  0.691
 
band     2 # energy  -14.32379377 # occ.  2.00000000
 
ion      s      p      d    tot
    1  0.151  0.131  0.000  0.282
    2  0.151  0.131  0.000  0.282
tot    0.302  0.263  0.000  0.565
 
band     3 # energy   -9.40715596 # occ.  2.00000000
 
ion      s      p      d    tot
    1  0.030  0.386  0.000  0.417
    2  0.030  0.386  0.000  0.417
tot    0.060  0.773  0.000  0.833
 
band     4 # energy   -8.74532501 # occ.  2.00000000
 
ion      s      p      d    tot
    1  0.000  0.418  0.000  0.418
    2  0.000  0.418  0.000  0.418
tot    0.000  0.837  0.000  0.837
 
band     5 # energy   -5.53923901 # occ.  2.00000000
 
ion      s      p      d    tot
    1  0.004  0.281  0.000  0.285
    2  0.004  0.281  0.000  0.285
tot    0.007  0.563  0.000  0.570
 
band     6 # energy   -0.05803456 # occ.  0.00000000
 
ion      s      p      d    tot
    1  0.009  0.376  0.000  0.385
    2  0.009  0.376  0.000  0.385
tot    0.018  0.752  0.000  0.770
 
band     7 # energy    0.15940115 # occ.  0.00000000
 
ion      s      p      d    tot
    1  0.051  0.350  0.000  0.401
    2  0.051  0.350  0.000  0.401
tot    0.102  0.701  0.000  0.802
 
band     8 # energy    1.04830741 # occ.  0.00000000
 
ion      s      p      d    tot
    1  0.211  0.230  0.000  0.441
    2  0.211  0.230  0.000  0.441
tot    0.422  0.460  0.000  0.882
 
band     9 # energy    2.33181276 # occ.  0.00000000
 
ion      s      p      d    tot
    1  0.001  0.013  0.000  0.014
    2  0.001  0.013  0.000  0.014
tot    0.001  0.027  0.000  0.028
 
band    10 # energy    2.48012824 # occ.  0.00000000
 
ion      s      p      d    tot
    1  0.001  0.018  0.000  0.019
    2  0.001  0.018  0.000  0.019
tot    0.003  0.035  0.000  0.038
 
band    11 # energy    3.55470689 # occ.  0.00000000
 
ion      s      p      d    tot
    1  0.002  0.020  0.000  0.022
    2  0.002  0.020  0.000  0.022
tot    0.004  0.040  0.000  0.044
 
band    12 # energy    4.55355396 # occ.  0.00000000
 
ion      s      p      d    tot
    1  0.003  0.007  0.000  0.010
    2  0.003  0.007  0.000  0.010
tot    0.005  0.015  0.000  0.020
 
band    13 # energy    6.34020527 # occ.  0.00000000
 
ion      s      p      d    tot
    1  0.005  0.029  0.000  0.035
    2  0.005  0.029  0.000  0.035
tot    0.011  0.059  0.000  0.070
 
band    14 # energy    7.97623968 # occ.  0.00000000
 
ion      s      p      d    tot
    1  0.005  0.010  0.000  0.016
    2  0.005  0.010  0.000  0.016
tot    0.011  0.021  0.000  0.032
 
band    15 # energy   10.32160278 # occ.  0.00000000
 
ion      s      p      d    tot
    1  0.010  0.032  0.000  0.042
    2  0.010  0.032  0.000  0.042
tot    0.021  0.063  0.000  0.084
 
band    16 # energy   12.74902286 # occ.  0.00000000
 
ion      s      p      d    tot
    1  0.008  0.015  0.000  0.023
    2  0.008  0.015  0.000  0.023
tot    0.016  0.030  0.000  0.046
 

 k-point     9 :    0.10884354-0.05442177 0.00000000     weight = 0.00666667

band     1 # energy  -29.78334649 # occ.  2.00000000
 
ion      s      p      d    tot
    1  0.317  0.029  0.000  0.345
    2  0.317  0.029  0.000  0.345
tot    0.633  0.058  0.000  0.691
 
band     2 # energy  -14.26943015 # occ.  2.00000000
 
ion      s      p      d    tot
    1  0.152  0.131  0.000  0.283
    2  0.152  0.131  0.000  0.283
tot    0.304  0.262  0.000  0.566
 
band     3 # energy   -9.67740777 # occ.  2.00000000
 
ion      s      p      d    tot
    1  0.036  0.378  0.000  0.415
    2  0.036  0.378  0.000  0.415
tot    0.073  0.756  0.000  0.829
 
band     4 # energy   -8.85103575 # occ.  2.00000000
 
ion      s      p      d    tot
    1  0.000  0.417  0.000  0.417
    2  0.000  0.417  0.000  0.417
tot    0.001  0.833  0.000  0.834
 
band     5 # energy   -5.51264388 # occ.  2.00000000
 
ion      s      p      d    tot
    1  0.004  0.283  0.000  0.287
    2  0.004  0.283  0.000  0.287
tot    0.008  0.566  0.000  0.574
 
band     6 # energy   -0.06043031 # occ.  0.00000000
 
ion      s      p      d    tot
    1  0.011  0.372  0.000  0.384
    2  0.011  0.372  0.000  0.384
tot    0.023  0.744  0.000  0.767
 
band     7 # energy    0.19884532 # occ.  0.00000000
 
ion      s      p      d    tot
    1  0.057  0.345  0.000  0.403
    2  0.057  0.345  0.000  0.403
tot    0.115  0.690  0.000  0.805
 
band     8 # energy    1.24829625 # occ.  0.00000000
 
ion      s      p      d    tot
    1  0.196  0.245  0.000  0.441
    2  0.196  0.245  0.000  0.441
tot    0.393  0.489  0.000  0.882
 
band     9 # energy    2.40929213 # occ.  0.00000000
 
ion      s      p      d    tot
    1  0.001  0.014  0.000  0.014
    2  0.001  0.014  0.000  0.014
tot    0.001  0.028  0.000  0.029
 
band    10 # energy    2.55582006 # occ.  0.00000000
 
ion      s      p      d    tot
    1  0.001  0.018  0.000  0.019
    2  0.001  0.018  0.000  0.019
tot    0.003  0.036  0.000  0.039
 
band    11 # energy    3.62886251 # occ.  0.00000000
 
ion      s      p      d    tot
    1  0.002  0.020  0.000  0.022
    2  0.002  0.020  0.000  0.022
tot    0.004  0.040  0.000  0.044
 
band    12 # energy    4.63074168 # occ.  0.00000000
 
ion      s      p      d    tot
    1  0.003  0.007  0.000  0.010
    2  0.003  0.007  0.000  0.010
tot    0.005  0.015  0.000  0.020
 
band    13 # energy    6.40785958 # occ.  0.00000000
 
ion      s      p      d    tot
    1  0.005  0.029  0.000  0.035
    2  0.005  0.029  0.000  0.035
tot    0.010  0.059  0.000  0.069
 
band    14 # energy    8.05117661 # occ.  0.00000000
 
ion      s      p      d    tot
    1  0.005  0.010  0.000  0.016
    2  0.005  0.010  0.000  0.016
tot    0.011  0.021  0.000  0.032
 
band    15 # energy   10.37946628 # occ.  0.00000000
 
ion      s      p      d    tot
    1  0.010  0.031  0.000  0.041
    2  0.010  0.031  0.000  0.041
tot    0.020  0.062  0.000  0.083
 
band    16 # energy   12.81859040 # occ.  0.00000000
 
ion      s      p      d    tot
    1  0.008  0.015  0.000  0.023
    2  0.008  0.015  0.000  0.023
tot    0.016  0.030  0.000  0.046
 

 k-point    10 :    0.12244898-0.06122449 0.00000000     weight = 0.00666667

band     1 # energy  -29.71548765 # occ.  2.00000000
 
ion      s      p      d    tot
    1  0.316  0.030  0.000  0.346
    2  0.316  0.030  0.000  0.346
tot    0.632  0.060  0.000  0.692
 
band     2 # energy  -14.20806443 # occ.  2.00000000
 
ion      s      p      d    tot
    1  0.153  0.131  0.000  0.284
    2  0.153  0.131  0.000  0.284
tot    0.307  0.261  0.000  0.568
 
band     3 # energy   -9.96624633 # occ.  2.00000000
 
ion      s      p      d    tot
    1  0.042  0.370  0.000  0.413
    2  0.042  0.370  0.000  0.413
tot    0.085  0.740  0.000  0.825
 
band     4 # energy   -8.96994025 # occ.  2.00000000
 
ion      s      p      d    tot
    1  0.000  0.415  0.000  0.415
    2  0.000  0.415  0.000  0.415
tot    0.001  0.829  0.000  0.830
 
band     5 # energy   -5.48343288 # occ.  2.00000000
 
ion      s      p      d    tot
    1  0.004  0.285  0.000  0.289
    2  0.004  0.285  0.000  0.289
tot    0.009  0.570  0.000  0.579
 
band     6 # energy   -0.06107602 # occ.  0.00000000
 
ion      s      p      d    tot
    1  0.014  0.368  0.000  0.382
    2  0.014  0.368  0.000  0.382
tot    0.028  0.736  0.000  0.764
 
band     7 # energy    0.24127423 # occ.  0.00000000
 
ion      s      p      d    tot
    1  0.062  0.342  0.000  0.404
    2  0.062  0.342  0.000  0.404
tot    0.124  0.683  0.000  0.807
 
band     8 # energy    1.45709858 # occ.  0.00000000
 
ion      s      p      d    tot
    1  0.183  0.258  0.000  0.441
    2  0.183  0.258  0.000  0.441
tot    0.366  0.516  0.000  0.883
 
band     9 # energy    2.49696894 # occ.  0.00000000
 
ion      s      p      d    tot