<?xml version="1.0" encoding="ISO-8859-1"?>
<modeling>
 <generator>
  <i name="program" type="string">vasp </i>
  <i name="version" type="string">6.4.2  </i>
  <i name="subversion" type="string">20Jul23 (build Nov 14 2023 12:59:38) complex                          parallel </i>
  <i name="platform" type="string">LinuxIFC </i>
  <i name="date" type="string">2023 12 17 </i>
  <i name="time" type="string">08:42:03 </i>
 </generator>
 <incar>
  <i type="string" name="PREC">Accurate</i>
  <i type="string" name="ALGO">Normal</i>
  <i type="logical" name="ADDGRID"> T  </i>
  <i type="int" name="ISPIN">     1</i>
  <i name="AMIX">      0.10000000</i>
  <i name="BMIX">      0.00010000</i>
  <i type="int" name="ICHARG">    11</i>
  <i type="int" name="NELM">   200</i>
  <i type="int" name="NELMDL">   -12</i>
  <i type="int" name="NELMIN">     6</i>
  <i type="int" name="IBRION">     2</i>
  <i name="EDIFF">      0.00000100</i>
  <i name="EDIFFG">     -0.01000000</i>
  <i type="int" name="NSW">     0</i>
  <i type="int" name="ISIF">    -1</i>
  <i name="ENCUT">    473.51475000</i>
  <i type="int" name="NBANDS">    16</i>
  <i name="POTIM">      0.50000000</i>
  <i type="int" name="NEDOS">  6001</i>
  <i type="logical" name="LPLANE"> T  </i>
  <i type="int" name="ISMEAR">     0</i>
  <i name="SIGMA">      0.01000000</i>
  <i type="int" name="NWRITE">     1</i>
  <i type="logical" name="LWAVE"> F  </i>
  <i type="logical" name="LCHARG"> F  </i>
  <i type="int" name="LORBIT">    10</i>
  <i type="logical" name="LASPH"> T  </i>
  <i type="int" name="IVDW">     0</i>
 </incar>
 <primitive_cell>
  <structure name="primitive_cell" >
   <crystal>
    <varray name="basis" >
     <v>       2.29449859       0.00000000       0.00000000 </v>
     <v>      -1.14724930       1.98709407       0.00000000 </v>
     <v>       0.00000000       0.00000000      16.00000000 </v>
    </varray>
    <i name="volume">     72.95015287 </i>
    <varray name="rec_basis" >
     <v>       0.43582507       0.25162372       0.00000000 </v>
     <v>       0.00000000       0.50324744       0.00000000 </v>
     <v>       0.00000000       0.00000000       0.06250000 </v>
    </varray>
   </crystal>
   <varray name="positions" >
    <v>       0.66666667       0.33333333       0.47822185 </v>
    <v>       0.33333333       0.66666667       0.52177815 </v>
   </varray>
  </structure>
  <varray name="primitive_index" >
   <v type="int" >        1 </v>
   <v type="int" >        2 </v>
  </varray>
 </primitive_cell>
 <kpoints>
  <generation param="listgenerated">
   <i name="divisions" type="int">      50 </i>
   <v>       0.00000000       0.00000000       0.00000000 </v>
   <v>       0.66666667      -0.33333333       0.00000000 </v>
   <v>       0.33333333       0.33333333       0.00000000 </v>
   <v>       0.00000000       0.00000000       0.00000000 </v>
  </generation>
  <varray name="kpointlist" >
   <v>       0.00000000       0.00000000       0.00000000 </v>
   <v>       0.01360544      -0.00680272       0.00000000 </v>
   <v>       0.02721088      -0.01360544       0.00000000 </v>
   <v>       0.04081633      -0.02040816       0.00000000 </v>
   <v>       0.05442177      -0.02721088       0.00000000 </v>
   <v>       0.06802721      -0.03401361       0.00000000 </v>
   <v>       0.08163265      -0.04081633       0.00000000 </v>
   <v>       0.09523810      -0.04761905       0.00000000 </v>
   <v>       0.10884354      -0.05442177       0.00000000 </v>
   <v>       0.12244898      -0.06122449       0.00000000 </v>
   <v>       0.13605442      -0.06802721       0.00000000 </v>
   <v>       0.14965986      -0.07482993       0.00000000 </v>
   <v>       0.16326531      -0.08163265       0.00000000 </v>
   <v>       0.17687075      -0.08843537       0.00000000 </v>
   <v>       0.19047619      -0.09523810       0.00000000 </v>
   <v>       0.20408163      -0.10204082       0.00000000 </v>
   <v>       0.21768707      -0.10884354       0.00000000 </v>
   <v>       0.23129252      -0.11564626       0.00000000 </v>
   <v>       0.24489796      -0.12244898       0.00000000 </v>
   <v>       0.25850340      -0.12925170       0.00000000 </v>
   <v>       0.27210884      -0.13605442       0.00000000 </v>
   <v>       0.28571429      -0.14285714       0.00000000 </v>
   <v>       0.29931973      -0.14965986       0.00000000 </v>
   <v>       0.31292517      -0.15646259       0.00000000 </v>
   <v>       0.32653061      -0.16326531       0.00000000 </v>
   <v>       0.34013605      -0.17006803       0.00000000 </v>
   <v>       0.35374150      -0.17687075       0.00000000 </v>
   <v>       0.36734694      -0.18367347       0.00000000 </v>
   <v>       0.38095238      -0.19047619       0.00000000 </v>
   <v>       0.39455782      -0.19727891       0.00000000 </v>
   <v>       0.40816327      -0.20408163       0.00000000 </v>
   <v>       0.42176871      -0.21088435       0.00000000 </v>
   <v>       0.43537415      -0.21768707       0.00000000 </v>
   <v>       0.44897959      -0.22448980       0.00000000 </v>
   <v>       0.46258503      -0.23129252       0.00000000 </v>
   <v>       0.47619048      -0.23809524       0.00000000 </v>
   <v>       0.48979592      -0.24489796       0.00000000 </v>
   <v>       0.50340136      -0.25170068       0.00000000 </v>
   <v>       0.51700680      -0.25850340       0.00000000 </v>
   <v>       0.53061224      -0.26530612       0.00000000 </v>
   <v>       0.54421769      -0.27210884       0.00000000 </v>
   <v>       0.55782313      -0.27891156       0.00000000 </v>
   <v>       0.57142857      -0.28571429       0.00000000 </v>
   <v>       0.58503401      -0.29251701       0.00000000 </v>
   <v>       0.59863946      -0.29931973       0.00000000 </v>
   <v>       0.61224490      -0.30612245       0.00000000 </v>
   <v>       0.62585034      -0.31292517       0.00000000 </v>
   <v>       0.63945578      -0.31972789       0.00000000 </v>
   <v>       0.65306122      -0.32653061       0.00000000 </v>
   <v>       0.66666667      -0.33333333       0.00000000 </v>
   <v>       0.66666667      -0.33333333       0.00000000 </v>
   <v>       0.65986395      -0.31972789       0.00000000 </v>
   <v>       0.65306122      -0.30612245       0.00000000 </v>
   <v>       0.64625850      -0.29251701       0.00000000 </v>
   <v>       0.63945578      -0.27891156       0.00000000 </v>
   <v>       0.63265306      -0.26530612       0.00000000 </v>
   <v>       0.62585034      -0.25170068       0.00000000 </v>
   <v>       0.61904762      -0.23809524       0.00000000 </v>
   <v>       0.61224490      -0.22448980       0.00000000 </v>
   <v>       0.60544218      -0.21088435       0.00000000 </v>
   <v>       0.59863946      -0.19727891       0.00000000 </v>
   <v>       0.59183673      -0.18367347       0.00000000 </v>
   <v>       0.58503401      -0.17006803       0.00000000 </v>
   <v>       0.57823129      -0.15646259       0.00000000 </v>
   <v>       0.57142857      -0.14285714       0.00000000 </v>
   <v>       0.56462585      -0.12925170       0.00000000 </v>
   <v>       0.55782313      -0.11564626       0.00000000 </v>
   <v>       0.55102041      -0.10204082       0.00000000 </v>
   <v>       0.54421769      -0.08843537       0.00000000 </v>
   <v>       0.53741497      -0.07482993       0.00000000 </v>
   <v>       0.53061224      -0.06122449       0.00000000 </v>
   <v>       0.52380952      -0.04761905       0.00000000 </v>
   <v>       0.51700680      -0.03401361       0.00000000 </v>
   <v>       0.51020408      -0.02040816       0.00000000 </v>
   <v>       0.50340136      -0.00680272       0.00000000 </v>
   <v>       0.49659864       0.00680272       0.00000000 </v>
   <v>       0.48979592       0.02040816       0.00000000 </v>
   <v>       0.48299320       0.03401361       0.00000000 </v>
   <v>       0.47619048       0.04761905       0.00000000 </v>
   <v>       0.46938776       0.06122449       0.00000000 </v>
   <v>       0.46258503       0.07482993       0.00000000 </v>
   <v>       0.45578231       0.08843537       0.00000000 </v>
   <v>       0.44897959       0.10204082       0.00000000 </v>
   <v>       0.44217687       0.11564626       0.00000000 </v>
   <v>       0.43537415       0.12925170       0.00000000 </v>
   <v>       0.42857143       0.14285714       0.00000000 </v>
   <v>       0.42176871       0.15646259       0.00000000 </v>
   <v>       0.41496599       0.17006803       0.00000000 </v>
   <v>       0.40816327       0.18367347       0.00000000 </v>
   <v>       0.40136054       0.19727891       0.00000000 </v>
   <v>       0.39455782       0.21088435       0.00000000 </v>
   <v>       0.38775510       0.22448980       0.00000000 </v>
   <v>       0.38095238       0.23809524       0.00000000 </v>
   <v>       0.37414966       0.25170068       0.00000000 </v>
   <v>       0.36734694       0.26530612       0.00000000 </v>
   <v>       0.36054422       0.27891156       0.00000000 </v>
   <v>       0.35374150       0.29251701       0.00000000 </v>
   <v>       0.34693878       0.30612245       0.00000000 </v>
   <v>       0.34013605       0.31972789       0.00000000 </v>
   <v>       0.33333333       0.33333333       0.00000000 </v>
   <v>       0.33333333       0.33333333       0.00000000 </v>
   <v>       0.32653061       0.32653061       0.00000000 </v>
   <v>       0.31972789       0.31972789       0.00000000 </v>
   <v>       0.31292517       0.31292517       0.00000000 </v>
   <v>       0.30612245       0.30612245       0.00000000 </v>
   <v>       0.29931973       0.29931973       0.00000000 </v>
   <v>       0.29251701       0.29251701       0.00000000 </v>
   <v>       0.28571429       0.28571429       0.00000000 </v>
   <v>       0.27891156       0.27891156       0.00000000 </v>
   <v>       0.27210884       0.27210884       0.00000000 </v>
   <v>       0.26530612       0.26530612       0.00000000 </v>
   <v>       0.25850340       0.25850340       0.00000000 </v>
   <v>       0.25170068       0.25170068       0.00000000 </v>
   <v>       0.24489796       0.24489796       0.00000000 </v>
   <v>       0.23809524       0.23809524       0.00000000 </v>
   <v>       0.23129252       0.23129252       0.00000000 </v>
   <v>       0.22448980       0.22448980       0.00000000 </v>
   <v>       0.21768707       0.21768707       0.00000000 </v>
   <v>       0.21088435       0.21088435       0.00000000 </v>
   <v>       0.20408163       0.20408163       0.00000000 </v>
   <v>       0.19727891       0.19727891       0.00000000 </v>
   <v>       0.19047619       0.19047619       0.00000000 </v>
   <v>       0.18367347       0.18367347       0.00000000 </v>
   <v>       0.17687075       0.17687075       0.00000000 </v>
   <v>       0.17006803       0.17006803       0.00000000 </v>
   <v>       0.16326531       0.16326531       0.00000000 </v>
   <v>       0.15646259       0.15646259       0.00000000 </v>
   <v>       0.14965986       0.14965986       0.00000000 </v>
   <v>       0.14285714       0.14285714       0.00000000 </v>
   <v>       0.13605442       0.13605442       0.00000000 </v>
   <v>       0.12925170       0.12925170       0.00000000 </v>
   <v>       0.12244898       0.12244898       0.00000000 </v>
   <v>       0.11564626       0.11564626       0.00000000 </v>
   <v>       0.10884354       0.10884354       0.00000000 </v>
   <v>       0.10204082       0.10204082       0.00000000 </v>
   <v>       0.09523810       0.09523810       0.00000000 </v>
   <v>       0.08843537       0.08843537       0.00000000 </v>
   <v>       0.08163265       0.08163265       0.00000000 </v>
   <v>       0.07482993       0.07482993       0.00000000 </v>
   <v>       0.06802721       0.06802721       0.00000000 </v>
   <v>       0.06122449       0.06122449       0.00000000 </v>
   <v>       0.05442177       0.05442177       0.00000000 </v>
   <v>       0.04761905       0.04761905       0.00000000 </v>
   <v>       0.04081633       0.04081633       0.00000000 </v>
   <v>       0.03401361       0.03401361       0.00000000 </v>
   <v>       0.02721088       0.02721088       0.00000000 </v>
   <v>       0.02040816       0.02040816       0.00000000 </v>
   <v>       0.01360544       0.01360544       0.00000000 </v>
   <v>       0.00680272       0.00680272       0.00000000 </v>
   <v>       0.00000000       0.00000000       0.00000000 </v>
  </varray>
  <varray name="weights" >
   <v>       0.00666667 </v>
   <v>       0.00666667 </v>
   <v>       0.00666667 </v>
   <v>       0.00666667 </v>
   <v>       0.00666667 </v>
   <v>       0.00666667 </v>
   <v>       0.00666667 </v>
   <v>       0.00666667 </v>
   <v>       0.00666667 </v>
   <v>       0.00666667 </v>
   <v>       0.00666667 </v>
   <v>       0.00666667 </v>
   <v>       0.00666667 </v>
   <v>       0.00666667 </v>
   <v>       0.00666667 </v>
   <v>       0.00666667 </v>
   <v>       0.00666667 </v>
   <v>       0.00666667 </v>
   <v>       0.00666667 </v>
   <v>       0.00666667 </v>
   <v>       0.00666667 </v>
   <v>       0.00666667 </v>
   <v>       0.00666667 </v>
   <v>       0.00666667 </v>
   <v>       0.00666667 </v>
   <v>       0.00666667 </v>
   <v>       0.00666667 </v>
   <v>       0.00666667 </v>
   <v>       0.00666667 </v>
   <v>       0.00666667 </v>
   <v>       0.00666667 </v>
   <v>       0.00666667 </v>
   <v>       0.00666667 </v>
   <v>       0.00666667 </v>
   <v>       0.00666667 </v>
   <v>       0.00666667 </v>
   <v>       0.00666667 </v>
   <v>       0.00666667 </v>
   <v>       0.00666667 </v>
   <v>       0.00666667 </v>
   <v>       0.00666667 </v>
   <v>       0.00666667 </v>
   <v>       0.00666667 </v>
   <v>       0.00666667 </v>
   <v>       0.00666667 </v>
   <v>       0.00666667 </v>
   <v>       0.00666667 </v>
   <v>       0.00666667 </v>
   <v>       0.00666667 </v>
   <v>       0.00666667 </v>
   <v>       0.00666667 </v>
   <v>       0.00666667 </v>
   <v>       0.00666667 </v>
   <v>       0.00666667 </v>
   <v>       0.00666667 </v>
   <v>       0.00666667 </v>
   <v>       0.00666667 </v>
   <v>       0.00666667 </v>
   <v>       0.00666667 </v>
   <v>       0.00666667 </v>
   <v>       0.00666667 </v>
   <v>       0.00666667 </v>
   <v>       0.00666667 </v>
   <v>       0.00666667 </v>
   <v>       0.00666667 </v>
   <v>       0.00666667 </v>
   <v>       0.00666667 </v>
   <v>       0.00666667 </v>
   <v>       0.00666667 </v>
   <v>       0.00666667 </v>
   <v>       0.00666667 </v>
   <v>       0.00666667 </v>
   <v>       0.00666667 </v>
   <v>       0.00666667 </v>
   <v>       0.00666667 </v>
   <v>       0.00666667 </v>
   <v>       0.00666667 </v>
   <v>       0.00666667 </v>
   <v>       0.00666667 </v>
   <v>       0.00666667 </v>
   <v>       0.00666667 </v>
   <v>       0.00666667 </v>
   <v>       0.00666667 </v>
   <v>       0.00666667 </v>
   <v>       0.00666667 </v>
   <v>       0.00666667 </v>
   <v>       0.00666667 </v>
   <v>       0.00666667 </v>
   <v>       0.00666667 </v>
   <v>       0.00666667 </v>
   <v>       0.00666667 </v>
   <v>       0.00666667 </v>
   <v>       0.00666667 </v>
   <v>       0.00666667 </v>
   <v>       0.00666667 </v>
   <v>       0.00666667 </v>
   <v>       0.00666667 </v>
   <v>       0.00666667 </v>
   <v>       0.00666667 </v>
   <v>       0.00666667 </v>
   <v>       0.00666667 </v>
   <v>       0.00666667 </v>
   <v>       0.00666667 </v>
   <v>       0.00666667 </v>
   <v>       0.00666667 </v>
   <v>       0.00666667 </v>
   <v>       0.00666667 </v>
   <v>       0.00666667 </v>
   <v>       0.00666667 </v>
   <v>       0.00666667 </v>
   <v>       0.00666667 </v>
   <v>       0.00666667 </v>
   <v>       0.00666667 </v>
   <v>       0.00666667 </v>
   <v>       0.00666667 </v>
   <v>       0.00666667 </v>
   <v>       0.00666667 </v>
   <v>       0.00666667 </v>
   <v>       0.00666667 </v>
   <v>       0.00666667 </v>
   <v>       0.00666667 </v>
   <v>       0.00666667 </v>
   <v>       0.00666667 </v>
   <v>       0.00666667 </v>
   <v>       0.00666667 </v>
   <v>       0.00666667 </v>
   <v>       0.00666667 </v>
   <v>       0.00666667 </v>
   <v>       0.00666667 </v>
   <v>       0.00666667 </v>
   <v>       0.00666667 </v>
   <v>       0.00666667 </v>
   <v>       0.00666667 </v>
   <v>       0.00666667 </v>
   <v>       0.00666667 </v>
   <v>       0.00666667 </v>
   <v>       0.00666667 </v>
   <v>       0.00666667 </v>
   <v>       0.00666667 </v>
   <v>       0.00666667 </v>
   <v>       0.00666667 </v>
   <v>       0.00666667 </v>
   <v>       0.00666667 </v>
   <v>       0.00666667 </v>
   <v>       0.00666667 </v>
   <v>       0.00666667 </v>
   <v>       0.00666667 </v>
   <v>       0.00666667 </v>
   <v>       0.00666667 </v>
   <v>       0.00666667 </v>
  </varray>
  <kpoints_labels>
   <i name="G" type="int">       1 </i>
   <i name="K" type="int">       2 </i>
   <i name="K" type="int">       3 </i>
   <i name="K'" type="int">       4 </i>
   <i name="K'" type="int">       5 </i>
   <i name="G" type="int">       6 </i>
  </kpoints_labels>
 </kpoints>
 <parameters>
  <separator name="general" >
   <i type="string" name="SYSTEM">unknown system</i>
   <i type="logical" name="LCOMPAT"> F  </i>
  </separator>
  <separator name="electronic" >
   <i type="string" name="PREC">accura</i>
   <i name="ENMAX">    473.51475000</i>
   <i name="ENAUG">    904.64000000</i>
   <i name="EDIFF">      0.00000100</i>
   <i type="int" name="IALGO">    38</i>
   <i type="int" name="IWAVPR">    10</i>
   <i type="int" name="NBANDS">    16</i>
   <i type="int" name="NBANDSLOW">    -1</i>
   <i type="int" name="NBANDSHIGH">    -1</i>
   <i name="NELECT">     10.00000000</i>
   <i type="int" name="TURBO">     0</i>
   <i type="int" name="IRESTART">     0</i>
   <i type="int" name="NREBOOT">     0</i>
   <i type="int" name="NMIN">     0</i>
   <i name="EREF">      0.00000000</i>
   <separator name="electronic smearing" >
    <i type="int" name="ISMEAR">     0</i>
    <i name="SIGMA">      0.01000000</i>
    <i name="KSPACING">      0.50000000</i>
    <i type="logical" name="KGAMMA"> T  </i>
    <i type="logical" name="KBLOWUP"> T  </i>
   </separator>
   <separator name="electronic projectors" >
    <i type="logical" name="LREAL"> F  </i>
    <v name="ROPT">      0.00000000</v>
    <i type="int" name="LMAXPAW">  -100</i>
    <i type="int" name="LMAXMIX">     2</i>
    <i type="logical" name="NLSPLINE"> F  </i>
   </separator>
   <separator name="electronic startup" >
    <i type="int" name="ISTART">     0</i>
    <i type="int" name="ICHARG">    11</i>
    <i type="int" name="INIWAV">     1</i>
   </separator>
   <separator name="electronic spin" >
    <i type="int" name="ISPIN">     1</i>
    <i type="logical" name="LNONCOLLINEAR"> F  </i>
    <v name="MAGMOM">      1.00000000      1.00000000</v>
    <i name="NUPDOWN">     -1.00000000</i>
    <i type="logical" name="LSORBIT"> F  </i>
    <v name="SAXIS">      0.00000000      0.00000000      1.00000000</v>
    <i type="logical" name="LSPIRAL"> F  </i>
    <v name="QSPIRAL">      0.00000000      0.00000000      0.00000000</v>
    <i type="logical" name="LZEROZ"> F  </i>
   </separator>
   <separator name="electronic exchange-correlation" >
    <i type="logical" name="LASPH"> T  </i>
    <i type="logical" name="LMETAGGA"> F  </i>
   </separator>
   <separator name="electronic convergence" >
    <i type="int" name="NELM">   200</i>
    <i type="int" name="NELMDL">   -12</i>
    <i type="int" name="NELMIN">     6</i>
    <i name="ENINI">    473.51475000</i>
    <separator name="electronic convergence detail" >
     <i type="logical" name="LDIAG"> T  </i>
     <i type="logical" name="LSUBROT"> F  </i>
     <i name="WEIMIN">      0.00000000</i>
     <i name="EBREAK">      0.00000002</i>
     <i name="DEPER">      0.30000000</i>
     <i type="int" name="NRMM">     4</i>
     <i name="TIME">      0.40000000</i>
    </separator>
   </separator>
   <separator name="electronic mixer" >
    <i name="AMIX">      0.10000000</i>
    <i name="BMIX">      0.00010000</i>
    <i name="AMIN">      0.10000000</i>
    <i name="AMIX_MAG">      0.40000000</i>
    <i name="BMIX_MAG">      0.00010000</i>
    <separator name="electronic mixer details" >
     <i type="int" name="IMIX">     4</i>
     <i type="logical" name="MIXFIRST"> F  </i>
     <i type="int" name="MAXMIX">   -45</i>
     <i name="WC">    100.00000000</i>
     <i type="int" name="INIMIX">     1</i>
     <i type="int" name="MIXPRE">     1</i>
     <i type="int" name="MREMOVE">     5</i>
    </separator>
   </separator>
   <separator name="electronic dipolcorrection" >
    <i type="logical" name="LDIPOL"> F  </i>
    <i type="logical" name="LMONO"> F  </i>
    <i type="int" name="IDIPOL">     0</i>
    <i name="EPSILON">      1.00000000</i>
    <v name="DIPOL">   -100.00000000   -100.00000000   -100.00000000</v>
    <i name="EFIELD">      0.00000000</i>
   </separator>
  </separator>
  <separator name="grids" >
   <i type="int" name="NGX">    16</i>
   <i type="int" name="NGY">    16</i>
   <i type="int" name="NGZ">   120</i>
   <i type="int" name="NGXF">    32</i>
   <i type="int" name="NGYF">    32</i>
   <i type="int" name="NGZF">   240</i>
   <i type="logical" name="ADDGRID"> T  </i>
  </separator>
  <separator name="ionic" >
   <i type="int" name="NSW">     0</i>
   <i type="int" name="IBRION">    -1</i>
   <i type="int" name="MDALGO">     0</i>
   <i type="int" name="ISIF">    -1</i>
   <i name="PSTRESS">      0.00000000</i>
   <i name="EDIFFG">     -0.01000000</i>
   <i type="int" name="NFREE">     1</i>
   <i name="POTIM">      0.50000000</i>
   <i name="SMASS">     -3.00000000</i>
   <i name="SCALEE">      1.00000000</i>
  </separator>
  <separator name="ionic md" >
   <i name="TEBEG">      0.00010000</i>
   <i name="TEEND">      0.00010000</i>
   <i type="int" name="NBLOCK">     1</i>
   <i type="int" name="KBLOCK">     1</i>
   <i type="int" name="NPACO">   256</i>
   <i name="APACO">     10.00000000</i>
  </separator>
  <separator name="symmetry" >
   <i type="int" name="ISYM">     2</i>
   <i name="SYMPREC">      0.00001000</i>
  </separator>
  <separator name="dos" >
   <i type="int" name="LORBIT">    10</i>
   <v name="RWIGS">     -1.00000000</v>
   <i type="int" name="NEDOS">  6001</i>
   <i name="EMIN">     10.00000000</i>
   <i name="EMAX">    -10.00000000</i>
   <i name="EFERMI">      0.00000000</i>
  </separator>
  <separator name="writing" >
   <i type="int" name="NWRITE">     1</i>
   <i type="logical" name="LWAVE"> F  </i>
   <i type="logical" name="LDOWNSAMPLE"> F  </i>
   <i type="logical" name="LCHARG"> F  </i>
   <i type="logical" name="LPARD"> F  </i>
   <i type="logical" name="LVTOT"> F  </i>
   <i type="logical" name="LVHAR"> F  </i>
   <i type="logical" name="LELF"> F  </i>
   <i type="logical" name="LOPTICS"> F  </i>
   <v name="STM">      0.00000000      0.00000000      0.00000000      0.00000000      0.00000000      0.00000000      0.00000000</v>
  </separator>
  <separator name="performance" >
   <i type="int" name="NPAR">     4</i>
   <i type="int" name="NSIM">     4</i>
   <i type="int" name="NBLK">    -1</i>
   <i type="logical" name="LPLANE"> T  </i>
   <i type="logical" name="LSCALAPACK"> T  </i>
   <i type="logical" name="LSCAAWARE"> F  </i>
   <i type="logical" name="LSCALU"> F  </i>
   <i type="logical" name="LASYNC"> F  </i>
   <i type="logical" name="LORBITALREAL"> F  </i>
  </separator>
  <separator name="miscellaneous" >
   <i type="int" name="IDIOT">     3</i>
   <i type="int" name="PHON_NSTRUCT">    -1</i>
   <i type="logical" name="LMUSIC"> F  </i>
   <v name="POMASS">     14.00100000</v>
   <v name="DARWINR">      0.00000000</v>
   <v name="DARWINV">      1.00000000</v>
   <i type="logical" name="LCORR"> T  </i>
  </separator>
  <i type="logical" name="GGA_COMPAT"> T  </i>
  <i type="logical" name="LBERRY"> F  </i>
  <i type="int" name="ICORELEVEL">     0</i>
  <i type="logical" name="LDAU"> F  </i>
  <i type="int" name="I_CONSTRAINED_M">     0</i>
  <separator name="electronic exchange-correlation" >
   <i type="string" name="GGA">--</i>
   <i type="int" name="VOSKOWN">     0</i>
   <i type="logical" name="LHFCALC"> F  </i>
   <i type="string" name="PRECFOCK"></i>
   <i type="logical" name="LSYMGRAD"> F  </i>
   <i type="logical" name="LHFONE"> F  </i>
   <i type="logical" name="LRHFCALC"> F  </i>
   <i type="logical" name="LTHOMAS"> F  </i>
   <i type="logical" name="LMODELHF"> F  </i>
   <i type="logical" name="LFOCKACE"> F  </i>
   <i name="ENCUT4O">     -1.00000000</i>
   <i type="int" name="EXXOEP">     0</i>
   <i type="int" name="FOURORBIT">     0</i>
   <i name="AEXX">      0.00000000</i>
   <i name="HFALPHA">      0.00000000</i>
   <i name="MCALPHA">      0.00000000</i>
   <i name="ALDAX">      1.00000000</i>
   <i name="AGGAX">      1.00000000</i>
   <i name="ALDAC">      1.00000000</i>
   <i name="AGGAC">      1.00000000</i>
   <i type="int" name="NKREDX">     1</i>
   <i type="int" name="NKREDY">     1</i>
   <i type="int" name="NKREDZ">     1</i>
   <i type="logical" name="SHIFTRED"> F  </i>
   <i type="logical" name="ODDONLY"> F  </i>
   <i type="logical" name="EVENONLY"> F  </i>
   <i type="int" name="LMAXFOCK">     0</i>
   <i type="int" name="NMAXFOCKAE">     0</i>
   <i type="logical" name="LFOCKAEDFT"> F  </i>
   <i name="HFSCREEN">      0.00000000</i>
   <i name="HFSCREENC">      0.00000000</i>
   <i type="int" name="NBANDSGWLOW">     0</i>
  </separator>
  <separator name="vdW DFT" >
   <i type="logical" name="LUSE_VDW"> F  </i>
   <i type="int" name="IVDW_NL">     1</i>
   <i type="logical" name="LSPIN_VDW"> F  </i>
   <i name="Zab_VDW">     -0.84910000</i>
   <i name="PARAM1">      0.12340000</i>
   <i name="PARAM2">      1.00000000</i>
   <i name="PARAM3">      0.00000000</i>
  </separator>
  <separator name="model GW" >
   <i type="int" name="MODEL_GW">     0</i>
   <i name="MODEL_EPS0">     21.88504586</i>
   <i name="MODEL_ALPHA">      1.00000000</i>
  </separator>
  <separator name="linear response parameters" >
   <i type="logical" name="LEPSILON"> F  </i>
   <i type="logical" name="LRPA"> F  </i>
   <i type="logical" name="LNABLA"> F  </i>
   <i type="logical" name="LVEL"> F  </i>
   <i name="CSHIFT">      0.10000000</i>
   <i name="OMEGAMAX">     -1.00000000</i>
   <i name="DEG_THRESHOLD">      0.00200000</i>
   <i name="RTIME">     -0.10000000</i>
   <i name="WPLASMAI">      0.00000000</i>
   <v name="DFIELD">      0.00000000      0.00000000      0.00000000</v>
   <v name="WPLASMA">      0.00000000      0.00000000      0.00000000      0.00000000      0.00000000      0.00000000      0.00000000      0.00000000      0.00000000</v>
  </separator>
  <separator name="orbital magnetization" >
   <i type="logical" name="NUCIND"> F  </i>
   <v name="MAGPOS">      0.00000000      0.00000000      0.00000000</v>
   <i type="logical" name="LNICSALL"> T  </i>
   <i type="logical" name="ORBITALMAG"> F  </i>
   <i type="logical" name="LMAGBLOCH"> F  </i>
   <i type="logical" name="LCHIMAG"> F  </i>
   <i type="logical" name="LGAUGE"> T  </i>
   <i type="int" name="MAGATOM">     0</i>
   <v name="MAGDIPOL">      0.00000000      0.00000000      0.00000000</v>
   <v name="AVECCONST">      0.00000000      0.00000000      0.00000000</v>
  </separator>
  <separator name="response functions" >
   <i type="logical" name="LALL_IN_ONE"> F  </i>
   <i type="int" name="IALL_IN_ONE">    -1</i>
   <i type="int" name="NBANDS_WAVE">    -1</i>
   <i type="logical" name="LFINITE_TEMPERATURE"> F  </i>
   <i type="logical" name="LADDER"> F  </i>
   <i type="logical" name="LRPAFORCE"> F  </i>
   <i type="logical" name="LFXC"> F  </i>
   <i type="logical" name="LHARTREE"> T  </i>
   <i type="int" name="IBSE">     0</i>
   <v type="int" name="KPOINT">    -1     0     0     0</v>
   <i type="logical" name="LTCTC"> F  </i>
   <i type="logical" name="LTCTE"> F  </i>
   <i type="logical" name="LTETE"> F  </i>
   <i type="logical" name="LTRIPLET"> F  </i>
   <i type="logical" name="LFXCEPS"> F  </i>
   <i type="logical" name="LFXHEG"> F  </i>
   <i type="int" name="NATURALO">     2</i>
   <i type="logical" name="LHOLEGF"> F  </i>
   <i type="logical" name="L2ORDER"> F  </i>
   <i type="logical" name="LDMP1"> F  </i>
   <i type="logical" name="LMP2LT"> F  </i>
   <i type="logical" name="LSMP2LT"> F  </i>
   <i type="logical" name="LGWLF"> F  </i>
   <i name="ENCUTGW">     -1.60000002</i>
   <i name="ENCUTGWSOFT">     -1.60000002</i>
   <i name="ENCUTLF">     -1.00000000</i>
   <i type="logical" name="LESF_SPLINES"> F  </i>
   <i type="int" name="LMAXMP2">    -1</i>
   <i name="SCISSOR">      0.00000000</i>
   <i type="int" name="NOMEGA">     0</i>
   <i type="int" name="NOMEGAR">     0</i>
   <i type="int" name="NBANDSGW">    -1</i>
   <i type="int" name="NBANDSO">    -1</i>
   <i type="int" name="NBANDSV">    -1</i>
   <i type="int" name="NELMGW">     1</i>
   <i type="int" name="NELMHF">     1</i>
   <i type="int" name="DIM">     3</i>
   <i type="int" name="IESPILON">     4</i>
   <i type="int" name="ANTIRES">     0</i>
   <i name="OMEGAMAX">    -30.00000000</i>
   <i name="OMEGAMIN">    -30.00000000</i>
   <i name="OMEGATL">   -200.00000000</i>
   <i type="int" name="OMEGAGRID">     0</i>
   <i name="CSHIFT">     -0.10000000</i>
   <i type="logical" name="LSELFENERGY"> F  </i>
   <i type="logical" name="LSPECTRAL"> F  </i>
   <i type="logical" name="LSPECTRALGW"> F  </i>
   <i type="logical" name="LSINGLES"> F  </i>
   <i type="logical" name="LFERMIGW"> F  </i>
   <i type="logical" name="ODDONLYGW"> F  </i>
   <i type="logical" name="EVENONLYGW"> F  </i>
   <i type="int" name="NKREDLFX">     1</i>
   <i type="int" name="NKREDLFY">     1</i>
   <i type="int" name="NKREDLFZ">     1</i>
   <i type="int" name="MAXMEM">  2800</i>
   <i type="int" name="TELESCOPE">     0</i>
   <i type="int" name="NTAUPAR">    -1</i>
   <i type="int" name="NOMEGAPAR">    -1</i>
   <i name="DAMP_NEWTON">      0.80000001</i>
   <i name="LAMBDA">      1.00000000</i>
  </separator>
  <separator name="External order field" >
   <i name="OFIELD_KAPPA">      0.00000000</i>
   <v name="OFIELD_K">      0.00000000      0.00000000      0.00000000</v>
   <i name="OFIELD_Q6_NEAR">      0.00000000</i>
   <i name="OFIELD_Q6_FAR">      0.00000000</i>
   <i name="OFIELD_A">      0.00000000</i>
  </separator>
  <separator name="optional k-points parameters" >
   <i type="int" name="KPOINTS_OPT_MODE">     1</i>
   <i type="logical" name="LKPOINTS_OPT"> F  </i>
  </separator>
 </parameters>
 <atominfo>
  <atoms>       2 </atoms>
  <types>       1 </types>
  <array name="atoms" >
   <dimension dim="1">ion</dimension>
   <field type="string">element</field>
   <field type="int">atomtype</field>
   <set>
    <rc><c>N </c><c>   1</c></rc>
    <rc><c>N </c><c>   1</c></rc>
   </set>
  </array>
  <array name="atomtypes" >
   <dimension dim="1">type</dimension>
   <field type="int">atomspertype</field>
   <field type="string">element</field>
   <field>mass</field>
   <field>valence</field>
   <field type="string">pseudopotential</field>
   <set>
    <rc><c>   2</c><c>N </c><c>     14.00100000</c><c>      5.00000000</c><c>  PAW_PBE N_GW 10Apr2007                </c></rc>
   </set>
  </array>
 </atominfo>
 <structure name="initialpos" >
  <crystal>
   <varray name="basis" >
    <v>       2.29449859       0.00000000       0.00000000 </v>
    <v>      -1.14724930       1.98709407       0.00000000 </v>
    <v>       0.00000000       0.00000000      16.00000000 </v>
   </varray>
   <i name="volume">     72.95015287 </i>
   <varray name="rec_basis" >
    <v>       0.43582507       0.25162372       0.00000000 </v>
    <v>       0.00000000       0.50324744       0.00000000 </v>
    <v>       0.00000000       0.00000000       0.06250000 </v>
   </varray>
  </crystal>
  <varray name="positions" >
   <v>       0.66666667       0.33333333       0.47822185 </v>
   <v>       0.33333333       0.66666667       0.52177815 </v>
  </varray>
 </structure>
 <calculation>
  <scstep>
   <time name="dav">    1.24    1.24</time>
   <time name="total">    1.36    1.43</time>
   <energy>
    <i name="alphaZ">      5.96913924 </i>
    <i name="ewald">   1610.65328944 </i>
    <i name="hartreedc">  -2051.53366086 </i>
    <i name="XCdc">     40.83880616 </i>
    <i name="pawpsdc">    530.72780874 </i>
    <i name="pawaedc">   -533.14038655 </i>
    <i name="eentropy">     -0.00000684 </i>
    <i name="bandstr">    -62.13805019 </i>
    <i name="atom">    529.06779047 </i>
    <i name="e_fr_energy">     70.44472960 </i>
    <i name="e_wo_entrp">     70.44473644 </i>
    <i name="e_0_energy">     70.44473302 </i>
   </energy>
  </scstep>
  <scstep>
   <time name="dav">    1.68    1.68</time>
   <time name="total">    1.68    1.68</time>
   <energy>
    <i name="e_fr_energy">     -9.50589806 </i>
    <i name="e_wo_entrp">     -9.50589806 </i>
    <i name="e_0_energy">     -9.50589806 </i>
   </energy>
  </scstep>
  <scstep>
   <time name="dav">    1.46    1.46</time>
   <time name="total">    1.47    1.47</time>
   <energy>
    <i name="e_fr_energy">    -13.45588748 </i>
    <i name="e_wo_entrp">    -13.45588748 </i>
    <i name="e_0_energy">    -13.45588748 </i>
   </energy>
  </scstep>
  <scstep>
   <time name="dav">    1.55    1.55</time>
   <time name="total">    1.55    1.55</time>
   <energy>
    <i name="e_fr_energy">    -13.48351591 </i>
    <i name="e_wo_entrp">    -13.48351591 </i>
    <i name="e_0_energy">    -13.48351591 </i>
   </energy>
  </scstep>
  <scstep>
   <time name="dav">    1.68    1.68</time>
   <time name="total">    1.68    1.68</time>
   <energy>
    <i name="e_fr_energy">    -13.48382134 </i>
    <i name="e_wo_entrp">    -13.48382134 </i>
    <i name="e_0_energy">    -13.48382134 </i>
   </energy>
  </scstep>
  <scstep>
   <time name="dav">    1.67    1.67</time>
   <time name="total">    1.67    1.68</time>
   <energy>
    <i name="e_fr_energy">    -13.48382699 </i>
    <i name="e_wo_entrp">    -13.48382699 </i>
    <i name="e_0_energy">    -13.48382699 </i>
   </energy>
  </scstep>
  <scstep>
   <time name="dav">    1.68    1.68</time>
   <time name="total">    1.68    1.69</time>
   <energy>
    <i name="e_fr_energy">    -13.48382707 </i>
    <i name="e_wo_entrp">    -13.48382707 </i>
    <i name="e_0_energy">    -13.48382707 </i>
   </energy>
  </scstep>
  <scstep>
   <time name="dav">    1.28    1.28</time>
   <time name="total">    1.29    1.29</time>
   <energy>
    <i name="e_fr_energy">    -13.48382707 </i>
    <i name="e_wo_entrp">    -13.48382707 </i>
    <i name="e_0_energy">    -13.48382707 </i>
   </energy>
  </scstep>
  <scstep>
   <time name="dav">    1.08    1.09</time>
   <time name="total">    1.09    1.09</time>
   <energy>
    <i name="e_fr_energy">    -13.48382707 </i>
    <i name="e_wo_entrp">    -13.48382707 </i>
    <i name="e_0_energy">    -13.48382707 </i>
   </energy>
  </scstep>
  <scstep>
   <time name="dav">    0.68    0.69</time>
   <time name="total">    0.69    0.69</time>
   <energy>
    <i name="e_fr_energy">    -13.48382707 </i>
    <i name="e_wo_entrp">    -13.48382707 </i>
    <i name="e_0_energy">    -13.48382707 </i>
   </energy>
  </scstep>
  <scstep>
   <time name="dav">    0.67    0.67</time>
   <time name="total">    0.67    0.67</time>
   <energy>
    <i name="e_fr_energy">    -13.48382707 </i>
    <i name="e_wo_entrp">    -13.48382707 </i>
    <i name="e_0_energy">    -13.48382707 </i>
   </energy>
  </scstep>
  <scstep>
   <time name="dav">    0.64    0.64</time>
   <time name="total">    0.64    0.64</time>
   <energy>
    <i name="e_fr_energy">    -13.48382707 </i>
    <i name="e_wo_entrp">    -13.48382707 </i>
    <i name="e_0_energy">    -13.48382707 </i>
   </energy>
  </scstep>
  <scstep>
   <time name="dav">    0.62    0.62</time>
   <time name="total">    0.62    0.63</time>
   <energy>
    <i name="alphaZ">      5.96913924 </i>
    <i name="ewald">   1610.65328944 </i>
    <i name="hartreedc">  -2051.53366086 </i>
    <i name="XCdc">     40.83880616 </i>
    <i name="pawpsdc">    530.72780874 </i>
    <i name="pawaedc">   -533.14038655 </i>
    <i name="eentropy">     -0.00000000 </i>
    <i name="bandstr">   -146.06661371 </i>
    <i name="atom">    529.06779047 </i>
    <i name="e_fr_energy">    -13.48382707 </i>
    <i name="e_wo_entrp">    -13.48382707 </i>
    <i name="e_0_energy">    -13.48382707 </i>
   </energy>
  </scstep>
  <structure>
   <crystal>
    <varray name="basis" >
     <v>       2.29449859       0.00000000       0.00000000 </v>
     <v>      -1.14724930       1.98709407       0.00000000 </v>
     <v>       0.00000000       0.00000000      16.00000000 </v>
    </varray>
    <i name="volume">     72.95015287 </i>
    <varray name="rec_basis" >
     <v>       0.43582507       0.25162372       0.00000000 </v>
     <v>       0.00000000       0.50324744       0.00000000 </v>
     <v>       0.00000000       0.00000000       0.06250000 </v>
    </varray>
   </crystal>
   <varray name="positions" >
    <v>       0.66666667       0.33333333       0.47822185 </v>
    <v>       0.33333333       0.66666667       0.52177815 </v>
   </varray>
  </structure>
  <varray name="forces" >
   <v>       0.00000000       0.00000000       0.00000000 </v>
   <v>       0.00000000       0.00000000       0.00000000 </v>
  </varray>
  <varray name="stress" >
   <v>       0.00000000       0.00000000       0.00000000 </v>
   <v>       0.00000000       0.00000000       0.00000000 </v>
   <v>       0.00000000       0.00000000       0.00000000 </v>
  </varray>
  <energy>
   <i name="e_fr_energy">    -13.48382707 </i>
   <i name="e_wo_entrp">    -13.48382707 </i>
   <i name="e_0_energy">    -13.48382707 </i>
  </energy>
  <time name="totalsc">   16.10   16.39</time>
  <eigenvalues>
   <array>
    <dimension dim="1">band</dimension>
    <dimension dim="2">kpoint</dimension>
    <dimension dim="3">spin</dimension>
    <field>eigene</field>
    <field>occ</field>
    <set>
     <set comment="spin 1">
      <set comment="kpoint 1">
       <r>  -30.0393    1.0000 </r>
       <r>  -14.5035    1.0000 </r>
       <r>   -8.3950    1.0000 </r>
       <r>   -8.3950    1.0000 </r>
       <r>   -5.6326    1.0000 </r>
       <r>   -0.0374    0.0000 </r>
       <r>   -0.0374    0.0000 </r>
       <r>    0.3126    0.0000 </r>
       <r>    2.0781    0.0000 </r>
       <r>    2.2323    0.0000 </r>
       <r>    3.3123    0.0000 </r>
       <r>    4.3011    0.0000 </r>
       <r>    6.1186    0.0000 </r>
       <r>    7.7309    0.0000 </r>
       <r>   10.1306    0.0000 </r>
       <r>   12.5199    0.0000 </r>
      </set>
      <set comment="kpoint 2">
       <r>  -30.0352    1.0000 </r>
       <r>  -14.4998    1.0000 </r>
       <r>   -8.4184    1.0000 </r>
       <r>   -8.4023    1.0000 </r>
       <r>   -5.6307    1.0000 </r>
       <r>   -0.0381    0.0000 </r>
       <r>   -0.0297    0.0000 </r>
       <r>    0.3267    0.0000 </r>
       <r>    2.0833    0.0000 </r>
       <r>    2.2374    0.0000 </r>
       <r>    3.3173    0.0000 </r>
       <r>    4.3063    0.0000 </r>
       <r>    6.1231    0.0000 </r>
       <r>    7.7360    0.0000 </r>
       <r>   10.1345    0.0000 </r>
       <r>   12.5246    0.0000 </r>
      </set>
      <set comment="kpoint 3">
       <r>  -30.0232    1.0000 </r>
       <r>  -14.4887    1.0000 </r>
       <r>   -8.4874    1.0000 </r>
       <r>   -8.4239    1.0000 </r>
       <r>   -5.6247    1.0000 </r>
       <r>   -0.0399    0.0000 </r>
       <r>   -0.0085    0.0000 </r>
       <r>    0.3705    0.0000 </r>
       <r>    2.0989    0.0000 </r>
       <r>    2.2526    0.0000 </r>
       <r>    3.3321    0.0000 </r>
       <r>    4.3217    0.0000 </r>
       <r>    6.1367    0.0000 </r>
       <r>    7.7510    0.0000 </r>
       <r>   10.1463    0.0000 </r>
       <r>   12.5387    0.0000 </r>
      </set>
      <set comment="kpoint 4">
       <r>  -30.0032    1.0000 </r>
       <r>  -14.4703    1.0000 </r>
       <r>   -8.5999    1.0000 </r>
       <r>   -8.4599    1.0000 </r>
       <r>   -5.6149    1.0000 </r>
       <r>   -0.0429    0.0000 </r>
       <r>    0.0207    0.0000 </r>
       <r>    0.4467    0.0000 </r>
       <r>    2.1248    0.0000 </r>
       <r>    2.2779    0.0000 </r>
       <r>    3.3568    0.0000 </r>
       <r>    4.3475    0.0000 </r>
       <r>    6.1594    0.0000 </r>
       <r>    7.7761    0.0000 </r>
       <r>   10.1659    0.0000 </r>
       <r>   12.5622    0.0000 </r>
      </set>
      <set comment="kpoint 5">
       <r>  -29.9753    1.0000 </r>
       <r>  -14.4446    1.0000 </r>
       <r>   -8.7524    1.0000 </r>
       <r>   -8.5105    1.0000 </r>
       <r>   -5.6013    1.0000 </r>
       <r>   -0.0465    0.0000 </r>
       <r>    0.0532    0.0000 </r>
       <r>    0.5561    0.0000 </r>
       <r>    2.1610    0.0000 </r>
       <r>    2.3133    0.0000 </r>
       <r>    3.3915    0.0000 </r>
       <r>    4.3836    0.0000 </r>
       <r>    6.1911    0.0000 </r>
       <r>    7.8111    0.0000 </r>
       <r>   10.1933    0.0000 </r>
       <r>   12.5950    0.0000 </r>
      </set>
      <set comment="kpoint 6">
       <r>  -29.9392    1.0000 </r>
       <r>  -14.4115    1.0000 </r>
       <r>   -8.9409    1.0000 </r>
       <r>   -8.5749    1.0000 </r>
       <r>   -5.5840    1.0000 </r>
       <r>   -0.0506    0.0000 </r>
       <r>    0.0872    0.0000 </r>
       <r>    0.6964    0.0000 </r>
       <r>    2.2076    0.0000 </r>
       <r>    2.3589    0.0000 </r>
       <r>    3.4360    0.0000 </r>
       <r>    4.4300    0.0000 </r>
       <r>    6.2318    0.0000 </r>
       <r>    7.8562    0.0000 </r>
       <r>   10.2284    0.0000 </r>
       <r>   12.6372    0.0000 </r>
      </set>
      <set comment="kpoint 7">
       <r>  -29.8952    1.0000 </r>
       <r>  -14.3714    1.0000 </r>
       <r>   -9.1607    1.0000 </r>
       <r>   -8.6533    1.0000 </r>
       <r>   -5.5633    1.0000 </r>
       <r>   -0.0546    0.0000 </r>
       <r>    0.1223    0.0000 </r>
       <r>    0.8624    0.0000 </r>
       <r>    2.2646    0.0000 </r>
       <r>    2.4145    0.0000 </r>
       <r>    3.4904    0.0000 </r>
       <r>    4.4866    0.0000 </r>
       <r>    6.2815    0.0000 </r>
       <r>    7.9112    0.0000 </r>
       <r>   10.2712    0.0000 </r>
       <r>   12.6885    0.0000 </r>
      </set>
      <set comment="kpoint 8">
       <r>  -29.8432    1.0000 </r>
       <r>  -14.3238    1.0000 </r>
       <r>   -9.4072    1.0000 </r>
       <r>   -8.7453    1.0000 </r>
       <r>   -5.5392    1.0000 </r>
       <r>   -0.0580    0.0000 </r>
       <r>    0.1594    0.0000 </r>
       <r>    1.0483    0.0000 </r>
       <r>    2.3318    0.0000 </r>
       <r>    2.4801    0.0000 </r>
       <r>    3.5547    0.0000 </r>
       <r>    4.5536    0.0000 </r>
       <r>    6.3402    0.0000 </r>
       <r>    7.9762    0.0000 </r>
       <r>   10.3216    0.0000 </r>
       <r>   12.7490    0.0000 </r>
      </set>
      <set comment="kpoint 9">
       <r>  -29.7833    1.0000 </r>
       <r>  -14.2694    1.0000 </r>
       <r>   -9.6774    1.0000 </r>
       <r>   -8.8510    1.0000 </r>
       <r>   -5.5126    1.0000 </r>
       <r>   -0.0604    0.0000 </r>
       <r>    0.1988    0.0000 </r>
       <r>    1.2483    0.0000 </r>
       <r>    2.4093    0.0000 </r>
       <r>    2.5558    0.0000 </r>
       <r>    3.6289    0.0000 </r>
       <r>    4.6307    0.0000 </r>
       <r>    6.4079    0.0000 </r>
       <r>    8.0512    0.0000 </r>
       <r>   10.3795    0.0000 </r>
       <r>   12.8186    0.0000 </r>
      </set>
      <set comment="kpoint 10">
       <r>  -29.7155    1.0000 </r>
       <r>  -14.2081    1.0000 </r>
       <r>   -9.9662    1.0000 </r>
       <r>   -8.9699    1.0000 </r>
       <r>   -5.4834    1.0000 </r>
       <r>   -0.0611    0.0000 </r>
       <r>    0.2413    0.0000 </r>
       <r>    1.4571    0.0000 </r>
       <r>    2.4970    0.0000 </r>
       <r>    2.6415    0.0000 </r>
       <r>    3.7129    0.0000 </r>
       <r>    4.7182    0.0000 </r>
       <r>    6.4844    0.0000 </r>
       <r>    8.1360    0.0000 </r>
       <r>   10.4447    0.0000 </r>
       <r>   12.8971    0.0000 </r>
      </set>
      <set comment="kpoint 11">
       <r>  -29.6397    1.0000 </r>
       <r>  -14.1401    1.0000 </r>
       <r>  -10.2698    1.0000 </r>
       <r>   -9.1014    1.0000 </r>
       <r>   -5.4524    1.0000 </r>
       <r>   -0.0593    0.0000 </r>
       <r>    0.2869    0.0000 </r>
       <r>    1.6699    0.0000 </r>
       <r>    2.5948    0.0000 </r>
       <r>    2.7372    0.0000 </r>
       <r>    3.8068    0.0000 </r>
       <r>    4.8158    0.0000 </r>
       <r>    6.5699    0.0000 </r>
       <r>    8.2308    0.0000 </r>
       <r>   10.5172    0.0000 </r>
       <r>   12.9845    0.0000 </r>
      </set>
      <set comment="kpoint 12">
       <r>  -29.5561    1.0000 </r>
       <r>  -14.0658    1.0000 </r>
       <r>  -10.5857    1.0000 </r>
       <r>   -9.2449    1.0000 </r>
       <r>   -5.4198    1.0000 </r>
       <r>   -0.0546    0.0000 </r>
       <r>    0.3358    0.0000 </r>
       <r>    1.8825    0.0000 </r>
       <r>    2.7026    0.0000 </r>
       <r>    2.8428    0.0000 </r>
       <r>    3.9105    0.0000 </r>
       <r>    4.9237    0.0000 </r>
       <r>    6.6643    0.0000 </r>
       <r>    8.3354    0.0000 </r>
       <r>   10.5969    0.0000 </r>
       <r>   13.0805    0.0000 </r>
      </set>
      <set comment="kpoint 13">
       <r>  -29.4647    1.0000 </r>
       <r>  -13.9860    1.0000 </r>
       <r>  -10.9103    1.0000 </r>
       <r>   -9.4001    1.0000 </r>
       <r>   -5.3866    1.0000 </r>
       <r>   -0.0463    0.0000 </r>
       <r>    0.3879    0.0000 </r>
       <r>    2.0909    0.0000 </r>
       <r>    2.8203    0.0000 </r>
       <r>    2.9584    0.0000 </r>
       <r>    4.0242    0.0000 </r>
       <r>    5.0419    0.0000 </r>
       <r>    6.7675    0.0000 </r>
       <r>    8.4498    0.0000 </r>
       <r>   10.6837    0.0000 </r>
       <r>   13.1851    0.0000 </r>
      </set>
      <set comment="kpoint 14">
       <r>  -29.3655    1.0000 </r>
       <r>  -13.9007    1.0000 </r>
       <r>  -11.2407    1.0000 </r>
       <r>   -9.5661    1.0000 </r>
       <r>   -5.3531    1.0000 </r>
       <r>   -0.0336    0.0000 </r>
       <r>    0.4432    0.0000 </r>
       <r>    2.2920    0.0000 </r>
       <r>    2.9478    0.0000 </r>
       <r>    3.0838    0.0000 </r>
       <r>    4.1476    0.0000 </r>
       <r>    5.1702    0.0000 </r>
       <r>    6.8795    0.0000 </r>
       <r>    8.5741    0.0000 </r>
       <r>   10.7774    0.0000 </r>
       <r>   13.2980    0.0000 </r>
      </set>
      <set comment="kpoint 15">
       <r>  -29.2585    1.0000 </r>
       <r>  -13.8117    1.0000 </r>
       <r>  -11.5739    1.0000 </r>
       <r>   -9.7425    1.0000 </r>
       <r>   -5.3200    1.0000 </r>
       <r>   -0.0161    0.0000 </r>
       <r>    0.5016    0.0000 </r>
       <r>    2.4826    0.0000 </r>
       <r>    3.0852    0.0000 </r>
       <r>    3.2191    0.0000 </r>
       <r>    4.2810    0.0000 </r>
       <r>    5.3088    0.0000 </r>
       <r>    7.0003    0.0000 </r>
       <r>    8.7082    0.0000 </r>
       <r>   10.8779    0.0000 </r>
       <r>   13.4192    0.0000 </r>
      </set>
      <set comment="kpoint 16">
       <r>  -29.1437    1.0000 </r>
       <r>  -13.7214    1.0000 </r>
       <r>  -11.9061    1.0000 </r>
       <r>   -9.9288    1.0000 </r>
       <r>   -5.2883    1.0000 </r>
       <r>    0.0068    0.0000 </r>
       <r>    0.5627    0.0000 </r>
       <r>    2.6599    0.0000 </r>
       <r>    3.2325    0.0000 </r>
       <r>    3.3642    0.0000 </r>
       <r>    4.4243    0.0000 </r>
       <r>    5.4577    0.0000 </r>
       <r>    7.1299    0.0000 </r>
       <r>    8.8521    0.0000 </r>
       <r>   10.9851    0.0000 </r>
       <r>   13.5484    0.0000 </r>
      </set>
      <set comment="kpoint 17">
       <r>  -29.0212    1.0000 </r>
       <r>  -13.6352    1.0000 </r>
       <r>  -12.2299    1.0000 </r>
       <r>  -10.1236    1.0000 </r>
       <r>   -5.2586    1.0000 </r>
       <r>    0.0359    0.0000 </r>
       <r>    0.6264    0.0000 </r>
       <r>    2.8215    0.0000 </r>
       <r>    3.3900    0.0000 </r>
       <r>    3.5191    0.0000 </r>
       <r>    4.5774    0.0000 </r>
       <r>    5.6168    0.0000 </r>
       <r>    7.2682    0.0000 </r>
       <r>    9.0058    0.0000 </r>
       <r>   11.0990    0.0000 </r>
       <r>   13.6854    0.0000 </r>
      </set>
      <set comment="kpoint 18">
       <r>  -28.8911    1.0000 </r>
       <r>  -13.5673    1.0000 </r>
       <r>  -12.5310    1.0000 </r>
       <r>  -10.3267    1.0000 </r>
       <r>   -5.2320    1.0000 </r>
       <r>    0.0716    0.0000 </r>
       <r>    0.6922    0.0000 </r>
       <r>    2.9651    0.0000 </r>
       <r>    3.5581    0.0000 </r>
       <r>    3.6836    0.0000 </r>
       <r>    4.7404    0.0000 </r>
       <r>    5.7863    0.0000 </r>
       <r>    7.4153    0.0000 </r>
       <r>    9.1693    0.0000 </r>
       <r>   11.2195    0.0000 </r>
       <r>   13.8301    0.0000 </r>
      </set>
      <set comment="kpoint 19">
       <r>  -28.7534    1.0000 </r>
       <r>  -13.5557    1.0000 </r>
       <r>  -12.7698    1.0000 </r>
       <r>  -10.5371    1.0000 </r>
       <r>   -5.2093    1.0000 </r>
       <r>    0.1146    0.0000 </r>
       <r>    0.7597    0.0000 </r>
       <r>    3.0893    0.0000 </r>
       <r>    3.7371    0.0000 </r>
       <r>    3.8579    0.0000 </r>
       <r>    4.9134    0.0000 </r>
       <r>    5.9661    0.0000 </r>
       <r>    7.5711    0.0000 </r>
       <r>    9.3426    0.0000 </r>
       <r>   11.3465    0.0000 </r>
       <r>   13.9820    0.0000 </r>
      </set>
      <set comment="kpoint 20">
       <r>  -28.6082    1.0000 </r>
       <r>  -13.6690    1.0000 </r>
       <r>  -12.8769    1.0000 </r>
       <r>  -10.7537    1.0000 </r>
       <r>   -5.1912    1.0000 </r>
       <r>    0.1655    0.0000 </r>
       <r>    0.8284    0.0000 </r>
       <r>    3.1933    0.0000 </r>
       <r>    3.9271    0.0000 </r>
       <r>    4.0417    0.0000 </r>
       <r>    5.0963    0.0000 </r>
       <r>    6.1563    0.0000 </r>
       <r>    7.7358    0.0000 </r>
       <r>    9.5257    0.0000 </r>
       <r>   11.4801    0.0000 </r>
       <r>   14.1411    0.0000 </r>
      </set>
      <set comment="kpoint 21">
       <r>  -28.4555    1.0000 </r>
       <r>  -13.9088    1.0000 </r>
       <r>  -12.8507    1.0000 </r>
       <r>  -10.9766    1.0000 </r>
       <r>   -5.1790    1.0000 </r>
       <r>    0.2247    0.0000 </r>
       <r>    0.8975    0.0000 </r>
       <r>    3.2769    0.0000 </r>
       <r>    4.1279    0.0000 </r>
       <r>    4.2351    0.0000 </r>
       <r>    5.2892    0.0000 </r>
       <r>    6.3569    0.0000 </r>
       <r>    7.9092    0.0000 </r>
       <r>    9.7186    0.0000 </r>
       <r>   11.6201    0.0000 </r>
       <r>   14.3067    0.0000 </r>
      </set>
      <set comment="kpoint 22">
       <r>  -28.2955    1.0000 </r>
       <r>  -14.2082    1.0000 </r>
       <r>  -12.7566    1.0000 </r>
       <r>  -11.2040    1.0000 </r>
       <r>   -5.1732    1.0000 </r>
       <r>    0.2927    0.0000 </r>
       <r>    0.9665    0.0000 </r>
       <r>    3.3406    0.0000 </r>
       <r>    4.3392    0.0000 </r>
       <r>    4.4379    0.0000 </r>
       <r>    5.4920    0.0000 </r>
       <r>    6.5678    0.0000 </r>
       <r>    8.0914    0.0000 </r>
       <r>    9.9212    0.0000 </r>
       <r>   11.7668    0.0000 </r>
       <r>   14.4785    0.0000 </r>
      </set>
      <set comment="kpoint 23">
       <r>  -28.1281    1.0000 </r>
       <r>  -14.5298    1.0000 </r>
       <r>  -12.6321    1.0000 </r>
       <r>  -11.4357    1.0000 </r>
       <r>   -5.1745    1.0000 </r>
       <r>    0.3701    0.0000 </r>
       <r>    1.0342    0.0000 </r>
       <r>    3.3857    0.0000 </r>
       <r>    4.5610    0.0000 </r>
       <r>    4.6501    0.0000 </r>
       <r>    5.7049    0.0000 </r>
       <r>    6.7890    0.0000 </r>
       <r>    8.2825    0.0000 </r>
       <r>   10.1335    0.0000 </r>
       <r>   11.9200    0.0000 </r>
       <r>   14.6557    0.0000 </r>
      </set>
      <set comment="kpoint 24">
       <r>  -27.9535    1.0000 </r>
       <r>  -14.8597    1.0000 </r>
       <r>  -12.4910    1.0000 </r>
       <r>  -11.6706    1.0000 </r>
       <r>   -5.1839    1.0000 </r>
       <r>    0.4572    0.0000 </r>
       <r>    1.0997    0.0000 </r>
       <r>    3.4137    0.0000 </r>
       <r>    4.7931    0.0000 </r>
       <r>    4.8716    0.0000 </r>
       <r>    5.9278    0.0000 </r>
       <r>    7.0206    0.0000 </r>
       <r>    8.4825    0.0000 </r>
       <r>   10.3554    0.0000 </r>
       <r>   12.0798    0.0000 </r>
       <r>   14.8375    0.0000 </r>
      </set>
      <set comment="kpoint 25">
       <r>  -27.7717    1.0000 </r>
       <r>  -15.1919    1.0000 </r>
       <r>  -12.3387    1.0000 </r>
       <r>  -11.9081    1.0000 </r>
       <r>   -5.2019    1.0000 </r>
       <r>    0.5541    0.0000 </r>
       <r>    1.1616    0.0000 </r>
       <r>    3.4268    0.0000 </r>
       <r>    5.0353    0.0000 </r>
       <r>    5.1023    0.0000 </r>
       <r>    6.1607    0.0000 </r>
       <r>    7.2624    0.0000 </r>
       <r>    8.6914    0.0000 </r>
       <r>   10.5867    0.0000 </r>
       <r>   12.2462    0.0000 </r>
       <r>   15.0224    0.0000 </r>
      </set>
      <set comment="kpoint 26">
       <r>  -27.5831    1.0000 </r>
       <r>  -15.5231    1.0000 </r>
       <r>  -12.1781    1.0000 </r>
       <r>  -12.1472    1.0000 </r>
       <r>   -5.2287    1.0000 </r>
       <r>    0.6612    0.0000 </r>
       <r>    1.2182    0.0000 </r>
       <r>    3.4278    0.0000 </r>
       <r>    5.2875    0.0000 </r>
       <r>    5.3420    0.0000 </r>
       <r>    6.4038    0.0000 </r>
       <r>    7.5143    0.0000 </r>
       <r>    8.9094    0.0000 </r>
       <r>   10.8274    0.0000 </r>
       <r>   12.4192    0.0000 </r>
       <r>   15.2087    0.0000 </r>
      </set>
      <set comment="kpoint 27">
       <r>  -27.3876    1.0000 </r>
       <r>  -15.8523    1.0000 </r>
       <r>  -12.3875    1.0000 </r>
       <r>  -12.0106    1.0000 </r>
       <r>   -5.2648    1.0000 </r>
       <r>    0.7783    0.0000 </r>
       <r>    1.2678    0.0000 </r>
       <r>    3.4196    0.0000 </r>
       <r>    5.5497    0.0000 </r>
       <r>    5.5907    0.0000 </r>
       <r>    6.6571    0.0000 </r>
       <r>    7.7764    0.0000 </r>
       <r>    9.1365    0.0000 </r>
       <r>   11.0770    0.0000 </r>
       <r>   12.5984    0.0000 </r>
       <r>   15.3828    0.0000 </r>
      </set>
      <set comment="kpoint 28">
       <r>  -27.1855    1.0000 </r>
       <r>  -16.1784    1.0000 </r>
       <r>  -12.6280    1.0000 </r>
       <r>  -11.8372    1.0000 </r>
       <r>   -5.3102    1.0000 </r>
       <r>    0.9055    0.0000 </r>
       <r>    1.3083    0.0000 </r>
       <r>    3.4059    0.0000 </r>
       <r>    5.8219    0.0000 </r>
       <r>    5.8481    0.0000 </r>
       <r>    6.9205    0.0000 </r>
       <r>    8.0485    0.0000 </r>
       <r>    9.3728    0.0000 </r>
       <r>   11.3355    0.0000 </r>
       <r>   12.7833    0.0000 </r>
       <r>   15.3333    0.0000 </r>
      </set>
      <set comment="kpoint 29">
       <r>  -26.9769    1.0000 </r>
       <r>  -16.5014    1.0000 </r>
       <r>  -12.8686    1.0000 </r>
       <r>  -11.6585    1.0000 </r>
       <r>   -5.3652    1.0000 </r>
       <r>    1.0424    0.0000 </r>
       <r>    1.3374    0.0000 </r>
       <r>    3.3902    0.0000 </r>
       <r>    6.1038    0.0000 </r>
       <r>    6.1141    0.0000 </r>
       <r>    7.1941    0.0000 </r>
       <r>    8.3306    0.0000 </r>
       <r>    9.6183    0.0000 </r>
       <r>   11.6024    0.0000 </r>
       <r>   12.9730    0.0000 </r>
       <r>   15.2997    0.0000 </r>
      </set>
      <set comment="kpoint 30">
       <r>  -26.7618    1.0000 </r>
       <r>  -16.8193    1.0000 </r>
       <r>  -13.1075    1.0000 </r>
       <r>  -11.4748    1.0000 </r>
       <r>   -5.4292    1.0000 </r>
       <r>    1.1889    0.0000 </r>
       <r>    1.3530    0.0000 </r>
       <r>    3.3764    0.0000 </r>
       <r>    6.3886    0.0000 </r>
       <r>    6.3956    0.0000 </r>
       <r>    7.4780    0.0000 </r>
       <r>    8.6225    0.0000 </r>
       <r>    9.8731    0.0000 </r>
       <r>   11.8771    0.0000 </r>
       <r>   13.1657    0.0000 </r>
       <r>   15.2673    0.0000 </r>
      </set>
      <set comment="kpoint 31">
       <r>  -26.5405    1.0000 </r>
       <r>  -17.1325    1.0000 </r>
       <r>  -13.3446    1.0000 </r>
       <r>  -11.2868    1.0000 </r>
       <r>   -5.5020    1.0000 </r>
       <r>    1.3442    0.0000 </r>
       <r>    1.3533    0.0000 </r>
       <r>    3.3679    0.0000 </r>
       <r>    6.6713    0.0000 </r>
       <r>    6.6970    0.0000 </r>
       <r>    7.7722    0.0000 </r>
       <r>    8.9242    0.0000 </r>
       <r>   10.1372    0.0000 </r>
       <r>   12.1592    0.0000 </r>
       <r>   13.3584    0.0000 </r>
       <r>   15.2369    0.0000 </r>
      </set>
      <set comment="kpoint 32">
       <r>  -26.3135    1.0000 </r>
       <r>  -17.4408    1.0000 </r>
       <r>  -13.5797    1.0000 </r>
       <r>  -11.0954    1.0000 </r>
       <r>   -5.5834    1.0000 </r>
       <r>    1.3369    0.0000 </r>
       <r>    1.5078    0.0000 </r>
       <r>    3.3675    0.0000 </r>
       <r>    6.9620    0.0000 </r>
       <r>    7.0080    0.0000 </r>
       <r>    8.0767    0.0000 </r>
       <r>    9.2355    0.0000 </r>
       <r>   10.4108    0.0000 </r>
       <r>   12.4475    0.0000 </r>
       <r>   13.5458    0.0000 </r>
       <r>   15.2120    0.0000 </r>
      </set>
      <set comment="kpoint 33">
       <r>  -26.0810    1.0000 </r>
       <r>  -17.7438    1.0000 </r>
       <r>  -13.8114    1.0000 </r>
       <r>  -10.9008    1.0000 </r>
       <r>   -5.6728    1.0000 </r>
       <r>    1.3035    0.0000 </r>
       <r>    1.6789    0.0000 </r>
       <r>    3.3768    0.0000 </r>
       <r>    7.2603    0.0000 </r>
       <r>    7.3285    0.0000 </r>
       <r>    8.3916    0.0000 </r>
       <r>    9.5562    0.0000 </r>
       <r>   10.6936    0.0000 </r>
       <r>   12.7408    0.0000 </r>
       <r>   13.7193    0.0000 </r>
       <r>   15.1997    0.0000 </r>
      </set>
      <set comment="kpoint 34">
       <r>  -25.8430    1.0000 </r>
       <r>  -18.0412    1.0000 </r>
       <r>  -14.0392    1.0000 </r>
       <r>  -10.7034    1.0000 </r>
       <r>   -5.7696    1.0000 </r>
       <r>    1.2538    0.0000 </r>
       <r>    1.8566    0.0000 </r>
       <r>    3.3968    0.0000 </r>
       <r>    7.5660    0.0000 </r>
       <r>    7.6583    0.0000 </r>
       <r>    8.7169    0.0000 </r>
       <r>    9.8862    0.0000 </r>
       <r>   10.9857    0.0000 </r>
       <r>   13.0370    0.0000 </r>
       <r>   13.8652    0.0000 </r>
       <r>   15.2122    0.0000 </r>
      </set>
      <set comment="kpoint 35">
       <r>  -25.6002    1.0000 </r>
       <r>  -18.3328    1.0000 </r>
       <r>  -14.2623    1.0000 </r>
       <r>  -10.5041    1.0000 </r>
       <r>   -5.8734    1.0000 </r>
       <r>    1.1894    0.0000 </r>
       <r>    2.0397    0.0000 </r>
       <r>    3.4269    0.0000 </r>
       <r>    7.8786    0.0000 </r>
       <r>    7.9973    0.0000 </r>
       <r>    9.0525    0.0000 </r>
       <r>   10.2251    0.0000 </r>
       <r>   11.2868    0.0000 </r>
       <r>   13.3328    0.0000 </r>
       <r>   13.9666    0.0000 </r>
       <r>   15.2658    0.0000 </r>
      </set>
      <set comment="kpoint 36">
       <r>  -25.3529    1.0000 </r>
       <r>  -18.6182    1.0000 </r>
       <r>  -14.4801    1.0000 </r>
       <r>  -10.3033    1.0000 </r>
       <r>   -5.9832    1.0000 </r>
       <r>    1.1127    0.0000 </r>
       <r>    2.2271    0.0000 </r>
       <r>    3.4661    0.0000 </r>
       <r>    8.1977    0.0000 </r>
       <r>    8.3452    0.0000 </r>
       <r>    9.3986    0.0000 </r>
       <r>   10.5727    0.0000 </r>
       <r>   11.5966    0.0000 </r>
       <r>   13.6224    0.0000 </r>
       <r>   14.0105    0.0000 </r>
       <r>   15.3722    0.0000 </r>
      </set>
      <set comment="kpoint 37">
       <r>  -25.1015    1.0000 </r>
       <r>  -18.8975    1.0000 </r>
       <r>  -14.6917    1.0000 </r>
       <r>  -10.1016    1.0000 </r>
       <r>   -6.0982    1.0000 </r>
       <r>    1.0263    0.0000 </r>
       <r>    2.4174    0.0000 </r>
       <r>    3.5128    0.0000 </r>
       <r>    8.5226    0.0000 </r>
       <r>    8.7017    0.0000 </r>
       <r>    9.7550    0.0000 </r>
       <r>   10.9284    0.0000 </r>
       <r>   11.9145    0.0000 </r>
       <r>   13.8954    0.0000 </r>
       <r>   13.9975    0.0000 </r>
       <r>   15.5299    0.0000 </r>
      </set>
      <set comment="kpoint 38">
       <r>  -24.8465    1.0000 </r>
       <r>  -19.1707    1.0000 </r>
       <r>  -14.8966    1.0000 </r>
       <r>   -9.8998    1.0000 </r>
       <r>   -6.2181    1.0000 </r>
       <r>    0.9331    0.0000 </r>
       <r>    2.6089    0.0000 </r>
       <r>    3.5651    0.0000 </r>
       <r>    8.8528    0.0000 </r>
       <r>    9.0665    0.0000 </r>
       <r>   10.1218    0.0000 </r>
       <r>   11.2915    0.0000 </r>
       <r>   12.2393    0.0000 </r>
       <r>   13.9397    0.0000 </r>
       <r>   14.1324    0.0000 </r>
       <r>   15.6983    0.0000 </r>
      </set>
      <set comment="kpoint 39">
       <r>  -24.5890    1.0000 </r>
       <r>  -19.4376    1.0000 </r>
       <r>  -15.0940    1.0000 </r>
       <r>   -9.6988    1.0000 </r>
       <r>   -6.3420    1.0000 </r>
       <r>    0.8359    0.0000 </r>
       <r>    2.7999    0.0000 </r>
       <r>    3.6214    0.0000 </r>
       <r>    9.1872    0.0000 </r>
       <r>    9.4391    0.0000 </r>
       <r>   10.4989    0.0000 </r>
       <r>   11.6606    0.0000 </r>
       <r>   12.5686    0.0000 </r>
       <r>   13.8525    0.0000 </r>
       <r>   14.3016    0.0000 </r>
       <r>   15.6428    0.0000 </r>
      </set>
      <set comment="kpoint 40">
       <r>  -24.3295    1.0000 </r>
       <r>  -19.6979    1.0000 </r>
       <r>  -15.2826    1.0000 </r>
       <r>   -9.4993    1.0000 </r>
       <r>   -6.4693    1.0000 </r>
       <r>    0.7373    0.0000 </r>
       <r>    2.9883    0.0000 </r>
       <r>    3.6798    0.0000 </r>
       <r>    9.5248    0.0000 </r>
       <r>    9.8189    0.0000 </r>
       <r>   10.8862    0.0000 </r>
       <r>   12.0337    0.0000 </r>
       <r>   12.8957    0.0000 </r>
       <r>   13.7529    0.0000 </r>
       <r>   14.3737    0.0000 </r>
       <r>   15.6999    0.0000 </r>
      </set>
      <set comment="kpoint 41">
       <r>  -24.0689    1.0000 </r>
       <r>  -19.9516    1.0000 </r>
       <r>  -15.4615    1.0000 </r>
       <r>   -9.3021    1.0000 </r>
       <r>   -6.5994    1.0000 </r>
       <r>    0.6398    0.0000 </r>
       <r>    3.1719    0.0000 </r>
       <r>    3.7387    0.0000 </r>
       <r>    9.8641    0.0000 </r>
       <r>   10.2047    0.0000 </r>
       <r>   11.2835    0.0000 </r>
       <r>   12.4068    0.0000 </r>
       <r>   13.1919    0.0000 </r>
       <r>   13.6763    0.0000 </r>
       <r>   14.3572    0.0000 </r>
       <r>   15.8249    0.0000 </r>
      </set>
      <set comment="kpoint 42">
       <r>  -23.8082    1.0000 </r>
       <r>  -20.1984    1.0000 </r>
       <r>  -15.6292    1.0000 </r>
       <r>   -9.1081    1.0000 </r>
       <r>   -6.7314    1.0000 </r>
       <r>    0.5457    0.0000 </r>
       <r>    3.3482    0.0000 </r>
       <r>    3.7969    0.0000 </r>
       <r>   10.2033    0.0000 </r>
       <r>   10.5951    0.0000 </r>
       <r>   11.6906    0.0000 </r>
       <r>   12.7711    0.0000 </r>
       <r>   13.3190    0.0000 </r>
       <r>   13.7645    0.0000 </r>
       <r>   14.2970    0.0000 </r>
       <r>   15.9214    0.0000 </r>
      </set>
      <set comment="kpoint 43">
       <r>  -23.5489    1.0000 </r>
       <r>  -20.4384    1.0000 </r>
       <r>  -15.7847    1.0000 </r>
       <r>   -8.9184    1.0000 </r>
       <r>   -6.8648    1.0000 </r>
       <r>    0.4569    0.0000 </r>
       <r>    3.5142    0.0000 </r>
       <r>    3.8529    0.0000 </r>
       <r>   10.5397    0.0000 </r>
       <r>   10.9876    0.0000 </r>
       <r>   12.1072    0.0000 </r>
       <r>   13.1054    0.0000 </r>
       <r>   13.2465    0.0000 </r>
       <r>   14.0481    0.0000 </r>
       <r>   14.2471    0.0000 </r>
       <r>   15.8757    0.0000 </r>
      </set>
      <set comment="kpoint 44">
       <r>  -23.2916    1.0000 </r>
       <r>  -20.6713    1.0000 </r>
       <r>  -15.9256    1.0000 </r>
       <r>   -8.7335    1.0000 </r>
       <r>   -6.9990    1.0000 </r>
       <r>    0.3754    0.0000 </r>
       <r>    3.6671    0.0000 </r>
       <r>    3.9058    0.0000 </r>
       <r>   10.8703    0.0000 </r>
       <r>   11.3778    0.0000 </r>
       <r>   12.5326    0.0000 </r>
       <r>   13.1283    0.0000 </r>
       <r>   13.3598    0.0000 </r>
       <r>   14.2770    0.0000 </r>
       <r>   14.3684    0.0000 </r>
       <r>   15.7139    0.0000 </r>
      </set>
      <set comment="kpoint 45">
       <r>  -23.0394    1.0000 </r>
       <r>  -20.8973    1.0000 </r>
       <r>  -16.0514    1.0000 </r>
       <r>   -8.5552    1.0000 </r>
       <r>   -7.1334    1.0000 </r>
       <r>    0.3030    0.0000 </r>
       <r>    3.8033    0.0000 </r>
       <r>    3.9545    0.0000 </r>
       <r>   11.1906    0.0000 </r>
       <r>   11.7573    0.0000 </r>
       <r>   12.9648    0.0000 </r>
       <r>   13.0048    0.0000 </r>
       <r>   13.4801    0.0000 </r>
       <r>   14.4521    0.0000 </r>
       <r>   14.6695    0.0000 </r>
       <r>   15.5134    0.0000 </r>
      </set>
      <set comment="kpoint 46">
       <r>  -22.7936    1.0000 </r>
       <r>  -21.1166    1.0000 </r>
       <r>  -16.1601    1.0000 </r>
       <r>   -8.3841    1.0000 </r>
       <r>   -7.2673    1.0000 </r>
       <r>    0.2410    0.0000 </r>
       <r>    3.9193    0.0000 </r>
       <r>    3.9984    0.0000 </r>
       <r>   11.4951    0.0000 </r>
       <r>   12.1082    0.0000 </r>
       <r>   12.8820    0.0000 </r>
       <r>   13.4053    0.0000 </r>
       <r>   13.5115    0.0000 </r>
       <r>   14.7220    0.0000 </r>
       <r>   14.8980    0.0000 </r>
       <r>   15.3290    0.0000 </r>
      </set>
      <set comment="kpoint 47">
       <r>  -22.5562    1.0000 </r>
       <r>  -21.3284    1.0000 </r>
       <r>  -16.2484    1.0000 </r>
       <r>   -8.2213    1.0000 </r>
       <r>   -7.4006    1.0000 </r>
       <r>    0.1911    0.0000 </r>
       <r>    4.0117    0.0000 </r>
       <r>    4.0366    0.0000 </r>
       <r>   11.7762    0.0000 </r>
       <r>   12.3937    0.0000 </r>
       <r>   12.7677    0.0000 </r>
       <r>   13.5563    0.0000 </r>
       <r>   13.8457    0.0000 </r>
       <r>   14.8591    0.0000 </r>
       <r>   14.9818    0.0000 </r>
       <r>   15.3283    0.0000 </r>
      </set>
      <set comment="kpoint 48">
       <r>  -22.3299    1.0000 </r>
       <r>  -21.5332    1.0000 </r>
       <r>  -16.3145    1.0000 </r>
       <r>   -8.0676    1.0000 </r>
       <r>   -7.5327    1.0000 </r>
       <r>    0.1542    0.0000 </r>
       <r>    4.0688    0.0000 </r>
       <r>    4.0769    0.0000 </r>
       <r>   12.0240    0.0000 </r>
       <r>   12.5626    0.0000 </r>
       <r>   12.6640    0.0000 </r>
       <r>   13.6942    0.0000 </r>
       <r>   14.2691    0.0000 </r>
       <r>   14.7234    0.0000 </r>
       <r>   14.9416    0.0000 </r>
       <r>   15.5814    0.0000 </r>
      </set>
      <set comment="kpoint 49">
       <r>  -22.1174    1.0000 </r>
       <r>  -21.7310    1.0000 </r>
       <r>  -16.3563    1.0000 </r>
       <r>   -7.9238    1.0000 </r>
       <r>   -7.6628    1.0000 </r>
       <r>    0.1316    0.0000 </r>
       <r>    4.0945    0.0000 </r>
       <r>    4.1117    0.0000 </r>
       <r>   12.2192    0.0000 </r>
       <r>   12.5822    0.0000 </r>
       <r>   12.6070    0.0000 </r>
       <r>   13.9237    0.0000 </r>
       <r>   14.5490    0.0000 </r>
       <r>   14.5523    0.0000 </r>
       <r>   14.9744    0.0000 </r>
       <r>   15.5019    0.0000 </r>
      </set>
      <set comment="kpoint 50">
       <r>  -21.9215    1.0000 </r>
       <r>  -21.9215    1.0000 </r>
       <r>  -16.3708    1.0000 </r>
       <r>   -7.7913    1.0000 </r>
       <r>   -7.7913    1.0000 </r>
       <r>    0.1239    0.0000 </r>
       <r>    4.1134    0.0000 </r>
       <r>    4.1134    0.0000 </r>
       <r>   12.3021    0.0000 </r>
       <r>   12.5747    0.0000 </r>
       <r>   12.5747    0.0000 </r>
       <r>   14.0744    0.0000 </r>
       <r>   14.5088    0.0000 </r>
       <r>   14.5088    0.0000 </r>
       <r>   15.2226    0.0000 </r>
       <r>   15.3802    0.0000 </r>
      </set>
      <set comment="kpoint 51">
       <r>  -21.9215    1.0000 </r>
       <r>  -21.9215    1.0000 </r>
       <r>  -16.3708    1.0000 </r>
       <r>   -7.7913    1.0000 </r>
       <r>   -7.7913    1.0000 </r>
       <r>    0.1239    0.0000 </r>
       <r>    4.1134    0.0000 </r>
       <r>    4.1134    0.0000 </r>
       <r>   12.3021    0.0000 </r>
       <r>   12.5747    0.0000 </r>
       <r>   12.5747    0.0000 </r>
       <r>   14.0744    0.0000 </r>
       <r>   14.5088    0.0000 </r>
       <r>   14.5088    0.0000 </r>
       <r>   15.2226    0.0000 </r>
       <r>   15.3802    0.0000 </r>
      </set>
      <set comment="kpoint 52">
       <r>  -22.1045    1.0000 </r>
       <r>  -21.7447    1.0000 </r>
       <r>  -16.3556    1.0000 </r>
       <r>   -7.9169    1.0000 </r>
       <r>   -7.6700    1.0000 </r>
       <r>    0.1318    0.0000 </r>
       <r>    4.0801    0.0000 </r>
       <r>    4.1255    0.0000 </r>
       <r>   12.2470    0.0000 </r>
       <r>   12.5072    0.0000 </r>
       <r>   12.6631    0.0000 </r>
       <r>   13.9620    0.0000 </r>
       <r>   14.3724    0.0000 </r>
       <r>   14.7123    0.0000 </r>
       <r>   15.0546    0.0000 </r>
       <r>   15.2228    0.0000 </r>
      </set>
      <set comment="kpoint 53">
       <r>  -22.2802    1.0000 </r>
       <r>  -21.5890    1.0000 </r>
       <r>  -16.3086    1.0000 </r>
       <r>   -8.0400    1.0000 </r>
       <r>   -7.5608    1.0000 </r>
       <r>    0.1553    0.0000 </r>
       <r>    4.0108    0.0000 </r>
       <r>    4.1306    0.0000 </r>
       <r>   12.1408    0.0000 </r>
       <r>   12.4249    0.0000 </r>
       <r>   12.7597    0.0000 </r>
       <r>   13.7725    0.0000 </r>
       <r>   14.2312    0.0000 </r>
       <r>   14.7617    0.0000 </r>
       <r>   14.8460    0.0000 </r>
       <r>   15.3021    0.0000 </r>
      </set>
      <set comment="kpoint 54">
       <r>  -22.4487    1.0000 </r>
       <r>  -21.4564    1.0000 </r>
       <r>  -16.2300    1.0000 </r>
       <r>   -8.1598    1.0000 </r>
       <r>   -7.4636    1.0000 </r>
       <r>    0.1946    0.0000 </r>
       <r>    3.9053    0.0000 </r>
       <r>    4.1290    0.0000 </r>
       <r>   12.0139    0.0000 </r>
       <r>   12.3372    0.0000 </r>
       <r>   12.8334    0.0000 </r>
       <r>   13.5736    0.0000 </r>
       <r>   14.1079    0.0000 </r>
       <r>   14.6085    0.0000 </r>
       <r>   14.6382    0.0000 </r>
       <r>   15.5607    0.0000 </r>
      </set>
      <set comment="kpoint 55">
       <r>  -22.6094    1.0000 </r>
       <r>  -21.3469    1.0000 </r>
       <r>  -16.1180    1.0000 </r>
       <r>   -8.2760    1.0000 </r>
       <r>   -7.3783    1.0000 </r>
       <r>    0.2494    0.0000 </r>
       <r>    3.7645    0.0000 </r>
       <r>    4.1207    0.0000 </r>
       <r>   11.8732    0.0000 </r>
       <r>   12.2481    0.0000 </r>
       <r>   12.8738    0.0000 </r>
       <r>   13.3768    0.0000 </r>
       <r>   14.0199    0.0000 </r>
       <r>   14.4223    0.0000 </r>
       <r>   14.4350    0.0000 </r>
       <r>   15.5290    0.0000 </r>
      </set>
      <set comment="kpoint 56">
       <r>  -22.7628    1.0000 </r>
       <r>  -21.2605    1.0000 </r>
       <r>  -15.9747    1.0000 </r>
       <r>   -8.3886    1.0000 </r>
       <r>   -7.3047    1.0000 </r>
       <r>    0.3189    0.0000 </r>
       <r>    3.5902    0.0000 </r>
       <r>    4.1060    0.0000 </r>
       <r>   11.7226    0.0000 </r>
       <r>   12.1598    0.0000 </r>
       <r>   12.8715    0.0000 </r>
       <r>   13.1857    0.0000 </r>
       <r>   13.9799    0.0000 </r>
       <r>   14.2361    0.0000 </r>
       <r>   14.2413    0.0000 </r>
       <r>   15.3314    0.0000 </r>
      </set>
      <set comment="kpoint 57">
       <r>  -22.9086    1.0000 </r>
       <r>  -21.1954    1.0000 </r>
       <r>  -15.8014    1.0000 </r>
       <r>   -8.4972    1.0000 </r>
       <r>   -7.2426    1.0000 </r>
       <r>    0.4024    0.0000 </r>
       <r>    3.3849    0.0000 </r>
       <r>    4.0854    0.0000 </r>
       <r>   11.5657    0.0000 </r>
       <r>   12.0731    0.0000 </r>
       <r>   12.8233    0.0000 </r>
       <r>   13.0016    0.0000 </r>
       <r>   13.9630    0.0000 </r>
       <r>   14.0564    0.0000 </r>
       <r>   14.0882    0.0000 </r>
       <r>   15.1416    0.0000 </r>
      </set>
      <set comment="kpoint 58">
       <r>  -23.0469    1.0000 </r>
       <r>  -21.1501    1.0000 </r>
       <r>  -15.6010    1.0000 </r>
       <r>   -8.6016    1.0000 </r>
       <r>   -7.1911    1.0000 </r>
       <r>    0.4986    0.0000 </r>
       <r>    3.1516    0.0000 </r>
       <r>    4.0590    0.0000 </r>
       <r>   11.4060    0.0000 </r>
       <r>   11.9887    0.0000 </r>
       <r>   12.7381    0.0000 </r>
       <r>   12.8255    0.0000 </r>
       <r>   13.8320    0.0000 </r>
       <r>   13.8853    0.0000 </r>
       <r>   14.1015    0.0000 </r>
       <r>   14.9614    0.0000 </r>
      </set>
      <set comment="kpoint 59">
       <r>  -23.1777    1.0000 </r>
       <r>  -21.1220    1.0000 </r>
       <r>  -15.3763    1.0000 </r>
       <r>   -8.7017    1.0000 </r>
       <r>   -7.1493    1.0000 </r>
       <r>    0.6063    0.0000 </r>
       <r>    2.8940    0.0000 </r>
       <r>    4.0273    0.0000 </r>
       <r>   11.2465    0.0000 </r>
       <r>   11.9067    0.0000 </r>
       <r>   12.6298    0.0000 </r>
       <r>   12.6577    0.0000 </r>
       <r>   13.6630    0.0000 </r>
       <r>   13.7235    0.0000 </r>
       <r>   14.1802    0.0000 </r>
       <r>   14.7912    0.0000 </r>
      </set>
      <set comment="kpoint 60">
       <r>  -23.3008    1.0000 </r>
       <r>  -21.1080    1.0000 </r>
       <r>  -15.1316    1.0000 </r>
       <r>   -8.7973    1.0000 </r>
       <r>   -7.1165    1.0000 </r>
       <r>    0.7240    0.0000 </r>
       <r>    2.6156    0.0000 </r>
       <r>    3.9908    0.0000 </r>
       <r>   11.0899    0.0000 </r>
       <r>   11.8273    0.0000 </r>
       <r>   12.4987    0.0000 </r>
       <r>   12.5102    0.0000 </r>
       <r>   13.4981    0.0000 </r>
       <r>   13.5715    0.0000 </r>
       <r>   14.2489    0.0000 </r>
       <r>   14.6309    0.0000 </r>
      </set>
      <set comment="kpoint 61">
       <r>  -23.4163    1.0000 </r>
       <r>  -21.1056    1.0000 </r>
       <r>  -14.8708    1.0000 </r>
       <r>   -8.8881    1.0000 </r>
       <r>   -7.0915    1.0000 </r>
       <r>    0.8501    0.0000 </r>
       <r>    2.3206    0.0000 </r>
       <r>    3.9497    0.0000 </r>
       <r>   10.9380    0.0000 </r>
       <r>   11.7506    0.0000 </r>
       <r>   12.3488    0.0000 </r>
       <r>   12.3870    0.0000 </r>
       <r>   13.3416    0.0000 </r>
       <r>   13.4293    0.0000 </r>
       <r>   14.2700    0.0000 </r>
       <r>   14.4807    0.0000 </r>
      </set>
      <set comment="kpoint 62">
       <r>  -23.5242    1.0000 </r>
       <r>  -21.1124    1.0000 </r>
       <r>  -14.5977    1.0000 </r>
       <r>   -8.9743    1.0000 </r>
       <r>   -7.0734    1.0000 </r>
       <r>    0.9829    0.0000 </r>
       <r>    2.0130    0.0000 </r>
       <r>    3.9046    0.0000 </r>
       <r>   10.7927    0.0000 </r>
       <r>   11.6769    0.0000 </r>
       <r>   12.2081    0.0000 </r>
       <r>   12.2651    0.0000 </r>
       <r>   13.1944    0.0000 </r>
       <r>   13.2968    0.0000 </r>
       <r>   14.2358    0.0000 </r>
       <r>   14.3405    0.0000 </r>
      </set>
      <set comment="kpoint 63">
       <r>  -23.6246    1.0000 </r>
       <r>  -21.1260    1.0000 </r>
       <r>  -14.3157    1.0000 </r>
       <r>   -9.0556    1.0000 </r>
       <r>   -7.0613    1.0000 </r>
       <r>    1.1208    0.0000 </r>
       <r>    1.6970    0.0000 </r>
       <r>    3.8556    0.0000 </r>
       <r>   10.6551    0.0000 </r>
       <r>   11.6063    0.0000 </r>
       <r>   12.0768    0.0000 </r>
       <r>   12.1475    0.0000 </r>
       <r>   13.0572    0.0000 </r>
       <r>   13.1742    0.0000 </r>
       <r>   14.1665    0.0000 </r>
       <r>   14.2104    0.0000 </r>
      </set>
      <set comment="kpoint 64">
       <r>  -23.7172    1.0000 </r>
       <r>  -21.1444    1.0000 </r>
       <r>  -14.0295    1.0000 </r>
       <r>   -9.1321    1.0000 </r>
       <r>   -7.0541    1.0000 </r>
       <r>    1.2620    0.0000 </r>
       <r>    1.3770    0.0000 </r>
       <r>    3.8032    0.0000 </r>
       <r>   10.5262    0.0000 </r>
       <r>   11.5392    0.0000 </r>
       <r>   11.9550    0.0000 </r>
       <r>   12.0360    0.0000 </r>
       <r>   12.9301    0.0000 </r>
       <r>   13.0613    0.0000 </r>
       <r>   14.0824    0.0000 </r>
       <r>   14.0903    0.0000 </r>
      </set>
      <set comment="kpoint 65">
       <r>  -23.8022    1.0000 </r>
       <r>  -21.1660    1.0000 </r>
       <r>  -13.7424    1.0000 </r>
       <r>   -9.2036    1.0000 </r>
       <r>   -7.0508    1.0000 </r>
       <r>    1.0573    0.0000 </r>
       <r>    1.4050    0.0000 </r>
       <r>    3.7476    0.0000 </r>
       <r>   10.4068    0.0000 </r>
       <r>   11.4760    0.0000 </r>
       <r>   11.8430    0.0000 </r>
       <r>   11.9319    0.0000 </r>
       <r>   12.8134    0.0000 </r>
       <r>   12.9580    0.0000 </r>
       <r>   13.9802    0.0000 </r>
       <r>   13.9948    0.0000 </r>
      </set>
      <set comment="kpoint 66">
       <r>  -23.8796    1.0000 </r>
       <r>  -21.1893    1.0000 </r>
       <r>  -13.4579    1.0000 </r>
       <r>   -9.2702    1.0000 </r>
       <r>   -7.0506    1.0000 </r>
       <r>    0.7425    0.0000 </r>
       <r>    1.5481    0.0000 </r>
       <r>    3.6890    0.0000 </r>
       <r>   10.2972    0.0000 </r>
       <r>   11.4168    0.0000 </r>
       <r>   11.7408    0.0000 </r>
       <r>   11.8358    0.0000 </r>
       <r>   12.7072    0.0000 </r>
       <r>   12.8642    0.0000 </r>
       <r>   13.8802    0.0000 </r>
       <r>   13.9097    0.0000 </r>
      </set>
      <set comment="kpoint 67">
       <r>  -23.9492    1.0000 </r>
       <r>  -21.2131    1.0000 </r>
       <r>  -13.1808    1.0000 </r>
       <r>   -9.3319    1.0000 </r>
       <r>   -7.0528    1.0000 </r>
       <r>    0.4374    0.0000 </r>
       <r>    1.6898    0.0000 </r>
       <r>    3.6277    0.0000 </r>
       <r>   10.1980    0.0000 </r>
       <r>   11.3622    0.0000 </r>
       <r>   11.6485    0.0000 </r>
       <r>   11.7485    0.0000 </r>
       <r>   12.6115    0.0000 </r>
       <r>   12.7800    0.0000 </r>
       <r>   13.7901    0.0000 </r>
       <r>   13.8299    0.0000 </r>
      </set>
      <set comment="kpoint 68">
       <r>  -24.0111    1.0000 </r>
       <r>  -21.2362    1.0000 </r>
       <r>  -12.9153    1.0000 </r>
       <r>   -9.3882    1.0000 </r>
       <r>   -7.0563    1.0000 </r>
       <r>    0.1469    0.0000 </r>
       <r>    1.8287    0.0000 </r>
       <r>    3.5639    0.0000 </r>
       <r>   10.1094    0.0000 </r>
       <r>   11.3125    0.0000 </r>
[...]
       </set>
       <set comment="band 13">
        <r>  0.0051  0.0293  0.0000 </r>
        <r>  0.0051  0.0293  0.0000 </r>
       </set>
       <set comment="band 14">
        <r>  0.0056  0.0105  0.0000 </r>
        <r>  0.0056  0.0105  0.0000 </r>
       </set>
       <set comment="band 15">
        <r>  0.0098  0.0308  0.0000 </r>
        <r>  0.0098  0.0308  0.0000 </r>
       </set>
       <set comment="band 16">
        <r>  0.0082  0.0153  0.0000 </r>
        <r>  0.0082  0.0153  0.0000 </r>
       </set>
      </set>
      <set comment="kpoint 142">
       <set comment="band 1">
        <r>  0.3166  0.0289  0.0000 </r>
        <r>  0.3166  0.0289  0.0000 </r>
       </set>
       <set comment="band 2">
        <r>  0.1521  0.1310  0.0000 </r>
        <r>  0.1521  0.1310  0.0000 </r>
       </set>
       <set comment="band 3">
        <r>  0.0365  0.3782  0.0000 </r>
        <r>  0.0365  0.3782  0.0000 </r>
       </set>
       <set comment="band 4">
        <r>  0.0003  0.4166  0.0000 </r>
        <r>  0.0003  0.4166  0.0000 </r>
       </set>
       <set comment="band 5">
        <r>  0.0040  0.2831  0.0000 </r>
        <r>  0.0040  0.2831  0.0000 </r>
       </set>
       <set comment="band 6">
        <r>  0.0114  0.3721  0.0000 </r>
        <r>  0.0114  0.3721  0.0000 </r>
       </set>
       <set comment="band 7">
        <r>  0.0573  0.3452  0.0000 </r>
        <r>  0.0573  0.3452  0.0000 </r>
       </set>
       <set comment="band 8">
        <r>  0.1964  0.2447  0.0000 </r>
        <r>  0.1964  0.2447  0.0000 </r>
       </set>
       <set comment="band 9">
        <r>  0.0005  0.0139  0.0000 </r>
        <r>  0.0005  0.0139  0.0000 </r>
       </set>
       <set comment="band 10">
        <r>  0.0014  0.0179  0.0000 </r>
        <r>  0.0014  0.0179  0.0000 </r>
       </set>
       <set comment="band 11">
        <r>  0.0021  0.0199  0.0000 </r>
        <r>  0.0021  0.0199  0.0000 </r>
       </set>
       <set comment="band 12">
        <r>  0.0025  0.0073  0.0000 </r>
        <r>  0.0025  0.0073  0.0000 </r>
       </set>
       <set comment="band 13">
        <r>  0.0052  0.0294  0.0000 </r>
        <r>  0.0052  0.0294  0.0000 </r>
       </set>
       <set comment="band 14">
        <r>  0.0055  0.0105  0.0000 </r>
        <r>  0.0055  0.0105  0.0000 </r>
       </set>
       <set comment="band 15">
        <r>  0.0101  0.0312  0.0000 </r>
        <r>  0.0101  0.0312  0.0000 </r>
       </set>
       <set comment="band 16">
        <r>  0.0081  0.0151  0.0000 </r>
        <r>  0.0081  0.0151  0.0000 </r>
       </set>
      </set>
      <set comment="kpoint 143">
       <set comment="band 1">
        <r>  0.3172  0.0281  0.0000 </r>
        <r>  0.3172  0.0281  0.0000 </r>
       </set>
       <set comment="band 2">
        <r>  0.1510  0.1313  0.0000 </r>
        <r>  0.1510  0.1313  0.0000 </r>
       </set>
       <set comment="band 3">
        <r>  0.0302  0.3863  0.0000 </r>
        <r>  0.0302  0.3863  0.0000 </r>
       </set>
       <set comment="band 4">
        <r>  0.0002  0.4183  0.0000 </r>
        <r>  0.0002  0.4183  0.0000 </r>
       </set>
       <set comment="band 5">
        <r>  0.0037  0.2815  0.0000 </r>
        <r>  0.0037  0.2815  0.0000 </r>
       </set>
       <set comment="band 6">
        <r>  0.0090  0.3760  0.0000 </r>
        <r>  0.0090  0.3760  0.0000 </r>
       </set>
       <set comment="band 7">
        <r>  0.0508  0.3503  0.0000 </r>
        <r>  0.0508  0.3503  0.0000 </r>
       </set>
       <set comment="band 8">
        <r>  0.2111  0.2299  0.0000 </r>
        <r>  0.2111  0.2299  0.0000 </r>
       </set>
       <set comment="band 9">
        <r>  0.0006  0.0134  0.0000 </r>
        <r>  0.0006  0.0134  0.0000 </r>
       </set>
       <set comment="band 10">
        <r>  0.0015  0.0176  0.0000 </r>
        <r>  0.0015  0.0176  0.0000 </r>
       </set>
       <set comment="band 11">
        <r>  0.0022  0.0198  0.0000 </r>
        <r>  0.0022  0.0198  0.0000 </r>
       </set>
       <set comment="band 12">
        <r>  0.0025  0.0073  0.0000 </r>
        <r>  0.0025  0.0073  0.0000 </r>
       </set>
       <set comment="band 13">
        <r>  0.0053  0.0295  0.0000 </r>
        <r>  0.0053  0.0295  0.0000 </r>
       </set>
       <set comment="band 14">
        <r>  0.0054  0.0104  0.0000 </r>
        <r>  0.0054  0.0104  0.0000 </r>
       </set>
       <set comment="band 15">
        <r>  0.0104  0.0316  0.0000 </r>
        <r>  0.0104  0.0316  0.0000 </r>
       </set>
       <set comment="band 16">
        <r>  0.0080  0.0149  0.0000 </r>
        <r>  0.0080  0.0149  0.0000 </r>
       </set>
      </set>
      <set comment="kpoint 144">
       <set comment="band 1">
        <r>  0.3176  0.0274  0.0000 </r>
        <r>  0.3176  0.0274  0.0000 </r>
       </set>
       <set comment="band 2">
        <r>  0.1501  0.1314  0.0000 </r>
        <r>  0.1501  0.1314  0.0000 </r>
       </set>
       <set comment="band 3">
        <r>  0.0239  0.3942  0.0000 </r>
        <r>  0.0239  0.3942  0.0000 </r>
       </set>
       <set comment="band 4">
        <r>  0.0001  0.4197  0.0000 </r>
        <r>  0.0001  0.4197  0.0000 </r>
       </set>
       <set comment="band 5">
        <r>  0.0034  0.2801  0.0000 </r>
        <r>  0.0034  0.2801  0.0000 </r>
       </set>
       <set comment="band 6">
        <r>  0.0068  0.3795  0.0000 </r>
        <r>  0.0068  0.3795  0.0000 </r>
       </set>
       <set comment="band 7">
        <r>  0.0422  0.3571  0.0000 </r>
        <r>  0.0422  0.3571  0.0000 </r>
       </set>
       <set comment="band 8">
        <r>  0.2276  0.2136  0.0000 </r>
        <r>  0.2276  0.2136  0.0000 </r>
       </set>
       <set comment="band 9">
        <r>  0.0007  0.0130  0.0000 </r>
        <r>  0.0007  0.0130  0.0000 </r>
       </set>
       <set comment="band 10">
        <r>  0.0015  0.0173  0.0000 </r>
        <r>  0.0015  0.0173  0.0000 </r>
       </set>
       <set comment="band 11">
        <r>  0.0023  0.0198  0.0000 </r>
        <r>  0.0023  0.0198  0.0000 </r>
       </set>
       <set comment="band 12">
        <r>  0.0025  0.0072  0.0000 </r>
        <r>  0.0025  0.0072  0.0000 </r>
       </set>
       <set comment="band 13">
        <r>  0.0054  0.0295  0.0000 </r>
        <r>  0.0054  0.0295  0.0000 </r>
       </set>
       <set comment="band 14">
        <r>  0.0054  0.0104  0.0000 </r>
        <r>  0.0054  0.0104  0.0000 </r>
       </set>
       <set comment="band 15">
        <r>  0.0106  0.0319  0.0000 </r>
        <r>  0.0106  0.0319  0.0000 </r>
       </set>
       <set comment="band 16">
        <r>  0.0079  0.0147  0.0000 </r>
        <r>  0.0079  0.0147  0.0000 </r>
       </set>
      </set>
      <set comment="kpoint 145">
       <set comment="band 1">
        <r>  0.3180  0.0268  0.0000 </r>
        <r>  0.3180  0.0268  0.0000 </r>
       </set>
       <set comment="band 2">
        <r>  0.1495  0.1315  0.0000 </r>
        <r>  0.1495  0.1315  0.0000 </r>
       </set>
       <set comment="band 3">
        <r>  0.0177  0.4019  0.0000 </r>
        <r>  0.0177  0.4019  0.0000 </r>
       </set>
       <set comment="band 4">
        <r>  0.0001  0.4209  0.0000 </r>
        <r>  0.0001  0.4209  0.0000 </r>
       </set>
       <set comment="band 5">
        <r>  0.0032  0.2789  0.0000 </r>
        <r>  0.0032  0.2789  0.0000 </r>
       </set>
       <set comment="band 6">
        <r>  0.0048  0.3826  0.0000 </r>
        <r>  0.0048  0.3826  0.0000 </r>
       </set>
       <set comment="band 7">
        <r>  0.0315  0.3657  0.0000 </r>
        <r>  0.0315  0.3657  0.0000 </r>
       </set>
       <set comment="band 8">
        <r>  0.2457  0.1960  0.0000 </r>
        <r>  0.2457  0.1960  0.0000 </r>
       </set>
       <set comment="band 9">
        <r>  0.0007  0.0126  0.0000 </r>
        <r>  0.0007  0.0126  0.0000 </r>
       </set>
       <set comment="band 10">
        <r>  0.0016  0.0170  0.0000 </r>
        <r>  0.0016  0.0170  0.0000 </r>
       </set>
       <set comment="band 11">
        <r>  0.0023  0.0198  0.0000 </r>
        <r>  0.0023  0.0198  0.0000 </r>
       </set>
       <set comment="band 12">
        <r>  0.0025  0.0072  0.0000 </r>
        <r>  0.0025  0.0072  0.0000 </r>
       </set>
       <set comment="band 13">
        <r>  0.0055  0.0296  0.0000 </r>
        <r>  0.0055  0.0296  0.0000 </r>
       </set>
       <set comment="band 14">
        <r>  0.0053  0.0103  0.0000 </r>
        <r>  0.0053  0.0103  0.0000 </r>
       </set>
       <set comment="band 15">
        <r>  0.0108  0.0321  0.0000 </r>
        <r>  0.0108  0.0321  0.0000 </r>
       </set>
       <set comment="band 16">
        <r>  0.0078  0.0145  0.0000 </r>
        <r>  0.0078  0.0145  0.0000 </r>
       </set>
      </set>
      <set comment="kpoint 146">
       <set comment="band 1">
        <r>  0.3183  0.0263  0.0000 </r>
        <r>  0.3183  0.0263  0.0000 </r>
       </set>
       <set comment="band 2">
        <r>  0.1490  0.1316  0.0000 </r>
        <r>  0.1490  0.1316  0.0000 </r>
       </set>
       <set comment="band 3">
        <r>  0.0120  0.4090  0.0000 </r>
        <r>  0.0120  0.4090  0.0000 </r>
       </set>
       <set comment="band 4">
        <r>  0.0000  0.4219  0.0000 </r>
        <r>  0.0000  0.4219  0.0000 </r>
       </set>
       <set comment="band 5">
        <r>  0.0031  0.2780  0.0000 </r>
        <r>  0.0031  0.2780  0.0000 </r>
       </set>
       <set comment="band 6">
        <r>  0.0031  0.3853  0.0000 </r>
        <r>  0.0031  0.3853  0.0000 </r>
       </set>
       <set comment="band 7">
        <r>  0.0196  0.3752  0.0000 </r>
        <r>  0.0196  0.3752  0.0000 </r>
       </set>
       <set comment="band 8">
        <r>  0.2642  0.1784  0.0000 </r>
        <r>  0.2642  0.1784  0.0000 </r>
       </set>
       <set comment="band 9">
        <r>  0.0008  0.0123  0.0000 </r>
        <r>  0.0008  0.0123  0.0000 </r>
       </set>
       <set comment="band 10">
        <r>  0.0016  0.0168  0.0000 </r>
        <r>  0.0016  0.0168  0.0000 </r>
       </set>
       <set comment="band 11">
        <r>  0.0024  0.0197  0.0000 </r>
        <r>  0.0024  0.0197  0.0000 </r>
       </set>
       <set comment="band 12">
        <r>  0.0025  0.0072  0.0000 </r>
        <r>  0.0025  0.0072  0.0000 </r>
       </set>
       <set comment="band 13">
        <r>  0.0056  0.0296  0.0000 </r>
        <r>  0.0056  0.0296  0.0000 </r>
       </set>
       <set comment="band 14">
        <r>  0.0053  0.0103  0.0000 </r>
        <r>  0.0053  0.0103  0.0000 </r>
       </set>
       <set comment="band 15">
        <r>  0.0109  0.0323  0.0000 </r>
        <r>  0.0109  0.0323  0.0000 </r>
       </set>
       <set comment="band 16">
        <r>  0.0078  0.0144  0.0000 </r>
        <r>  0.0078  0.0144  0.0000 </r>
       </set>
      </set>
      <set comment="kpoint 147">
       <set comment="band 1">
        <r>  0.3186  0.0260  0.0000 </r>
        <r>  0.3186  0.0260  0.0000 </r>
       </set>
       <set comment="band 2">
        <r>  0.1487  0.1316  0.0000 </r>
        <r>  0.1487  0.1316  0.0000 </r>
       </set>
       <set comment="band 3">
        <r>  0.0071  0.4150  0.0000 </r>
        <r>  0.0071  0.4150  0.0000 </r>
       </set>
       <set comment="band 4">
        <r>  0.0000  0.4227  0.0000 </r>
        <r>  0.0000  0.4227  0.0000 </r>
       </set>
       <set comment="band 5">
        <r>  0.0030  0.2772  0.0000 </r>
        <r>  0.0030  0.2772  0.0000 </r>
       </set>
       <set comment="band 6">
        <r>  0.0018  0.3874  0.0000 </r>
        <r>  0.0018  0.3874  0.0000 </r>
       </set>
       <set comment="band 7">
        <r>  0.0089  0.3837  0.0000 </r>
        <r>  0.0089  0.3837  0.0000 </r>
       </set>
       <set comment="band 8">
        <r>  0.2806  0.1630  0.0000 </r>
        <r>  0.2806  0.1630  0.0000 </r>
       </set>
       <set comment="band 9">
        <r>  0.0008  0.0121  0.0000 </r>
        <r>  0.0008  0.0121  0.0000 </r>
       </set>
       <set comment="band 10">
        <r>  0.0017  0.0166  0.0000 </r>
        <r>  0.0017  0.0166  0.0000 </r>
       </set>
       <set comment="band 11">
        <r>  0.0024  0.0197  0.0000 </r>
        <r>  0.0024  0.0197  0.0000 </r>
       </set>
       <set comment="band 12">
        <r>  0.0025  0.0072  0.0000 </r>
        <r>  0.0025  0.0072  0.0000 </r>
       </set>
       <set comment="band 13">
        <r>  0.0056  0.0296  0.0000 </r>
        <r>  0.0056  0.0296  0.0000 </r>
       </set>
       <set comment="band 14">
        <r>  0.0053  0.0102  0.0000 </r>
        <r>  0.0053  0.0102  0.0000 </r>
       </set>
       <set comment="band 15">
        <r>  0.0110  0.0324  0.0000 </r>
        <r>  0.0110  0.0324  0.0000 </r>
       </set>
       <set comment="band 16">
        <r>  0.0077  0.0143  0.0000 </r>
        <r>  0.0077  0.0143  0.0000 </r>
       </set>
      </set>
      <set comment="kpoint 148">
       <set comment="band 1">
        <r>  0.3188  0.0257  0.0000 </r>
        <r>  0.3188  0.0257  0.0000 </r>
       </set>
       <set comment="band 2">
        <r>  0.1484  0.1316  0.0000 </r>
        <r>  0.1484  0.1316  0.0000 </r>
       </set>
       <set comment="band 3">
        <r>  0.0033  0.4197  0.0000 </r>
        <r>  0.0033  0.4197  0.0000 </r>
       </set>
       <set comment="band 4">
        <r>  0.0000  0.4232  0.0000 </r>
        <r>  0.0000  0.4232  0.0000 </r>
       </set>
       <set comment="band 5">
        <r>  0.0029  0.2767  0.0000 </r>
        <r>  0.0029  0.2767  0.0000 </r>
       </set>
       <set comment="band 6">
        <r>  0.0008  0.3889  0.0000 </r>
        <r>  0.0008  0.3889  0.0000 </r>
       </set>
       <set comment="band 7">
        <r>  0.0023  0.3888  0.0000 </r>
        <r>  0.0023  0.3888  0.0000 </r>
       </set>
       <set comment="band 8">
        <r>  0.2915  0.1527  0.0000 </r>
        <r>  0.2915  0.1527  0.0000 </r>
       </set>
       <set comment="band 9">
        <r>  0.0008  0.0120  0.0000 </r>
        <r>  0.0008  0.0120  0.0000 </r>
       </set>
       <set comment="band 10">
        <r>  0.0017  0.0165  0.0000 </r>
        <r>  0.0017  0.0165  0.0000 </r>
       </set>
       <set comment="band 11">
        <r>  0.0025  0.0197  0.0000 </r>
        <r>  0.0025  0.0197  0.0000 </r>
       </set>
       <set comment="band 12">
        <r>  0.0025  0.0072  0.0000 </r>
        <r>  0.0025  0.0072  0.0000 </r>
       </set>
       <set comment="band 13">
        <r>  0.0057  0.0296  0.0000 </r>
        <r>  0.0057  0.0296  0.0000 </r>
       </set>
       <set comment="band 14">
        <r>  0.0053  0.0102  0.0000 </r>
        <r>  0.0053  0.0102  0.0000 </r>
       </set>
       <set comment="band 15">
        <r>  0.0111  0.0325  0.0000 </r>
        <r>  0.0111  0.0325  0.0000 </r>
       </set>
       <set comment="band 16">
        <r>  0.0077  0.0143  0.0000 </r>
        <r>  0.0077  0.0143  0.0000 </r>
       </set>
      </set>
      <set comment="kpoint 149">
       <set comment="band 1">
        <r>  0.3189  0.0255  0.0000 </r>
        <r>  0.3189  0.0255  0.0000 </r>
       </set>
       <set comment="band 2">
        <r>  0.1483  0.1316  0.0000 </r>
        <r>  0.1483  0.1316  0.0000 </r>
       </set>
       <set comment="band 3">
        <r>  0.0008  0.4226  0.0000 </r>
        <r>  0.0008  0.4226  0.0000 </r>
       </set>
       <set comment="band 4">
        <r>  0.0000  0.4235  0.0000 </r>
        <r>  0.0000  0.4235  0.0000 </r>
       </set>
       <set comment="band 5">
        <r>  0.0028  0.2764  0.0000 </r>
        <r>  0.0028  0.2764  0.0000 </r>
       </set>
       <set comment="band 6">
        <r>  0.0002  0.3899  0.0000 </r>
        <r>  0.0002  0.3899  0.0000 </r>
       </set>
       <set comment="band 7">
        <r>  0.0002  0.3902  0.0000 </r>
        <r>  0.0002  0.3902  0.0000 </r>
       </set>
       <set comment="band 8">
        <r>  0.2963  0.1479  0.0000 </r>
        <r>  0.2963  0.1479  0.0000 </r>
       </set>
       <set comment="band 9">
        <r>  0.0009  0.0119  0.0000 </r>
        <r>  0.0009  0.0119  0.0000 </r>
       </set>
       <set comment="band 10">
        <r>  0.0017  0.0164  0.0000 </r>
        <r>  0.0017  0.0164  0.0000 </r>
       </set>
       <set comment="band 11">
        <r>  0.0025  0.0197  0.0000 </r>
        <r>  0.0025  0.0197  0.0000 </r>
       </set>
       <set comment="band 12">
        <r>  0.0025  0.0071  0.0000 </r>
        <r>  0.0025  0.0071  0.0000 </r>
       </set>
       <set comment="band 13">
        <r>  0.0057  0.0297  0.0000 </r>
        <r>  0.0057  0.0297  0.0000 </r>
       </set>
       <set comment="band 14">
        <r>  0.0053  0.0102  0.0000 </r>
        <r>  0.0053  0.0102  0.0000 </r>
       </set>
       <set comment="band 15">
        <r>  0.0112  0.0326  0.0000 </r>
        <r>  0.0112  0.0326  0.0000 </r>
       </set>
       <set comment="band 16">
        <r>  0.0077  0.0142  0.0000 </r>
        <r>  0.0077  0.0142  0.0000 </r>
       </set>
      </set>
      <set comment="kpoint 150">
       <set comment="band 1">
        <r>  0.3189  0.0255  0.0000 </r>
        <r>  0.3189  0.0255  0.0000 </r>
       </set>
       <set comment="band 2">
        <r>  0.1482  0.1316  0.0000 </r>
        <r>  0.1482  0.1316  0.0000 </r>
       </set>
       <set comment="band 3">
        <r>  0.0000  0.4237  0.0000 </r>
        <r>  0.0000  0.4237  0.0000 </r>
       </set>
       <set comment="band 4">
        <r>  0.0000  0.4237  0.0000 </r>
        <r>  0.0000  0.4237  0.0000 </r>
       </set>
       <set comment="band 5">
        <r>  0.0028  0.2763  0.0000 </r>
        <r>  0.0028  0.2763  0.0000 </r>
       </set>
       <set comment="band 6">
        <r>  0.0000  0.3902  0.0000 </r>
        <r>  0.0000  0.3902  0.0000 </r>
       </set>
       <set comment="band 7">
        <r>  0.0000  0.3902  0.0000 </r>
        <r>  0.0000  0.3902  0.0000 </r>
       </set>
       <set comment="band 8">
        <r>  0.2974  0.1468  0.0000 </r>
        <r>  0.2974  0.1468  0.0000 </r>
       </set>
       <set comment="band 9">
        <r>  0.0009  0.0119  0.0000 </r>
        <r>  0.0009  0.0119  0.0000 </r>
       </set>
       <set comment="band 10">
        <r>  0.0017  0.0164  0.0000 </r>
        <r>  0.0017  0.0164  0.0000 </r>
       </set>
       <set comment="band 11">
        <r>  0.0025  0.0197  0.0000 </r>
        <r>  0.0025  0.0197  0.0000 </r>
       </set>
       <set comment="band 12">
        <r>  0.0025  0.0071  0.0000 </r>
        <r>  0.0025  0.0071  0.0000 </r>
       </set>
       <set comment="band 13">
        <r>  0.0057  0.0297  0.0000 </r>
        <r>  0.0057  0.0297  0.0000 </r>
       </set>
       <set comment="band 14">
        <r>  0.0053  0.0102  0.0000 </r>
        <r>  0.0053  0.0102  0.0000 </r>
       </set>
       <set comment="band 15">
        <r>  0.0112  0.0326  0.0000 </r>
        <r>  0.0112  0.0326  0.0000 </r>
       </set>
       <set comment="band 16">
        <r>  0.0076  0.0142  0.0000 </r>
        <r>  0.0076  0.0142  0.0000 </r>
       </set>
      </set>
     </set>
    </set>
   </array>
  </projected>
 </calculation>
 <structure name="finalpos" >
  <crystal>
   <varray name="basis" >
    <v>       2.29449859       0.00000000       0.00000000 </v>
    <v>      -1.14724930       1.98709407       0.00000000 </v>
    <v>       0.00000000       0.00000000      16.00000000 </v>
   </varray>
   <i name="volume">     72.95015287 </i>
   <varray name="rec_basis" >
    <v>       0.43582507       0.25162372       0.00000000 </v>
    <v>       0.00000000       0.50324744       0.00000000 </v>
    <v>       0.00000000       0.00000000       0.06250000 </v>
   </varray>
  </crystal>
  <varray name="positions" >
   <v>       0.66666667       0.33333333       0.47822185 </v>
   <v>       0.33333333       0.66666667       0.52177815 </v>
  </varray>
 </structure>
</modeling>
