   2   2   1   0
  0.3647508E+02  0.2294499E-09  0.2294499E-09  0.1600000E-08  0.1000000E-16
  1.000000000000000E-004
  CAR 
 unknown system                          
     17.95804027    -32.32364966 6001     -5.12950475      1.00000000
    -32.324  0.0000E+00  0.0000E+00
    -32.315  0.0000E+00  0.0000E+00
    -32.307  0.0000E+00  0.0000E+00
    -32.299  0.0000E+00  0.0000E+00
    -32.290  0.0000E+00  0.0000E+00
    -32.282  0.0000E+00  0.0000E+00
    -32.273  0.0000E+00  0.0000E+00
    -32.265  0.0000E+00  0.0000E+00
    -32.257  0.0000E+00  0.0000E+00
    -32.248  0.0000E+00  0.0000E+00
    -32.240  0.0000E+00  0.0000E+00
    -32.231  0.0000E+00  0.0000E+00
    -32.223  0.0000E+00  0.0000E+00
    -32.215  0.0000E+00  0.0000E+00
    -32.206  0.0000E+00  0.0000E+00
    -32.198  0.0000E+00  0.0000E+00
    -32.190  0.0000E+00  0.0000E+00
    -32.181  0.0000E+00  0.0000E+00
    -32.173  0.0000E+00  0.0000E+00
    -32.164  0.0000E+00  0.0000E+00
    -32.156  0.0000E+00  0.0000E+00
    -32.148  0.0000E+00  0.0000E+00
    -32.139  0.0000E+00  0.0000E+00
    -32.131  0.0000E+00  0.0000E+00
    -32.123  0.0000E+00  0.0000E+00
    -32.114  0.0000E+00  0.0000E+00
    -32.106  0.0000E+00  0.0000E+00
    -32.097  0.0000E+00  0.0000E+00
    -32.089  0.0000E+00  0.0000E+00
    -32.081  0.0000E+00  0.0000E+00
    -32.072  0.0000E+00  0.0000E+00
    -32.064  0.0000E+00  0.0000E+00
    -32.055  0.0000E+00  0.0000E+00
    -32.047  0.0000E+00  0.0000E+00
    -32.039  0.0000E+00  0.0000E+00
    -32.030  0.0000E+00  0.0000E+00
    -32.022  0.0000E+00  0.0000E+00
    -32.014  0.0000E+00  0.0000E+00
    -32.005  0.0000E+00  0.0000E+00
    -31.997  0.0000E+00  0.0000E+00
    -31.988  0.0000E+00  0.0000E+00
    -31.980  0.0000E+00  0.0000E+00
    -31.972  0.0000E+00  0.0000E+00
    -31.963  0.0000E+00  0.0000E+00
    -31.955  0.0000E+00  0.0000E+00
    -31.947  0.0000E+00  0.0000E+00
    -31.938  0.0000E+00  0.0000E+00
    -31.930  0.0000E+00  0.0000E+00
    -31.921  0.0000E+00  0.0000E+00
    -31.913  0.0000E+00  0.0000E+00
    -31.905  0.0000E+00  0.0000E+00
    -31.896  0.0000E+00  0.0000E+00
    -31.888  0.0000E+00  0.0000E+00
    -31.879  0.0000E+00  0.0000E+00
    -31.871  0.0000E+00  0.0000E+00
    -31.863  0.0000E+00  0.0000E+00
    -31.854  0.0000E+00  0.0000E+00
    -31.846  0.0000E+00  0.0000E+00
    -31.838  0.0000E+00  0.0000E+00
    -31.829  0.0000E+00  0.0000E+00
    -31.821  0.0000E+00  0.0000E+00
    -31.812  0.0000E+00  0.0000E+00
    -31.804  0.0000E+00  0.0000E+00
    -31.796  0.0000E+00  0.0000E+00
    -31.787  0.0000E+00  0.0000E+00
    -31.779  0.0000E+00  0.0000E+00
    -31.771  0.0000E+00  0.0000E+00
    -31.762  0.0000E+00  0.0000E+00
    -31.754  0.0000E+00  0.0000E+00
    -31.745  0.0000E+00  0.0000E+00
    -31.737  0.0000E+00  0.0000E+00
    -31.729  0.0000E+00  0.0000E+00
    -31.720  0.0000E+00  0.0000E+00
    -31.712  0.0000E+00  0.0000E+00
    -31.704  0.0000E+00  0.0000E+00
    -31.695  0.0000E+00  0.0000E+00
    -31.687  0.0000E+00  0.0000E+00
    -31.678  0.0000E+00  0.0000E+00
    -31.670  0.0000E+00  0.0000E+00
    -31.662  0.0000E+00  0.0000E+00
    -31.653  0.0000E+00  0.0000E+00
    -31.645  0.0000E+00  0.0000E+00
    -31.636  0.0000E+00  0.0000E+00
    -31.628  0.0000E+00  0.0000E+00
    -31.620  0.0000E+00  0.0000E+00
    -31.611  0.0000E+00  0.0000E+00
    -31.603  0.0000E+00  0.0000E+00
    -31.595  0.0000E+00  0.0000E+00
    -31.586  0.0000E+00  0.0000E+00
    -31.578  0.0000E+00  0.0000E+00
    -31.569  0.0000E+00  0.0000E+00
    -31.561  0.0000E+00  0.0000E+00
    -31.553  0.0000E+00  0.0000E+00
    -31.544  0.0000E+00  0.0000E+00
    -31.536  0.0000E+00  0.0000E+00
    -31.528  0.0000E+00  0.0000E+00
    -31.519  0.0000E+00  0.0000E+00
    -31.511  0.0000E+00  0.0000E+00
    -31.502  0.0000E+00  0.0000E+00
    -31.494  0.0000E+00  0.0000E+00
    -31.486  0.0000E+00  0.0000E+00
    -31.477  0.0000E+00  0.0000E+00
    -31.469  0.0000E+00  0.0000E+00
    -31.460  0.0000E+00  0.0000E+00
    -31.452  0.0000E+00  0.0000E+00
    -31.444  0.0000E+00  0.0000E+00
    -31.435  0.0000E+00  0.0000E+00
    -31.427  0.0000E+00  0.0000E+00
    -31.419  0.0000E+00  0.0000E+00
    -31.410  0.0000E+00  0.0000E+00
    -31.402  0.0000E+00  0.0000E+00
    -31.393  0.0000E+00  0.0000E+00
    -31.385  0.0000E+00  0.0000E+00
    -31.377  0.0000E+00  0.0000E+00
    -31.368  0.0000E+00  0.0000E+00
    -31.360  0.0000E+00  0.0000E+00
    -31.352  0.0000E+00  0.0000E+00
    -31.343  0.0000E+00  0.0000E+00
    -31.335  0.0000E+00  0.0000E+00
    -31.326  0.0000E+00  0.0000E+00
    -31.318  0.0000E+00  0.0000E+00
    -31.310  0.0000E+00  0.0000E+00
    -31.301  0.0000E+00  0.0000E+00
    -31.293  0.0000E+00  0.0000E+00
    -31.284  0.0000E+00  0.0000E+00
    -31.276  0.0000E+00  0.0000E+00
    -31.268  0.0000E+00  0.0000E+00
    -31.259  0.0000E+00  0.0000E+00
    -31.251  0.0000E+00  0.0000E+00
    -31.243  0.0000E+00  0.0000E+00
    -31.234  0.0000E+00  0.0000E+00
    -31.226  0.0000E+00  0.0000E+00
    -31.217  0.0000E+00  0.0000E+00
    -31.209  0.0000E+00  0.0000E+00
    -31.201  0.0000E+00  0.0000E+00
    -31.192  0.0000E+00  0.0000E+00
    -31.184  0.0000E+00  0.0000E+00
    -31.176  0.0000E+00  0.0000E+00
    -31.167  0.0000E+00  0.0000E+00
    -31.159  0.0000E+00  0.0000E+00
    -31.150  0.0000E+00  0.0000E+00
    -31.142  0.0000E+00  0.0000E+00
    -31.134  0.0000E+00  0.0000E+00
    -31.125  0.0000E+00  0.0000E+00
    -31.117  0.0000E+00  0.0000E+00
    -31.109  0.0000E+00  0.0000E+00
    -31.100  0.0000E+00  0.0000E+00
    -31.092  0.0000E+00  0.0000E+00
    -31.083  0.0000E+00  0.0000E+00
    -31.075  0.0000E+00  0.0000E+00
    -31.067  0.0000E+00  0.0000E+00
    -31.058  0.0000E+00  0.0000E+00
    -31.050  0.0000E+00  0.0000E+00
    -31.041  0.0000E+00  0.0000E+00
    -31.033  0.0000E+00  0.0000E+00
    -31.025  0.0000E+00  0.0000E+00
    -31.016  0.0000E+00  0.0000E+00
    -31.008  0.0000E+00  0.0000E+00
    -31.000  0.0000E+00  0.0000E+00
    -30.991  0.0000E+00  0.0000E+00
    -30.983  0.0000E+00  0.0000E+00
    -30.974  0.0000E+00  0.0000E+00
    -30.966  0.0000E+00  0.0000E+00
    -30.958  0.0000E+00  0.0000E+00
    -30.949  0.0000E+00  0.0000E+00
    -30.941  0.0000E+00  0.0000E+00
    -30.933  0.0000E+00  0.0000E+00
    -30.924  0.0000E+00  0.0000E+00
    -30.916  0.0000E+00  0.0000E+00
    -30.907  0.0000E+00  0.0000E+00
    -30.899  0.0000E+00  0.0000E+00
    -30.891  0.0000E+00  0.0000E+00
    -30.882  0.0000E+00  0.0000E+00
    -30.874  0.0000E+00  0.0000E+00
    -30.865  0.0000E+00  0.0000E+00
    -30.857  0.0000E+00  0.0000E+00
    -30.849  0.0000E+00  0.0000E+00
    -30.840  0.0000E+00  0.0000E+00
    -30.832  0.0000E+00  0.0000E+00
    -30.824  0.0000E+00  0.0000E+00
    -30.815  0.0000E+00  0.0000E+00
    -30.807  0.0000E+00  0.0000E+00
    -30.798  0.0000E+00  0.0000E+00
    -30.790  0.0000E+00  0.0000E+00
    -30.782  0.0000E+00  0.0000E+00
    -30.773  0.0000E+00  0.0000E+00
    -30.765  0.0000E+00  0.0000E+00
    -30.757  0.0000E+00  0.0000E+00
    -30.748  0.0000E+00  0.0000E+00
    -30.740  0.0000E+00  0.0000E+00
    -30.731  0.0000E+00  0.0000E+00
    -30.723  0.0000E+00  0.0000E+00
    -30.715  0.0000E+00  0.0000E+00
    -30.706  0.0000E+00  0.0000E+00
    -30.698  0.0000E+00  0.0000E+00
    -30.689  0.0000E+00  0.0000E+00
    -30.681  0.0000E+00  0.0000E+00
    -30.673  0.0000E+00  0.0000E+00
    -30.664  0.0000E+00  0.0000E+00
    -30.656  0.0000E+00  0.0000E+00
    -30.648  0.0000E+00  0.0000E+00
    -30.639  0.0000E+00  0.0000E+00
    -30.631  0.0000E+00  0.0000E+00
    -30.622  0.0000E+00  0.0000E+00
    -30.614  0.0000E+00  0.0000E+00
    -30.606  0.0000E+00  0.0000E+00
    -30.597  0.0000E+00  0.0000E+00
    -30.589  0.0000E+00  0.0000E+00
    -30.581  0.0000E+00  0.0000E+00
    -30.572  0.0000E+00  0.0000E+00
    -30.564  0.0000E+00  0.0000E+00
    -30.555  0.0000E+00  0.0000E+00
    -30.547  0.0000E+00  0.0000E+00
    -30.539  0.0000E+00  0.0000E+00
    -30.530  0.0000E+00  0.0000E+00
    -30.522  0.0000E+00  0.0000E+00
    -30.514  0.0000E+00  0.0000E+00
    -30.505  0.0000E+00  0.0000E+00
    -30.497  0.0000E+00  0.0000E+00
    -30.488  0.0000E+00  0.0000E+00
    -30.480  0.0000E+00  0.0000E+00
    -30.472  0.0000E+00  0.0000E+00
    -30.463  0.0000E+00  0.0000E+00
    -30.455  0.0000E+00  0.0000E+00
    -30.446  0.0000E+00  0.0000E+00
    -30.438  0.0000E+00  0.0000E+00
    -30.430  0.0000E+00  0.0000E+00
    -30.421  0.0000E+00  0.0000E+00
    -30.413  0.0000E+00  0.0000E+00
    -30.405  0.0000E+00  0.0000E+00
    -30.396  0.0000E+00  0.0000E+00
    -30.388  0.0000E+00  0.0000E+00
    -30.379  0.0000E+00  0.0000E+00
    -30.371  0.0000E+00  0.0000E+00
    -30.363  0.0000E+00  0.0000E+00
    -30.354  0.0000E+00  0.0000E+00
    -30.346  0.0000E+00  0.0000E+00
    -30.338  0.0000E+00  0.0000E+00
    -30.329  0.0000E+00  0.0000E+00
    -30.321  0.0000E+00  0.0000E+00
    -30.312  0.0000E+00  0.0000E+00
    -30.304  0.0000E+00  0.0000E+00
    -30.296  0.0000E+00  0.0000E+00
    -30.287  0.0000E+00  0.0000E+00
    -30.279  0.0000E+00  0.0000E+00
    -30.270  0.0000E+00  0.0000E+00
    -30.262  0.0000E+00  0.0000E+00
    -30.254  0.0000E+00  0.0000E+00
    -30.245  0.0000E+00  0.0000E+00
    -30.237  0.0000E+00  0.0000E+00
    -30.229  0.0000E+00  0.0000E+00
    -30.220  0.0000E+00  0.0000E+00
    -30.212  0.0000E+00  0.0000E+00
    -30.203  0.0000E+00  0.0000E+00
    -30.195  0.0000E+00  0.0000E+00
    -30.187  0.0000E+00  0.0000E+00
    -30.178  0.0000E+00  0.0000E+00
    -30.170  0.0000E+00  0.0000E+00
    -30.162  0.0000E+00  0.0000E+00
    -30.153  0.0000E+00  0.0000E+00
    -30.145  0.0000E+00  0.0000E+00
    -30.136  0.0000E+00  0.0000E+00
    -30.128  0.0000E+00  0.0000E+00
    -30.120  0.0000E+00  0.0000E+00
    -30.111  0.0000E+00  0.0000E+00
    -30.103  0.0000E+00  0.0000E+00
    -30.094  0.4637E-15  0.3886E-17
    -30.086  0.3399E-11  0.2849E-13
    -30.078  0.6298E-08  0.5281E-10
    -30.069  0.2974E-05  0.2498E-07
    -30.061  0.3634E-03  0.3071E-05
    -30.053  0.1176E-01  0.1016E-03
    -30.044  0.1038E+00  0.9718E-03
    -30.036  0.2580E+00  0.3134E-02
    -30.027  0.1835E+00  0.4671E-02
    -30.019  0.3711E-01  0.4982E-02
    -30.011  0.2078E-02  0.5000E-02
    -30.002  0.3174E-04  0.5000E-02
    -29.994  0.1452E-03  0.5001E-02
    -29.986  0.1035E-01  0.5088E-02
    -29.977  0.1978E+00  0.6746E-02
    -29.969  0.1045E+01  0.1550E-01
    -29.960  0.1568E+01  0.2865E-01
    -29.952  0.6739E+00  0.3429E-01
    -29.944  0.8159E-01  0.3498E-01
    -29.935  0.2700E-02  0.3500E-01
    -29.927  0.2369E-04  0.3500E-01
    -29.919  0.5386E-07  0.3500E-01
    -29.910  0.3122E-10  0.3500E-01
    -29.902  0.4769E-14  0.3500E-01
    -29.893  0.0000E+00  0.3500E-01
    -29.885  0.0000E+00  0.3500E-01
    -29.877  0.2087E-13  0.3500E-01
    -29.868  0.1144E-09  0.3500E-01
    -29.860  0.1580E-06  0.3500E-01
    -29.851  0.5581E-04  0.3500E-01
    -29.843  0.5123E-02  0.3504E-01
    -29.835  0.1252E+00  0.3609E-01
    -29.826  0.8412E+00  0.4314E-01
    -29.818  0.1598E+01  0.5654E-01
    -29.810  0.8701E+00  0.6383E-01
    -29.801  0.1341E+00  0.6495E-01
    -29.793  0.5681E-02  0.6500E-01
    -29.784  0.6642E-04  0.6500E-01
    -29.776  0.4475E-03  0.6500E-01
    -29.768  0.2334E-01  0.6520E-01
    -29.759  0.3284E+00  0.6795E-01
    -29.751  0.1287E+01  0.7874E-01
    -29.743  0.1439E+01  0.9079E-01
    -29.734  0.4597E+00  0.9465E-01
    -29.726  0.4112E-01  0.9499E-01
    -29.717  0.9977E-03  0.9500E-01
    -29.709  0.6379E-05  0.9500E-01
    -29.701  0.1052E-07  0.9500E-01
    -29.692  0.4412E-11  0.9500E-01
    -29.684  0.3974E-15  0.9500E-01
    -29.675  0.0000E+00  0.9500E-01
    -29.667  0.0000E+00  0.9500E-01
    -29.659  0.0000E+00  0.9500E-01
    -29.650  0.0000E+00  0.9500E-01
    -29.642  0.0000E+00  0.9500E-01
    -29.634  0.0000E+00  0.9500E-01
    -29.625  0.0000E+00  0.9500E-01
    -29.617  0.0000E+00  0.9500E-01
    -29.608  0.0000E+00  0.9500E-01
    -29.600  0.0000E+00  0.9500E-01
    -29.592  0.3974E-14  0.9500E-01
    -29.583  0.2949E-10  0.9500E-01
    -29.575  0.5768E-07  0.9500E-01
    -29.567  0.2873E-04  0.9500E-01
    -29.558  0.3702E-02  0.9503E-01
    -29.550  0.1262E+00  0.9609E-01
    -29.541  0.1172E+01  0.1059E+00
    -29.533  0.3058E+01  0.1315E+00
    -29.525  0.2285E+01  0.1507E+00
    -29.516  0.4858E+00  0.1548E+00
    -29.508  0.2863E-01  0.1550E+00
    -29.499  0.4531E-03  0.1550E+00
    -29.491  0.1875E-05  0.1550E+00
    -29.483  0.1991E-08  0.1550E+00
    -29.474  0.5358E-12  0.1550E+00
    -29.466  0.0000E+00  0.1550E+00
    -29.458  0.0000E+00  0.1550E+00
    -29.449  0.9936E-15  0.1550E+00
    -29.441  0.8320E-11  0.1550E+00
    -29.432  0.1789E-07  0.1550E+00
    -29.424  0.9787E-05  0.1550E+00
    -29.416  0.1383E-02  0.1550E+00
    -29.407  0.5160E-01  0.1554E+00
    -29.399  0.5235E+00  0.1598E+00
    -29.391  0.1490E+01  0.1723E+00
    -29.382  0.1213E+01  0.1825E+00
    -29.374  0.2814E+00  0.1848E+00
    -29.365  0.1814E-01  0.1850E+00
    -29.357  0.3145E-03  0.1850E+00
    -29.349  0.1428E-05  0.1850E+00
    -29.340  0.1666E-08  0.1850E+00
    -29.332  0.4928E-12  0.1850E+00
    -29.324  0.0000E+00  0.1850E+00
    -29.315  0.0000E+00  0.1850E+00
    -29.307  0.0000E+00  0.1850E+00
    -29.298  0.0000E+00  0.1850E+00
    -29.290  0.0000E+00  0.1850E+00
    -29.282  0.0000E+00  0.1850E+00
    -29.273  0.0000E+00  0.1850E+00
    -29.265  0.0000E+00  0.1850E+00
    -29.256  0.0000E+00  0.1850E+00
    -29.248  0.0000E+00  0.1850E+00
    -29.240  0.0000E+00  0.1850E+00
    -29.231  0.6836E-13  0.1850E+00
    -29.223  0.3129E-09  0.1850E+00
    -29.215  0.3626E-06  0.1850E+00
    -29.206  0.1076E-03  0.1850E+00
    -29.198  0.8316E-02  0.1851E+00
    -29.189  0.1719E+00  0.1865E+00
    -29.181  0.9800E+00  0.1947E+00
    -29.173  0.1585E+01  0.2080E+00
    -29.164  0.7346E+00  0.2142E+00
    -29.156  0.9605E-01  0.2150E+00
    -29.148  0.3440E-02  0.2150E+00
    -29.139  0.4829E-04  0.2150E+00
    -29.131  0.2324E-02  0.2150E+00
    -29.122  0.9147E-01  0.2158E+00
    -29.114  0.9775E+00  0.2240E+00
    -29.106  0.2927E+01  0.2485E+00
    -29.097  0.2507E+01  0.2695E+00
    -29.089  0.6120E+00  0.2746E+00
    -29.080  0.4155E-01  0.2750E+00
    -29.072  0.7603E-03  0.2750E+00
    -29.064  0.3647E-05  0.2750E+00
    -29.055  0.4496E-08  0.2750E+00
    -29.047  0.1405E-11  0.2750E+00
    -29.039  0.0000E+00  0.2750E+00
    -29.030  0.0000E+00  0.2750E+00
    -29.022  0.0000E+00  0.2750E+00
    -29.013  0.0000E+00  0.2750E+00
    -29.005  0.0000E+00  0.2750E+00
    -28.997  0.0000E+00  0.2750E+00
    -28.988  0.0000E+00  0.2750E+00
    -28.980  0.0000E+00  0.2750E+00
    -28.972  0.0000E+00  0.2750E+00
    -28.963  0.0000E+00  0.2750E+00
    -28.955  0.0000E+00  0.2750E+00
    -28.946  0.1482E-12  0.2750E+00
    -28.938  0.6033E-09  0.2750E+00
    -28.930  0.6220E-06  0.2750E+00
    -28.921  0.1643E-03  0.2750E+00
    -28.913  0.1134E-01  0.2751E+00
    -28.904  0.2096E+00  0.2769E+00
    -28.896  0.1072E+01  0.2858E+00
    -28.888  0.1559E+01  0.2989E+00
    -28.879  0.6489E+00  0.3043E+00
    -28.871  0.7605E-01  0.3050E+00
    -28.863  0.2434E-02  0.3050E+00
    -28.854  0.2065E-04  0.3050E+00
    -28.846  0.4535E-07  0.3050E+00
    -28.837  0.2539E-10  0.3050E+00
    -28.829  0.3577E-14  0.3050E+00
    -28.821  0.0000E+00  0.3050E+00
    -28.812  0.0000E+00  0.3050E+00
    -28.804  0.0000E+00  0.3050E+00
    -28.796  0.0000E+00  0.3050E+00
    -28.787  0.0000E+00  0.3050E+00
    -28.779  0.0000E+00  0.3050E+00
    -28.770  0.0000E+00  0.3050E+00
    -28.762  0.0000E+00  0.3050E+00
    -28.754  0.0000E+00  0.3050E+00
    -28.745  0.0000E+00  0.3050E+00
    -28.737  0.1033E-13  0.3050E+00
    -28.729  0.6986E-10  0.3050E+00
    -28.720  0.1183E-06  0.3050E+00
    -28.712  0.5105E-04  0.3050E+00
    -28.703  0.5711E-02  0.3050E+00
    -28.695  0.1695E+00  0.3065E+00
    -28.687  0.1375E+01  0.3180E+00
    -28.678  0.3146E+01  0.3444E+00
    -28.670  0.2060E+01  0.3616E+00
    -28.661  0.3832E+00  0.3648E+00
    -28.653  0.1970E-01  0.3650E+00
    -28.645  0.2710E-03  0.3650E+00
    -28.636  0.9726E-06  0.3650E+00
    -28.628  0.8942E-09  0.3650E+00
    -28.620  0.2083E-12  0.3650E+00
    -28.611  0.0000E+00  0.3650E+00
    -28.603  0.0000E+00  0.3650E+00
    -28.594  0.5524E-13  0.3650E+00
    -28.586  0.2892E-09  0.3650E+00
    -28.578  0.3837E-06  0.3650E+00
    -28.569  0.1302E-03  0.3650E+00
    -28.561  0.1148E-01  0.3651E+00
    -28.553  0.2700E+00  0.3674E+00
    -28.544  0.1746E+01  0.3820E+00
    -28.536  0.3197E+01  0.4088E+00
    -28.527  0.1677E+01  0.4228E+00
    -28.519  0.2487E+00  0.4249E+00
    -28.511  0.1014E-01  0.4250E+00
    -28.502  0.1100E-03  0.4250E+00
    -28.494  0.3105E-06  0.4250E+00
    -28.485  0.2238E-09  0.4250E+00
    -28.477  0.4133E-13  0.4250E+00
    -28.469  0.0000E+00  0.4250E+00
    -28.460  0.0000E+00  0.4250E+00
    -28.452  0.0000E+00  0.4250E+00
    -28.444  0.0000E+00  0.4250E+00
    -28.435  0.0000E+00  0.4250E+00
    -28.427  0.0000E+00  0.4250E+00
    -28.418  0.0000E+00  0.4250E+00
    -28.410  0.0000E+00  0.4250E+00
    -28.402  0.0000E+00  0.4250E+00
    -28.393  0.0000E+00  0.4250E+00
    -28.385  0.0000E+00  0.4250E+00
    -28.377  0.0000E+00  0.4250E+00
    -28.368  0.0000E+00  0.4250E+00
    -28.360  0.0000E+00  0.4250E+00
    -28.351  0.0000E+00  0.4250E+00
    -28.343  0.0000E+00  0.4250E+00
    -28.335  0.0000E+00  0.4250E+00
    -28.326  0.0000E+00  0.4250E+00
    -28.318  0.1987E-15  0.4250E+00
    -28.309  0.2289E-11  0.4250E+00
    -28.301  0.6069E-08  0.4250E+00
    -28.293  0.4087E-05  0.4250E+00
    -28.284  0.7091E-03  0.4250E+00
    -28.276  0.3235E-01  0.4253E+00
    -28.268  0.3995E+00  0.4286E+00
    -28.259  0.1378E+01  0.4402E+00
    -28.251  0.1357E+01  0.4515E+00
    -28.242  0.3817E+00  0.4547E+00
    -28.234  0.2996E-01  0.4550E+00
    -28.226  0.6359E-03  0.4550E+00
    -28.217  0.3548E-05  0.4550E+00
    -28.209  0.5097E-08  0.4550E+00
    -28.201  0.1860E-11  0.4550E+00
    -28.192  0.0000E+00  0.4550E+00
    -28.184  0.0000E+00  0.4550E+00
    -28.175  0.1391E-14  0.4550E+00
    -28.167  0.1112E-10  0.4550E+00
    -28.159  0.2280E-07  0.4550E+00
    -28.150  0.1189E-04  0.4550E+00
    -28.142  0.1604E-02  0.4550E+00
    -28.134  0.5716E-01  0.4555E+00
    -28.125  0.5546E+00  0.4601E+00
    -28.117  0.1511E+01  0.4728E+00
    -28.108  0.1178E+01  0.4827E+00
    -28.100  0.2614E+00  0.4849E+00
    -28.092  0.1610E-01  0.4850E+00
    -28.083  0.2708E-03  0.4850E+00
    -28.075  0.8395E-03  0.4850E+00
    -28.066  0.4456E-01  0.4854E+00
    -28.058  0.6386E+00  0.4907E+00
    -28.050  0.2547E+01  0.5121E+00
    -28.041  0.2898E+01  0.5364E+00
    -28.033  0.9424E+00  0.5443E+00
    -28.025  0.8583E-01  0.5450E+00
    -28.016  0.2121E-02  0.5450E+00
    -28.008  0.1382E-04  0.5450E+00
    -27.999  0.2324E-07  0.5450E+00
    -27.991  0.9934E-11  0.5450E+00
    -27.983  0.1590E-14  0.5450E+00
    -27.974  0.0000E+00  0.5450E+00
    -27.966  0.0000E+00  0.5450E+00
    -27.958  0.0000E+00  0.5450E+00
    -27.949  0.0000E+00  0.5450E+00
    -27.941  0.0000E+00  0.5450E+00
    -27.932  0.0000E+00  0.5450E+00
    -27.924  0.0000E+00  0.5450E+00
    -27.916  0.0000E+00  0.5450E+00
    -27.907  0.0000E+00  0.5450E+00
    -27.899  0.7949E-15  0.5450E+00
    -27.890  0.7160E-11  0.5450E+00
    -27.882  0.1766E-07  0.5450E+00
    -27.874  0.1108E-04  0.5450E+00
    -27.865  0.1791E-02  0.5450E+00
    -27.857  0.7623E-01  0.5457E+00
    -27.849  0.8798E+00  0.5530E+00
    -27.840  0.2840E+01  0.5768E+00
    -27.832  0.2620E+01  0.5988E+00
    -27.823  0.6898E+00  0.6046E+00
    -27.815  0.5060E-01  0.6050E+00
    -27.807  0.1002E-02  0.6050E+00
    -27.798  0.5209E-05  0.6050E+00
    -27.790  0.6966E-08  0.6050E+00
    -27.782  0.2365E-11  0.6050E+00
    -27.773  0.0000E+00  0.6050E+00
    -27.765  0.0000E+00  0.6050E+00
    -27.756  0.0000E+00  0.6050E+00
    -27.748  0.0000E+00  0.6050E+00
    -27.740  0.0000E+00  0.6050E+00
    -27.731  0.0000E+00  0.6050E+00
    -27.723  0.0000E+00  0.6050E+00
    -27.714  0.0000E+00  0.6050E+00
    -27.706  0.0000E+00  0.6050E+00
    -27.698  0.0000E+00  0.6050E+00
    -27.689  0.0000E+00  0.6050E+00
    -27.681  0.0000E+00  0.6050E+00
    -27.673  0.0000E+00  0.6050E+00
    -27.664  0.0000E+00  0.6050E+00
    -27.656  0.0000E+00  0.6050E+00
    -27.647  0.0000E+00  0.6050E+00
    -27.639  0.0000E+00  0.6050E+00
    -27.631  0.0000E+00  0.6050E+00
    -27.622  0.0000E+00  0.6050E+00
    -27.614  0.0000E+00  0.6050E+00
    -27.606  0.0000E+00  0.6050E+00
    -27.597  0.0000E+00  0.6050E+00
    -27.589  0.0000E+00  0.6050E+00
    -27.580  0.0000E+00  0.6050E+00
    -27.572  0.0000E+00  0.6050E+00
    -27.564  0.0000E+00  0.6050E+00
    -27.555  0.1987E-15  0.6050E+00
    -27.547  0.1325E-11  0.6050E+00
    -27.539  0.3834E-08  0.6050E+00
    -27.530  0.2815E-05  0.6050E+00
    -27.522  0.5321E-03  0.6050E+00
    -27.513  0.2640E-01  0.6052E+00
    -27.505  0.3539E+00  0.6082E+00
    -27.497  0.1322E+01  0.6193E+00
    -27.488  0.1410E+01  0.6311E+00
    -27.480  0.4295E+00  0.6347E+00
    -27.471  0.3659E-01  0.6350E+00
    -27.463  0.8448E-03  0.6350E+00
    -27.455  0.5382E-04  0.6350E+00
    -27.446  0.5511E-02  0.6350E+00
    -27.438  0.1654E+00  0.6364E+00
    -27.430  0.1358E+01  0.6478E+00
    -27.421  0.3140E+01  0.6741E+00
    -27.413  0.2079E+01  0.6915E+00
    -27.404  0.3911E+00  0.6948E+00
    -27.396  0.2033E-01  0.6950E+00
    -27.388  0.2831E-03  0.6950E+00
    -27.379  0.1028E-05  0.6950E+00
    -27.371  0.9567E-09  0.6950E+00
    -27.363  0.2257E-12  0.6950E+00
    -27.354  0.0000E+00  0.6950E+00
    -27.346  0.1192E-14  0.6950E+00
    -27.337  0.1219E-10  0.6950E+00
    -27.329  0.2757E-07  0.6950E+00
    -27.321  0.1587E-04  0.6950E+00
    -27.312  0.2357E-02  0.6950E+00
    -27.304  0.9236E-01  0.6958E+00
    -27.295  0.9830E+00  0.7040E+00
    -27.287  0.2932E+01  0.7286E+00
    -27.279  0.2500E+01  0.7496E+00
    -27.270  0.6079E+00  0.7546E+00
    -27.262  0.4111E-01  0.7550E+00
    -27.254  0.7489E-03  0.7550E+00
    -27.245  0.3577E-05  0.7550E+00
    -27.237  0.4390E-08  0.7550E+00
    -27.228  0.1367E-11  0.7550E+00
    -27.220  0.0000E+00  0.7550E+00
    -27.212  0.0000E+00  0.7550E+00
    -27.203  0.0000E+00  0.7550E+00
    -27.195  0.0000E+00  0.7550E+00
    -27.187  0.0000E+00  0.7550E+00
    -27.178  0.0000E+00  0.7550E+00
    -27.170  0.0000E+00  0.7550E+00
    -27.161  0.0000E+00  0.7550E+00
    -27.153  0.0000E+00  0.7550E+00
    -27.145  0.0000E+00  0.7550E+00
    -27.136  0.0000E+00  0.7550E+00
    -27.128  0.0000E+00  0.7550E+00
    -27.119  0.0000E+00  0.7550E+00
    -27.111  0.0000E+00  0.7550E+00
    -27.103  0.0000E+00  0.7550E+00
    -27.094  0.0000E+00  0.7550E+00
    -27.086  0.0000E+00  0.7550E+00
    -27.078  0.0000E+00  0.7550E+00
    -27.069  0.2194E-11  0.7550E+00
    -27.061  0.6540E-08  0.7550E+00
    -27.052  0.4948E-05  0.7550E+00
    -27.044  0.9629E-03  0.7550E+00
    -27.036  0.4919E-01  0.7554E+00
    -27.027  0.6781E+00  0.7611E+00
    -27.019  0.2604E+01  0.7829E+00
    -27.011  0.2853E+01  0.8068E+00
    -27.002  0.8936E+00  0.8143E+00
    -26.994  0.7830E-01  0.8150E+00
    -26.985  0.1860E-02  0.8150E+00
    -26.977  0.1164E-04  0.8150E+00
    -26.969  0.1878E-07  0.8150E+00
    -26.960  0.7706E-11  0.8150E+00
    -26.952  0.7949E-15  0.8150E+00
    -26.944  0.0000E+00  0.8150E+00
    -26.935  0.0000E+00  0.8150E+00
    -26.927  0.0000E+00  0.8150E+00
    -26.918  0.0000E+00  0.8150E+00
    -26.910  0.0000E+00  0.8150E+00
    -26.902  0.0000E+00  0.8150E+00
    -26.893  0.0000E+00  0.8150E+00
    -26.885  0.0000E+00  0.8150E+00
    -26.876  0.0000E+00  0.8150E+00
    -26.868  0.0000E+00  0.8150E+00
    -26.860  0.0000E+00  0.8150E+00
    -26.851  0.0000E+00  0.8150E+00
    -26.843  0.0000E+00  0.8150E+00
    -26.835  0.0000E+00  0.8150E+00
    -26.826  0.0000E+00  0.8150E+00
    -26.818  0.0000E+00  0.8150E+00
    -26.809  0.0000E+00  0.8150E+00
    -26.801  0.0000E+00  0.8150E+00
    -26.793  0.0000E+00  0.8150E+00
    -26.784  0.0000E+00  0.8150E+00
    -26.776  0.0000E+00  0.8150E+00
    -26.768  0.0000E+00  0.8150E+00
    -26.759  0.0000E+00  0.8150E+00
    -26.751  0.0000E+00  0.8150E+00
    -26.742  0.0000E+00  0.8150E+00
    -26.734  0.0000E+00  0.8150E+00
    -26.726  0.1685E-12  0.8150E+00
    -26.717  0.6728E-09  0.8150E+00
    -26.709  0.6801E-06  0.8150E+00
    -26.700  0.1763E-03  0.8150E+00
    -26.692  0.1193E-01  0.8151E+00
    -26.684  0.2165E+00  0.8169E+00
    -26.675  0.1088E+01  0.8260E+00
    -26.667  0.1553E+01  0.8390E+00
    -26.659  0.6350E+00  0.8444E+00
    -26.650  0.7308E-01  0.8450E+00
    -26.642  0.3620E-02  0.8450E+00
    -26.633  0.5085E-01  0.8454E+00
    -26.625  0.5591E+00  0.8501E+00
    -26.617  0.2125E+01  0.8679E+00
    -26.608  0.3776E+01  0.8996E+00
    -26.600  0.3182E+01  0.9262E+00
    -26.592  0.9573E+00  0.9343E+00
    -26.583  0.8555E-01  0.9350E+00
    -26.575  0.2101E-02  0.9350E+00
    -26.566  0.1364E-04  0.9350E+00
    -26.558  0.2286E-07  0.9350E+00
    -26.550  0.9737E-11  0.9350E+00
    -26.541  0.1590E-14  0.9350E+00
    -26.533  0.0000E+00  0.9350E+00
    -26.524  0.0000E+00  0.9350E+00
    -26.516  0.0000E+00  0.9350E+00
    -26.508  0.0000E+00  0.9350E+00
    -26.499  0.0000E+00  0.9350E+00
    -26.491  0.0000E+00  0.9350E+00
    -26.483  0.0000E+00  0.9350E+00
    -26.474  0.0000E+00  0.9350E+00
    -26.466  0.2432E-12  0.9350E+00
    -26.457  0.1020E-08  0.9350E+00
    -26.449  0.1084E-05  0.9350E+00
    -26.441  0.2950E-03  0.9350E+00
    -26.432  0.2096E-01  0.9352E+00
    -26.424  0.3988E+00  0.9385E+00
    -26.416  0.2098E+01  0.9561E+00
    -26.407  0.3134E+01  0.9824E+00
    -26.399  0.1341E+01  0.9936E+00
    -26.390  0.1617E+00  0.9950E+00
    -26.382  0.5326E-02  0.9950E+00
    -26.374  0.4652E-04  0.9950E+00
    -26.365  0.1053E-06  0.9950E+00
    -26.357  0.6074E-10  0.9950E+00
    -26.349  0.8744E-14  0.9950E+00
    -26.340  0.0000E+00  0.9950E+00
    -26.332  0.0000E+00  0.9950E+00
    -26.323  0.0000E+00  0.9950E+00
    -26.315  0.0000E+00  0.9950E+00
    -26.307  0.0000E+00  0.9950E+00
    -26.298  0.0000E+00  0.9950E+00
    -26.290  0.0000E+00  0.9950E+00
    -26.281  0.0000E+00  0.9950E+00
    -26.273  0.0000E+00  0.9950E+00
    -26.265  0.0000E+00  0.9950E+00
    -26.256  0.0000E+00  0.9950E+00
    -26.248  0.0000E+00  0.9950E+00
    -26.240  0.0000E+00  0.9950E+00
    -26.231  0.0000E+00  0.9950E+00
    -26.223  0.0000E+00  0.9950E+00
    -26.214  0.0000E+00  0.9950E+00
    -26.206  0.0000E+00  0.9950E+00
    -26.198  0.0000E+00  0.9950E+00
    -26.189  0.0000E+00  0.9950E+00
    -26.181  0.0000E+00  0.9950E+00
    -26.173  0.0000E+00  0.9950E+00
    -26.164  0.0000E+00  0.9950E+00
    -26.156  0.0000E+00  0.9950E+00
    -26.147  0.6915E-13  0.9950E+00
    -26.139  0.3503E-09  0.9950E+00
    -26.131  0.4495E-06  0.9950E+00
    -26.122  0.1475E-03  0.9950E+00
    -26.114  0.1260E-01  0.9951E+00
    -26.105  0.2869E+00  0.9975E+00
    -26.097  0.1799E+01  0.1013E+01
    -26.089  0.3194E+01  0.1039E+01
    -26.080  0.1625E+01  0.1053E+01
    -26.072  0.2336E+00  0.1055E+01
    -26.064  0.9224E-02  0.1055E+01
    -26.055  0.9692E-04  0.1055E+01
    -26.047  0.2645E-06  0.1055E+01
    -26.038  0.1844E-09  0.1055E+01
    -26.030  0.3259E-13  0.1055E+01
    -26.022  0.0000E+00  0.1055E+01
    -26.013  0.0000E+00  0.1055E+01
    -26.005  0.0000E+00  0.1055E+01
    -25.997  0.0000E+00  0.1055E+01
    -25.988  0.0000E+00  0.1055E+01
    -25.980  0.0000E+00  0.1055E+01
    -25.971  0.0000E+00  0.1055E+01
    -25.963  0.0000E+00  0.1055E+01
    -25.955  0.0000E+00  0.1055E+01
    -25.946  0.0000E+00  0.1055E+01
    -25.938  0.0000E+00  0.1055E+01
    -25.929  0.0000E+00  0.1055E+01
    -25.921  0.0000E+00  0.1055E+01
    -25.913  0.0000E+00  0.1055E+01
    -25.904  0.0000E+00  0.1055E+01
    -25.896  0.0000E+00  0.1055E+01
    -25.888  0.0000E+00  0.1055E+01
    -25.879  0.0000E+00  0.1055E+01
    -25.871  0.0000E+00  0.1055E+01
    -25.862  0.1085E-12  0.1055E+01
    -25.854  0.5152E-09  0.1055E+01
    -25.846  0.6179E-06  0.1055E+01
    -25.837  0.1896E-03  0.1055E+01
    -25.829  0.1516E-01  0.1055E+01
    -25.821  0.3237E+00  0.1058E+01
    -25.812  0.1906E+01  0.1074E+01
    -25.804  0.3181E+01  0.1100E+01
    -25.795  0.1521E+01  0.1113E+01
    -25.787  0.2054E+00  0.1115E+01
    -25.779  0.7599E-02  0.1115E+01
    -25.770  0.7474E-04  0.1115E+01
    -25.762  0.1908E-06  0.1115E+01
    -25.754  0.1243E-09  0.1115E+01
    -25.745  0.2623E-13  0.1115E+01
    -25.737  0.4111E-10  0.1115E+01
    -25.728  0.7607E-07  0.1115E+01
    -25.720  0.3588E-04  0.1115E+01
    -25.712  0.4379E-02  0.1115E+01
    -25.703  0.1415E+00  0.1116E+01
    -25.695  0.1248E+01  0.1127E+01
    -25.686  0.3097E+01  0.1153E+01
    -25.678  0.2207E+01  0.1171E+01
    -25.670  0.5937E+00  0.1176E+01
    -25.661  0.9418E+00  0.1184E+01
    -25.653  0.1596E+01  0.1197E+01
    -25.645  0.7951E+00  0.1204E+01
    -25.636  0.1120E+00  0.1205E+01
    -25.628  0.4328E-02  0.1205E+01
    -25.619  0.4449E-04  0.1205E+01
    -25.611  0.1188E-06  0.1205E+01
    -25.603  0.8098E-10  0.1205E+01
    -25.594  0.1391E-13  0.1205E+01
    -25.586  0.0000E+00  0.1205E+01
    -25.578  0.0000E+00  0.1205E+01
    -25.569  0.0000E+00  0.1205E+01
    -25.561  0.0000E+00  0.1205E+01
    -25.552  0.0000E+00  0.1205E+01
    -25.544  0.0000E+00  0.1205E+01
    -25.536  0.0000E+00  0.1205E+01
    -25.527  0.0000E+00  0.1205E+01
    -25.519  0.0000E+00  0.1205E+01
    -25.510  0.1471E-13  0.1205E+01
    -25.502  0.9319E-10  0.1205E+01
    -25.494  0.1502E-06  0.1205E+01
    -25.485  0.6179E-04  0.1205E+01
    -25.477  0.6591E-02  0.1205E+01
    -25.469  0.1867E+00  0.1207E+01
    -25.460  0.1447E+01  0.1219E+01
    -25.452  0.3166E+01  0.1245E+01
    -25.443  0.1983E+01  0.1262E+01
    -25.435  0.3526E+00  0.1265E+01
    -25.427  0.1730E-01  0.1265E+01
    -25.418  0.2270E-03  0.1265E+01
    -25.410  0.7764E-06  0.1265E+01