Automatically generated mesh
      44
Reciprocal lattice
    0.00000000000000    0.00000000000000    0.00000000000000             1
    0.05000000000000    0.00000000000000    0.00000000000000             6
    0.10000000000000    0.00000000000000    0.00000000000000             6
    0.15000000000000    0.00000000000000    0.00000000000000             6
    0.20000000000000    0.00000000000000    0.00000000000000             6
    0.25000000000000    0.00000000000000    0.00000000000000             6
    0.30000000000000    0.00000000000000    0.00000000000000             6
    0.35000000000000   -0.00000000000000    0.00000000000000             6
    0.40000000000000    0.00000000000000    0.00000000000000             6
    0.45000000000000    0.00000000000000    0.00000000000000             6
    0.50000000000000    0.00000000000000    0.00000000000000             3
    0.05000000000000    0.05000000000000    0.00000000000000             6
    0.10000000000000    0.05000000000000    0.00000000000000            12
    0.15000000000000    0.05000000000000    0.00000000000000            12
    0.20000000000000    0.05000000000000    0.00000000000000            12
    0.25000000000000    0.05000000000000    0.00000000000000            12
    0.30000000000000    0.05000000000000    0.00000000000000            12
    0.35000000000000    0.05000000000000    0.00000000000000            12
    0.40000000000000    0.05000000000000    0.00000000000000            12
    0.45000000000000    0.05000000000000    0.00000000000000            12
    0.10000000000000    0.10000000000000    0.00000000000000             6
    0.15000000000000    0.10000000000000    0.00000000000000            12
    0.20000000000000    0.10000000000000    0.00000000000000            12
    0.25000000000000    0.10000000000000    0.00000000000000            12
    0.30000000000000    0.10000000000000    0.00000000000000            12
    0.35000000000000    0.10000000000000    0.00000000000000            12
    0.40000000000000    0.10000000000000    0.00000000000000            12
    0.45000000000000    0.10000000000000    0.00000000000000             6
    0.15000000000000    0.15000000000000    0.00000000000000             6
    0.20000000000000    0.15000000000000    0.00000000000000            12
    0.25000000000000    0.15000000000000    0.00000000000000            12
    0.30000000000000    0.15000000000000    0.00000000000000            12
    0.35000000000000    0.15000000000000    0.00000000000000            12
    0.40000000000000    0.15000000000000    0.00000000000000            12
    0.20000000000000    0.20000000000000    0.00000000000000             6
    0.25000000000000    0.20000000000000    0.00000000000000            12
    0.30000000000000    0.20000000000000    0.00000000000000            12
    0.35000000000000    0.20000000000000    0.00000000000000            12
    0.40000000000000    0.20000000000000    0.00000000000000             6
    0.25000000000000    0.25000000000000    0.00000000000000             6
    0.30000000000000    0.25000000000000    0.00000000000000            12
    0.35000000000000    0.25000000000000    0.00000000000000            12
    0.30000000000000    0.30000000000000    0.00000000000000             6
    0.35000000000000    0.30000000000000    0.00000000000000             6
