 running   16 mpi-ranks, on    1 nodes
 distrk:  each k-point on   16 cores,    1 groups
 distr:  one band on    1 cores,   16 groups
 vasp.6.4.2 20Jul23 (build Nov 14 2023 12:59:38) complex                        
  
 POSCAR found type information on POSCAR N 
 POSCAR found :  1 types and       2 ions
 Reading from existing POTCAR
 scaLAPACK will be used
 -----------------------------------------------------------------------------
|                                                                             |
|           W    W    AA    RRRRR   N    N  II  N    N   GGGG   !!!           |
|           W    W   A  A   R    R  NN   N  II  NN   N  G    G  !!!           |
|           W    W  A    A  R    R  N N  N  II  N N  N  G       !!!           |
|           W WW W  AAAAAA  RRRRR   N  N N  II  N  N N  G  GGG   !            |
|           WW  WW  A    A  R   R   N   NN  II  N   NN  G    G                |
|           W    W  A    A  R    R  N    N  II  N    N   GGGG   !!!           |
|                                                                             |
|     For optimal performance we recommend to set                             |
|       NCORE = 2 up to number-of-cores-per-socket                            |
|     NCORE specifies how many cores store one orbital (NPAR=cpu/NCORE).      |
|     This setting can greatly improve the performance of VASP for DFT.       |
|     The default, NCORE=1 might be grossly inefficient on modern             |
|     multi-core architectures or massively parallel machines. Do your        |
|     own testing! More info at https://www.vasp.at/wiki/index.php/NCORE      |
|     Unfortunately you need to use the default for GW and RPA                |
|     calculations (for HF NCORE is supported but not extensively tested      |
|     yet).                                                                   |
|                                                                             |
 -----------------------------------------------------------------------------

 Reading from existing POTCAR
 LDA part: xc-table for Pade appr. of Perdew
 -----------------------------------------------------------------------------
|                                                                             |
|           W    W    AA    RRRRR   N    N  II  N    N   GGGG   !!!           |
|           W    W   A  A   R    R  NN   N  II  NN   N  G    G  !!!           |
|           W    W  A    A  R    R  N N  N  II  N N  N  G       !!!           |
|           W WW W  AAAAAA  RRRRR   N  N N  II  N  N N  G  GGG   !            |
|           WW  WW  A    A  R   R   N   NN  II  N   NN  G    G                |
|           W    W  A    A  R    R  N    N  II  N    N   GGGG   !!!           |
|                                                                             |
|     The following INCAR tags have not been used:                            |
|     In line 28: STRESSTYPE                                                  |
|     Please check whether the tags are spelled correctly, have the           |
|     correct format, and do not appear multiple times in the file.           |
|                                                                             |
 -----------------------------------------------------------------------------

 POSCAR, INCAR and KPOINTS ok, starting setup
 FFT: planning ... GRIDC
 FFT: planning ... GRID_SOFT
 FFT: planning ... GRID
 WAVECAR not read
 entering main loop
       N       E                     dE             d eps       ncg     rms          rms(c)
DAV:   1     0.571515549276E+02    0.57152E+02   -0.47340E+03  1424   0.455E+02
DAV:   2    -0.128951784796E+02   -0.70047E+02   -0.64385E+02  2096   0.135E+02
DAV:   3    -0.140397216084E+02   -0.11445E+01   -0.11445E+01  1456   0.195E+01
DAV:   4    -0.140445057427E+02   -0.47841E-02   -0.47841E-02  2368   0.143E+00
DAV:   5    -0.140445131147E+02   -0.73719E-05   -0.73719E-05  1536   0.283E-02
DAV:   6    -0.140445131456E+02   -0.30962E-07   -0.30962E-07  2512   0.169E-03
DAV:   7    -0.140445131459E+02   -0.28604E-09   -0.28652E-09  1536   0.487E-05
DAV:   8    -0.140445131459E+02   -0.11823E-10   -0.11663E-10  1808   0.804E-06
DAV:   9    -0.140445131459E+02   -0.22737E-11   -0.24351E-11  1136   0.406E-06
DAV:  10    -0.140445131459E+02   -0.90949E-12   -0.87779E-12  1248   0.233E-06
DAV:  11    -0.140445131459E+02   -0.45475E-12   -0.36279E-12   880   0.136E-06
DAV:  12    -0.140445131459E+02    0.00000E+00   -0.12451E-12   912   0.825E-07    0.607E+00
DAV:  13    -0.138577560722E+02    0.18676E+00   -0.30128E-02  2032   0.112E+00    0.531E+00
DAV:  14    -0.134197904578E+02    0.43797E+00   -0.14884E+00  2096   0.733E+00    0.731E-01
DAV:  15    -0.134171780031E+02    0.26125E-02   -0.35419E-02  1664   0.134E+00    0.503E-01
DAV:  16    -0.134199778583E+02   -0.27999E-02   -0.39343E-03  1968   0.494E-01    0.594E-02
DAV:  17    -0.134198695525E+02    0.10831E-03   -0.41727E-04  1504   0.134E-01    0.309E-02
DAV:  18    -0.134198901942E+02   -0.20642E-04   -0.75937E-05  2160   0.533E-02    0.752E-03
DAV:  19    -0.134198899474E+02    0.24676E-06   -0.31606E-07  1408   0.413E-03
   1 F= -.13419890E+02 E0= -.13419890E+02  d E =-.110981E-12
 Linear response reoptimize wavefunctions to high precision
DAV:   1    -0.134198894171E+02    0.53034E-06   -0.83916E-06  1600   0.163E-02
DAV:   2    -0.134198894215E+02   -0.44847E-08   -0.44841E-08  1952   0.150E-03
DAV:   3    -0.134198894216E+02   -0.10459E-10   -0.10984E-10  2048   0.579E-05
 Linear response DOF=           2
 Linear response progress:
  Degree of freedom:   1/  2
       N       E                     dE             d eps       ncg     rms          rms(c)
RMM:   1    -0.215031218058E+00   -0.21503E+00    0.30698E-02 15021   0.320E+00
RMM:   2    -0.207491868775E+00    0.75393E-02   -0.43524E-03  9270   0.596E-01    0.246E-01
RMM:   3    -0.207636550903E+00   -0.14468E-03   -0.23434E-04  9729   0.110E-01    0.212E-01
RMM:   4    -0.209045859900E+00   -0.14093E-02   -0.31332E-04  9972   0.124E-01    0.324E-02
RMM:   5    -0.208951992277E+00    0.93868E-04   -0.10808E-05  9564   0.299E-02    0.279E-02
RMM:   6    -0.208426370071E+00    0.52562E-03   -0.14865E-05  9998   0.249E-02    0.688E-03
RMM:   7    -0.208558574806E+00   -0.13220E-03   -0.87105E-07  9296   0.818E-03    0.262E-03
RMM:   8    -0.208566019944E+00   -0.74451E-05   -0.11603E-07 10970   0.280E-03    0.146E-03
RMM:   9    -0.208542128787E+00    0.23891E-04   -0.40704E-08 10538   0.116E-03    0.347E-04
RMM:  10    -0.208545216156E+00   -0.30874E-05   -0.16594E-10 11341   0.274E-04    0.141E-04
RMM:  11    -0.208544688790E+00    0.52737E-06   -0.56113E-11 11529   0.120E-04    0.718E-05
 first order change of Fermi-energy  2.850964039069481E-003
 force on displaced ion       1 direction 1 : -24.751   0.000   0.000
 Linear response progress:
  Degree of freedom:   2/  2
       N       E                     dE             d eps       ncg     rms          rms(c)
RMM:   1    -0.305572295130E+00   -0.30557E+00    0.45219E-02  2971   0.305E+00
RMM:   2    -0.301809959605E+00    0.37623E-02   -0.61864E-03  2276   0.584E-01    0.437E-01
RMM:   3    -0.300723097817E+00    0.10869E-02   -0.32359E-04  2070   0.151E-01    0.348E-01
RMM:   4    -0.299177571672E+00    0.15455E-02   -0.76681E-04  1766   0.248E-01    0.184E-01
RMM:   5    -0.298900031202E+00    0.27754E-03   -0.13813E-03  2961   0.278E-01    0.530E-02
RMM:   6    -0.298932250544E+00   -0.32219E-04   -0.13993E-04  2242   0.728E-02    0.470E-02
RMM:   7    -0.298917599079E+00    0.14651E-04   -0.58153E-06  2332   0.221E-02    0.583E-02
RMM:   8    -0.299237159529E+00   -0.31956E-03   -0.11172E-04  2948   0.984E-02    0.524E-03
RMM:   9    -0.299264459144E+00   -0.27300E-04   -0.19580E-05  2787   0.243E-02    0.429E-03
RMM:  10    -0.299280436200E+00   -0.15977E-04   -0.21572E-06  2103   0.112E-02    0.296E-03
RMM:  11    -0.299316926095E+00   -0.36490E-04   -0.73196E-07  2094   0.101E-02    0.328E-03
RMM:  12    -0.299313068692E+00    0.38574E-05   -0.86219E-08  2295   0.229E-03    0.271E-03
RMM:  13    -0.299300384029E+00    0.12685E-04   -0.13101E-07  2060   0.355E-03    0.834E-04
RMM:  14    -0.299302696298E+00   -0.23123E-05   -0.60635E-08  2433   0.120E-03    0.553E-04
RMM:  15    -0.299302494563E+00    0.20173E-06   -0.76754E-10  2480   0.145E-04    0.529E-04
 first order change of Fermi-energy   4.82909122876407     
 force on displaced ion       1 direction 3 :   0.000  -0.000 -29.853
 Linear response finished
