PROCAR new format
# of k-points:   44         # of bands:   16         # of ions:    2

 k-point     1 :    0.00000000 0.00000000 0.00000000     weight = 0.00250000

band     1 # energy  -30.03811830 # occ.  2.00000000
 
ion      s      p      d    tot
    1  0.319  0.025  0.000  0.344
    2  0.319  0.025  0.000  0.344
tot    0.638  0.051  0.000  0.689
 
band     2 # energy  -14.50269805 # occ.  2.00000000
 
ion      s      p      d    tot
    1  0.148  0.132  0.000  0.280
    2  0.148  0.132  0.000  0.280
tot    0.296  0.263  0.000  0.560
 
band     3 # energy   -8.39382219 # occ.  2.00000000
 
ion      s      p      d    tot
    1  0.000  0.424  0.000  0.424
    2  0.000  0.424  0.000  0.424
tot    0.000  0.847  0.000  0.847
 
band     4 # energy   -8.39381947 # occ.  2.00000000
 
ion      s      p      d    tot
    1  0.000  0.424  0.000  0.424
    2  0.000  0.424  0.000  0.424
tot    0.000  0.847  0.000  0.847
 
band     5 # energy   -5.63194372 # occ.  2.00000000
 
ion      s      p      d    tot
    1  0.003  0.276  0.000  0.279
    2  0.003  0.276  0.000  0.279
tot    0.006  0.553  0.000  0.558
 
band     6 # energy   -0.03625266 # occ.  0.00000000
 
ion      s      p      d    tot
    1  0.000  0.390  0.000  0.390
    2  0.000  0.390  0.000  0.390
tot    0.000  0.780  0.000  0.780
 
band     7 # energy   -0.03624918 # occ.  0.00000000
 
ion      s      p      d    tot
    1  0.000  0.390  0.000  0.390
    2  0.000  0.390  0.000  0.390
tot    0.000  0.780  0.000  0.780
 
band     8 # energy    0.31374939 # occ.  0.00000000
 
ion      s      p      d    tot
    1  0.297  0.147  0.000  0.444
    2  0.297  0.147  0.000  0.444
tot    0.595  0.294  0.000  0.889
 
band     9 # energy    2.07771813 # occ.  0.00000000
 
ion      s      p      d    tot
    1  0.001  0.012  0.000  0.013
    2  0.001  0.012  0.000  0.013
tot    0.002  0.024  0.000  0.025
 
band    10 # energy    2.23105228 # occ.  0.00000000
 
ion      s      p      d    tot
    1  0.002  0.016  0.000  0.018
    2  0.002  0.016  0.000  0.018
tot    0.003  0.033  0.000  0.036
 
band    11 # energy    3.31009909 # occ.  0.00000000
 
ion      s      p      d    tot
    1  0.002  0.020  0.000  0.022
    2  0.002  0.020  0.000  0.022
tot    0.005  0.039  0.000  0.044
 
band    12 # energy    4.29936158 # occ.  0.00000000
 
ion      s      p      d    tot
    1  0.002  0.007  0.000  0.010
    2  0.002  0.007  0.000  0.010
tot    0.005  0.014  0.000  0.019
 
band    13 # energy    6.11727618 # occ.  0.00000000
 
ion      s      p      d    tot
    1  0.006  0.030  0.000  0.035
    2  0.006  0.030  0.000  0.035
tot    0.011  0.059  0.000  0.071
 
band    14 # energy    7.72943533 # occ.  0.00000000
 
ion      s      p      d    tot
    1  0.005  0.010  0.000  0.015
    2  0.005  0.010  0.000  0.015
tot    0.011  0.020  0.000  0.031
 
band    15 # energy   10.12927333 # occ.  0.00000000
 
ion      s      p      d    tot
    1  0.011  0.033  0.000  0.044
    2  0.011  0.033  0.000  0.044
tot    0.022  0.065  0.000  0.088
 
band    16 # energy   12.51853813 # occ.  0.00000000
 
ion      s      p      d    tot
    1  0.008  0.014  0.000  0.022
    2  0.008  0.014  0.000  0.022
tot    0.015  0.028  0.000  0.044
 

 k-point     2 :    0.05000000 0.00000000 0.00000000     weight = 0.01500000

band     1 # energy  -29.96606843 # occ.  2.00000000
 
ion      s      p      d    tot
    1  0.318  0.026  0.000  0.345
    2  0.318  0.026  0.000  0.345
tot    0.637  0.053  0.000  0.689
 
band     2 # energy  -14.43643579 # occ.  2.00000000
 
ion      s      p      d    tot
    1  0.149  0.132  0.000  0.281
    2  0.149  0.132  0.000  0.281
tot    0.298  0.263  0.000  0.561
 
band     3 # energy   -8.79665224 # occ.  2.00000000
 
ion      s      p      d    tot
    1  0.013  0.407  0.000  0.421
    2  0.013  0.407  0.000  0.421
tot    0.027  0.814  0.000  0.841
 
band     4 # energy   -8.52083885 # occ.  2.00000000
 
ion      s      p      d    tot
    1  0.000  0.422  0.000  0.422
    2  0.000  0.422  0.000  0.422
tot    0.000  0.844  0.000  0.844
 
band     5 # energy   -5.59676847 # occ.  2.00000000
 
ion      s      p      d    tot
    1  0.003  0.278  0.000  0.281
    2  0.003  0.278  0.000  0.281
tot    0.006  0.556  0.000  0.563
 
band     6 # energy   -0.08000273 # occ.  0.00000000
 
ion      s      p      d    tot
    1  0.018  0.372  0.000  0.390
    2  0.018  0.372  0.000  0.390
tot    0.037  0.743  0.000  0.780
 
band     7 # energy    0.10343182 # occ.  0.00000000
 
ion      s      p      d    tot
    1  0.000  0.393  0.000  0.393
    2  0.000  0.393  0.000  0.393
tot    0.000  0.785  0.000  0.785
 
band     8 # energy    0.58133375 # occ.  0.00000000
 
ion      s      p      d    tot
    1  0.268  0.176  0.000  0.443
    2  0.268  0.176  0.000  0.443
tot    0.535  0.352  0.000  0.887
 
band     9 # energy    2.17104055 # occ.  0.00000000
 
ion      s      p      d    tot
    1  0.001  0.012  0.000  0.013
    2  0.001  0.012  0.000  0.013
tot    0.001  0.025  0.000  0.026
 
band    10 # energy    2.32224904 # occ.  0.00000000
 
ion      s      p      d    tot
    1  0.002  0.017  0.000  0.018
    2  0.002  0.017  0.000  0.018
tot    0.003  0.034  0.000  0.037
 
band    11 # energy    3.39921072 # occ.  0.00000000
 
ion      s      p      d    tot
    1  0.002  0.020  0.000  0.022
    2  0.002  0.020  0.000  0.022
tot    0.005  0.040  0.000  0.044
 
band    12 # energy    4.39218902 # occ.  0.00000000
 
ion      s      p      d    tot
    1  0.002  0.007  0.000  0.010
    2  0.002  0.007  0.000  0.010
tot    0.005  0.014  0.000  0.019
 
band    13 # energy    6.19882626 # occ.  0.00000000
 
ion      s      p      d    tot
    1  0.006  0.030  0.000  0.035
    2  0.006  0.030  0.000  0.035
tot    0.011  0.059  0.000  0.070
 
band    14 # energy    7.81967668 # occ.  0.00000000
 
ion      s      p      d    tot
    1  0.005  0.010  0.000  0.016
    2  0.005  0.010  0.000  0.016
tot    0.011  0.021  0.000  0.031
 
band    15 # energy   10.19983950 # occ.  0.00000000
 
ion      s      p      d    tot
    1  0.011  0.032  0.000  0.043
    2  0.011  0.032  0.000  0.043
tot    0.022  0.064  0.000  0.086
 
band    16 # energy   12.60307529 # occ.  0.00000000
 
ion      s      p      d    tot
    1  0.008  0.014  0.000  0.022
    2  0.008  0.014  0.000  0.022
tot    0.016  0.029  0.000  0.044
 

 k-point     3 :    0.10000000 0.00000000 0.00000000     weight = 0.01500000

band     1 # energy  -29.75015622 # occ.  2.00000000
 
ion      s      p      d    tot
    1  0.316  0.029  0.000  0.346
    2  0.316  0.029  0.000  0.346
tot    0.633  0.059  0.000  0.691
 
band     2 # energy  -14.23974410 # occ.  2.00000000
 
ion      s      p      d    tot
    1  0.153  0.131  0.000  0.284
    2  0.153  0.131  0.000  0.284
tot    0.305  0.262  0.000  0.567
 
band     3 # energy   -9.84705893 # occ.  2.00000000
 
ion      s      p      d    tot
    1  0.039  0.373  0.000  0.413
    2  0.039  0.373  0.000  0.413
tot    0.079  0.747  0.000  0.826
 
band     4 # energy   -8.86488994 # occ.  2.00000000
 
ion      s      p      d    tot
    1  0.000  0.417  0.000  0.417
    2  0.000  0.417  0.000  0.417
tot    0.000  0.835  0.000  0.835
 
band     5 # energy   -5.49819812 # occ.  2.00000000
 
ion      s      p      d    tot
    1  0.004  0.284  0.000  0.288
    2  0.004  0.284  0.000  0.288
tot    0.008  0.568  0.000  0.576
 
band     6 # energy   -0.27156141 # occ.  0.00000000
 
ion      s      p      d    tot
    1  0.048  0.337  0.000  0.385
    2  0.048  0.337  0.000  0.385
tot    0.096  0.674  0.000  0.770
 
band     7 # energy    0.47997988 # occ.  0.00000000
 
ion      s      p      d    tot
    1  0.000  0.399  0.000  0.399
    2  0.000  0.399  0.000  0.399
tot    0.000  0.798  0.000  0.798
 
band     8 # energy    1.29119650 # occ.  0.00000000
 
ion      s      p      d    tot
    1  0.215  0.227  0.000  0.442
    2  0.215  0.227  0.000  0.442
tot    0.430  0.455  0.000  0.884
 
band     9 # energy    2.45023095 # occ.  0.00000000
 
ion      s      p      d    tot
    1  0.001  0.014  0.000  0.015
    2  0.001  0.014  0.000  0.015
tot    0.001  0.028  0.000  0.029
 
band    10 # energy    2.59618526 # occ.  0.00000000
 
ion      s      p      d    tot
    1  0.001  0.018  0.000  0.020
    2  0.001  0.018  0.000  0.020
tot    0.003  0.037  0.000  0.040
 
band    11 # energy    3.66677056 # occ.  0.00000000
 
ion      s      p      d    tot
    1  0.002  0.020  0.000  0.022
    2  0.002  0.020  0.000  0.022
tot    0.004  0.040  0.000  0.044
 
band    12 # energy    4.67027898 # occ.  0.00000000
 
ion      s      p      d    tot
    1  0.003  0.007  0.000  0.010
    2  0.003  0.007  0.000  0.010
tot    0.005  0.015  0.000  0.020
 
band    13 # energy    6.44294667 # occ.  0.00000000
 
ion      s      p      d    tot
    1  0.005  0.029  0.000  0.035
    2  0.005  0.029  0.000  0.035
tot    0.010  0.059  0.000  0.069
 
band    14 # energy    8.08971546 # occ.  0.00000000
 
ion      s      p      d    tot
    1  0.006  0.010  0.000  0.016
    2  0.006  0.010  0.000  0.016
tot    0.011  0.021  0.000  0.032
 
band    15 # energy   10.40917820 # occ.  0.00000000
 
ion      s      p      d    tot
    1  0.010  0.031  0.000  0.041
    2  0.010  0.031  0.000  0.041
tot    0.020  0.062  0.000  0.082
 
band    16 # energy   12.85415731 # occ.  0.00000000
 
ion      s      p      d    tot
    1  0.008  0.015  0.000  0.023
    2  0.008  0.015  0.000  0.023
tot    0.016  0.030  0.000  0.047
 

 k-point     4 :    0.15000000 0.00000000 0.00000000     weight = 0.01500000

band     1 # energy  -29.39192998 # occ.  2.00000000
 
ion      s      p      d    tot
    1  0.313  0.034  0.000  0.347
    2  0.313  0.034  0.000  0.347
tot    0.626  0.068  0.000  0.694
 
band     2 # energy  -13.92377914 # occ.  2.00000000
 
ion      s      p      d    tot
    1  0.164  0.126  0.000  0.290
    2  0.164  0.126  0.000  0.290
tot    0.329  0.252  0.000  0.581
 
band     3 # energy  -11.26431859 # occ.  2.00000000
 
ion      s      p      d    tot
    1  0.057  0.344  0.000  0.401
    2  0.057  0.344  0.000  0.401
tot    0.114  0.688  0.000  0.802
 
band     4 # energy   -9.34463097 # occ.  2.00000000
 
ion      s      p      d    tot
    1  0.000  0.412  0.000  0.412
    2  0.000  0.412  0.000  0.412
tot    0.000  0.824  0.000  0.824
 
band     5 # energy   -5.36225649 # occ.  2.00000000
 
ion      s      p      d    tot
    1  0.006  0.293  0.000  0.300
    2  0.006  0.293  0.000  0.300
tot    0.013  0.586  0.000  0.599
 
band     6 # energy   -0.56026677 # occ.  0.00000000
 
ion      s      p      d    tot
    1  0.069  0.305  0.000  0.374
    2  0.069  0.305  0.000  0.374
tot    0.137  0.610  0.000  0.747
 
band     7 # energy    0.99542159 # occ.  0.00000000
 
ion      s      p      d    tot
    1  0.000  0.406  0.000  0.406
    2  0.000  0.406  0.000  0.406
tot    0.000  0.813  0.000  0.813
 
band     8 # energy    2.11760968 # occ.  0.00000000
 
ion      s      p      d    tot
    1  0.170  0.263  0.000  0.433
    2  0.170  0.263  0.000  0.433
tot    0.339  0.526  0.000  0.865
 
band     9 # energy    2.91115224 # occ.  0.00000000
 
ion      s      p      d    tot
    1  0.001  0.015  0.000  0.015
    2  0.001  0.015  0.000  0.015
tot    0.001  0.029  0.000  0.031
 
band    10 # energy    3.05990931 # occ.  0.00000000
 
ion      s      p      d    tot
    1  0.003  0.026  0.000  0.028
    2  0.003  0.026  0.000  0.028
tot    0.005  0.051  0.000  0.057
 
band    11 # energy    4.11557566 # occ.  0.00000000
 
ion      s      p      d    tot
    1  0.002  0.021  0.000  0.023
    2  0.002  0.021  0.000  0.023
tot    0.004  0.043  0.000  0.047
 
band    12 # energy    5.13261910 # occ.  0.00000000
 
ion      s      p      d    tot
    1  0.003  0.007  0.000  0.010
    2  0.003  0.007  0.000  0.010
tot    0.006  0.014  0.000  0.020
 
band    13 # energy    6.84946104 # occ.  0.00000000
 
ion      s      p      d    tot
    1  0.005  0.029  0.000  0.034
    2  0.005  0.029  0.000  0.034
tot    0.009  0.058  0.000  0.068
 
band    14 # energy    8.53758055 # occ.  0.00000000
 
ion      s      p      d    tot
    1  0.006  0.011  0.000  0.017
    2  0.006  0.011  0.000  0.017
tot    0.012  0.021  0.000  0.033
 
band    15 # energy   10.75197126 # occ.  0.00000000
 
ion      s      p      d    tot
    1  0.009  0.029  0.000  0.037
    2  0.009  0.029  0.000  0.037
tot    0.017  0.057  0.000  0.075
 
band    16 # energy   13.26252714 # occ.  0.00000000
 
ion      s      p      d    tot
    1  0.009  0.016  0.000  0.026
    2  0.009  0.016  0.000  0.026
tot    0.018  0.033  0.000  0.051
 

 k-point     5 :    0.20000000 0.00000000 0.00000000     weight = 0.01500000

band     1 # energy  -28.89360497 # occ.  2.00000000
 
ion      s      p      d    tot
    1  0.309  0.040  0.000  0.349
    2  0.309  0.040  0.000  0.349
tot    0.618  0.081  0.000  0.698
 
band     2 # energy  -13.59960088 # occ.  2.00000000
 
ion      s      p      d    tot
    1  0.229  0.100  0.000  0.329
    2  0.229  0.100  0.000  0.329
tot    0.459  0.200  0.000  0.658
 
band     3 # energy  -12.74786619 # occ.  2.00000000
 
ion      s      p      d    tot
    1  0.017  0.342  0.000  0.358
    2  0.017  0.342  0.000  0.358
tot    0.033  0.683  0.000  0.717
 
band     4 # energy   -9.87818923 # occ.  2.00000000
 
ion      s      p      d    tot
    1  0.000  0.407  0.000  0.407
    2  0.000  0.407  0.000  0.407
tot    0.000  0.814  0.000  0.814
 
band     5 # energy   -5.23837460 # occ.  2.00000000
 
ion      s      p      d    tot
    1  0.011  0.305  0.000  0.316
    2  0.011  0.305  0.000  0.316
tot    0.022  0.610  0.000  0.633
 
band     6 # energy   -0.87251892 # occ.  0.00000000
 
ion      s      p      d    tot
    1  0.086  0.273  0.000  0.359
    2  0.086  0.273  0.000  0.359
tot    0.172  0.546  0.000  0.717
 
band     7 # energy    1.54681670 # occ.  0.00000000
 
ion      s      p      d    tot
    1  0.000  0.413  0.000  0.413
    2  0.000  0.413  0.000  0.413
tot    0.000  0.825  0.000  0.825
 
band     8 # energy    2.77746277 # occ.  0.00000000
 
ion      s      p      d    tot
    1  0.126  0.277  0.000  0.403
    2  0.126  0.277  0.000  0.403
tot    0.252  0.554  0.000  0.806
 
band     9 # energy    3.55100853 # occ.  0.00000000
 
ion      s      p      d    tot
    1  0.003  0.010  0.000  0.013
    2  0.003  0.010  0.000  0.013
tot    0.005  0.021  0.000  0.026
 
band    10 # energy    3.72300422 # occ.  0.00000000
 
ion      s      p      d    tot
    1  0.006  0.041  0.000  0.047
    2  0.006  0.041  0.000  0.047
tot    0.012  0.083  0.000  0.094
 
band    11 # energy    4.75126859 # occ.  0.00000000
 
ion      s      p      d    tot
    1  0.002  0.025  0.000  0.027
    2  0.002  0.025  0.000  0.027
tot    0.004  0.050  0.000  0.055
 
band    12 # energy    5.77864899 # occ.  0.00000000
 
ion      s      p      d    tot
    1  0.004  0.007  0.000  0.010
    2  0.004  0.007  0.000  0.010
tot    0.007  0.014  0.000  0.021
 
band    13 # energy    7.42095308 # occ.  0.00000000
 
ion      s      p      d    tot
    1  0.004  0.030  0.000  0.034
    2  0.004  0.030  0.000  0.034
tot    0.008  0.059  0.000  0.067
 
band    14 # energy    9.16062293 # occ.  0.00000000
 
ion      s      p      d    tot
    1  0.007  0.011  0.000  0.018
    2  0.007  0.011  0.000  0.018
tot    0.014  0.022  0.000  0.036
 
band    15 # energy   11.22510439 # occ.  0.00000000
 
ion      s      p      d    tot
    1  0.007  0.026  0.000  0.033
    2  0.007  0.026  0.000  0.033
tot    0.014  0.051  0.000  0.065
 
band    16 # energy   13.80527601 # occ.  0.00000000
 
ion      s      p      d    tot
    1  0.011  0.018  0.000  0.029
    2  0.011  0.018  0.000  0.029
tot    0.022  0.037  0.000  0.059
 

 k-point     6 :    0.25000000 0.00000000 0.00000000     weight = 0.01500000

band     1 # energy  -28.25931443 # occ.  2.00000000
 
ion      s      p      d    tot
    1  0.304  0.048  0.000  0.352
    2  0.304  0.048  0.000  0.352
tot    0.608  0.096  0.000  0.704
 
band     2 # energy  -14.68495071 # occ.  2.00000000
 
ion      s      p      d    tot
    1  0.181  0.216  0.000  0.397
    2  0.181  0.216  0.000  0.397
tot    0.362  0.432  0.000  0.794
 
band     3 # energy  -12.77408920 # occ.  2.00000000
 
ion      s      p      d    tot
    1  0.085  0.203  0.000  0.289
    2  0.085  0.203  0.000  0.289
tot    0.171  0.407  0.000  0.578
 
band     4 # energy  -10.40096984 # occ.  2.00000000
 
ion      s      p      d    tot
    1  0.000  0.403  0.000  0.403
    2  0.000  0.403  0.000  0.403
tot    0.000  0.805  0.000  0.805
 
band     5 # energy   -5.20276579 # occ.  2.00000000
 
ion      s      p      d    tot
    1  0.020  0.316  0.000  0.336
    2  0.020  0.316  0.000  0.336
tot    0.040  0.632  0.000  0.672
 
band     6 # energy   -1.12995457 # occ.  0.00000000
 
ion      s      p      d    tot
    1  0.098  0.244  0.000  0.342
    2  0.098  0.244  0.000  0.342
tot    0.197  0.488  0.000  0.685
 
band     7 # energy    2.05550877 # occ.  0.00000000
 
ion      s      p      d    tot
    1  0.000  0.416  0.000  0.416
    2  0.000  0.416  0.000  0.416
tot    0.000  0.833  0.000  0.833
 
band     8 # energy    3.12417049 # occ.  0.00000000
 
ion      s      p      d    tot
    1  0.090  0.282  0.000  0.372
    2  0.090  0.282  0.000  0.372
tot    0.181  0.563  0.000  0.744
 
band     9 # energy    4.37746495 # occ.  0.00000000
 
ion      s      p      d    tot
    1  0.005  0.009  0.000  0.014
    2  0.005  0.009  0.000  0.014
tot    0.010  0.018  0.000  0.027
 
band    10 # energy    4.55608785 # occ.  0.00000000
 
ion      s      p      d    tot
    1  0.005  0.046  0.000  0.051
    2  0.005  0.046  0.000  0.051
tot    0.011  0.091  0.000  0.102
 
band    11 # energy    5.56864227 # occ.  0.00000000
 
ion      s      p      d    tot
    1  0.002  0.028  0.000  0.030
    2  0.002  0.028  0.000  0.030
tot    0.004  0.057  0.000  0.061
 
band    12 # energy    6.60970158 # occ.  0.00000000
 
ion      s      p      d    tot
    1  0.005  0.007  0.000  0.011
    2  0.005  0.007  0.000  0.011
tot    0.009  0.013  0.000  0.023
 
band    13 # energy    8.15942320 # occ.  0.00000000
 
ion      s      p      d    tot
    1  0.004  0.031  0.000  0.034
    2  0.004  0.031  0.000  0.034
tot    0.007  0.062  0.000  0.069
 
band    14 # energy    9.95674482 # occ.  0.00000000
 
ion      s      p      d    tot
    1  0.008  0.012  0.000  0.020
    2  0.008  0.012  0.000  0.020
tot    0.016  0.024  0.000  0.040
 
band    15 # energy   11.83281492 # occ.  0.00000000
 
ion      s      p      d    tot
    1  0.006  0.023  0.000  0.028
    2  0.006  0.023  0.000  0.028
tot    0.011  0.046  0.000  0.057
 
band    16 # energy   14.42315752 # occ.  0.00000000
 
ion      s      p      d    tot
    1  0.015  0.023  0.000  0.038
    2  0.015  0.023  0.000  0.038
tot    0.030  0.046  0.000  0.076
 

 k-point     7 :    0.30000000 0.00000000 0.00000000     weight = 0.01500000

band     1 # energy  -27.49617710 # occ.  2.00000000
 
ion      s      p      d    tot
    1  0.298  0.057  0.000  0.355
    2  0.298  0.057  0.000  0.355
tot    0.597  0.114  0.000  0.711
 
band     2 # energy  -16.33207524 # occ.  2.00000000
 
ion      s      p      d    tot
    1  0.174  0.214  0.000  0.388
    2  0.174  0.214  0.000  0.388
tot    0.348  0.428  0.000  0.775
 
band     3 # energy  -12.13491261 # occ.  2.00000000
 
ion      s      p      d    tot
    1  0.109  0.189  0.000  0.298
    2  0.109  0.189  0.000  0.298
tot    0.219  0.377  0.000  0.596
 
band     4 # energy  -10.87058742 # occ.  2.00000000
 
ion      s      p      d    tot
    1  0.000  0.400  0.000  0.400
    2  0.000  0.400  0.000  0.400
tot    0.000  0.799  0.000  0.799
 
band     5 # energy   -5.34252522 # occ.  2.00000000
 
ion      s      p      d    tot
    1  0.034  0.319  0.000  0.353
    2  0.034  0.319  0.000  0.353
tot    0.067  0.638  0.000  0.705
 
band     6 # energy   -1.26447311 # occ.  0.00000000
 
ion      s      p      d    tot
    1  0.105  0.224  0.000  0.329
    2  0.105  0.224  0.000  0.329
tot    0.210  0.447  0.000  0.657
 
band     7 # energy    2.47484550 # occ.  0.00000000
 
ion      s      p      d    tot
    1  0.000  0.417  0.000  0.417
    2  0.000  0.417  0.000  0.417
tot    0.000  0.835  0.000  0.835
 
band     8 # energy    3.15764039 # occ.  0.00000000
 
ion      s      p      d    tot
    1  0.063  0.281  0.000  0.344
    2  0.063  0.281  0.000  0.344
tot    0.127  0.561  0.000  0.688
 
band     9 # energy    5.37995717 # occ.  0.00000000
 
ion      s      p      d    tot
    1  0.005  0.011  0.000  0.016
    2  0.005  0.011  0.000  0.016
tot    0.009  0.022  0.000  0.031
 
band    10 # energy    5.54234025 # occ.  0.00000000
 
ion      s      p      d    tot
    1  0.004  0.041  0.000  0.045
    2  0.004  0.041  0.000  0.045
tot    0.008  0.082  0.000  0.090
 
band    11 # energy    6.55298570 # occ.  0.00000000
 
ion      s      p      d    tot
    1  0.001  0.026  0.000  0.027
    2  0.001  0.026  0.000  0.027
tot    0.003  0.052  0.000  0.055
 
band    12 # energy    7.62657356 # occ.  0.00000000
 
ion      s      p      d    tot
    1  0.005  0.007  0.000  0.013
    2  0.005  0.007  0.000  0.013
tot    0.010  0.015  0.000  0.025
 
band    13 # energy    9.05641650 # occ.  0.00000000
 
ion      s      p      d    tot
    1  0.003  0.031  0.000  0.034
    2  0.003  0.031  0.000  0.034
tot    0.006  0.062  0.000  0.068
 
band    14 # energy   10.92295113 # occ.  0.00000000
 
ion      s      p      d    tot
    1  0.009  0.014  0.000  0.023
    2  0.009  0.014  0.000  0.023
tot    0.018  0.028  0.000  0.046
 
band    15 # energy   12.57860642 # occ.  0.00000000
 
ion      s      p      d    tot
    1  0.004  0.022  0.000  0.026
    2  0.004  0.022  0.000  0.026
tot    0.008  0.044  0.000  0.052
 
band    16 # energy   14.96195852 # occ.  0.00000000
 
ion      s      p      d    tot
    1  0.018  0.042  0.000  0.060
    2  0.018  0.042  0.000  0.060
tot    0.036  0.084  0.000  0.120
 

 k-point     8 :    0.35000000-0.00000000 0.00000000     weight = 0.01500000

band     1 # energy  -26.61796668 # occ.  2.00000000
 
ion      s      p      d    tot
    1  0.293  0.067  0.000  0.360
    2  0.293  0.067  0.000  0.360
tot    0.587  0.133  0.000  0.720
 
band     2 # energy  -17.94837036 # occ.  2.00000000
 
ion      s      p      d    tot
    1  0.180  0.199  0.000  0.379
    2  0.180  0.199  0.000  0.379
tot    0.361  0.397  0.000  0.758
 
band     3 # energy  -11.39468363 # occ.  2.00000000
 
ion      s      p      d    tot
    1  0.117  0.192  0.000  0.309
    2  0.117  0.192  0.000  0.309
tot    0.234  0.385  0.000  0.618
 
band     4 # energy  -11.25876368 # occ.  2.00000000
 
ion      s      p      d    tot
    1  0.000  0.397  0.000  0.397
    2  0.000  0.397  0.000  0.397
tot    0.000  0.794  0.000  0.794
 
band     5 # energy   -5.70072403 # occ.  2.00000000
 
ion      s      p      d    tot
    1  0.048  0.312  0.000  0.360
    2  0.048  0.312  0.000  0.360
tot    0.097  0.623  0.000  0.720
 
band     6 # energy   -1.26120548 # occ.  0.00000000
 
ion      s      p      d    tot
    1  0.108  0.214  0.000  0.322
    2  0.108  0.214  0.000  0.322
tot    0.217  0.427  0.000  0.644
 
band     7 # energy    2.78772846 # occ.  0.00000000
 
ion      s      p      d    tot
    1  0.000  0.416  0.000  0.416
    2  0.000  0.416  0.000  0.416
tot    0.000  0.833  0.000  0.833
 
band     8 # energy    2.98591844 # occ.  0.00000000
 
ion      s      p      d    tot
    1  0.042  0.278  0.000  0.320
    2  0.042  0.278  0.000  0.320
tot    0.085  0.555  0.000  0.640
 
band     9 # energy    6.52499127 # occ.  0.00000000
 
ion      s      p      d    tot
    1  0.004  0.019  0.000  0.022
    2  0.004  0.019  0.000  0.022
tot    0.007  0.037  0.000  0.044
 
band    10 # energy    6.69887528 # occ.  0.00000000
 
ion      s      p      d    tot
    1  0.004  0.033  0.000  0.037
    2  0.004  0.033  0.000  0.037
tot    0.008  0.066  0.000  0.074
 
band    11 # energy    7.70232456 # occ.  0.00000000
 
ion      s      p      d    tot
    1  0.001  0.020  0.000  0.021
    2  0.001  0.020  0.000  0.021
tot    0.002  0.040  0.000  0.041
 
band    12 # energy    8.82570635 # occ.  0.00000000
 
ion      s      p      d    tot
    1  0.005  0.009  0.000  0.014
    2  0.005  0.009  0.000  0.014
tot    0.010  0.018  0.000  0.029
 
band    13 # energy   10.09316771 # occ.  0.00000000
 
ion      s      p      d    tot
    1  0.002  0.027  0.000  0.029
    2  0.002  0.027  0.000  0.029
tot    0.004  0.054  0.000  0.059
 
band    14 # energy   12.04216638 # occ.  0.00000000
 
ion      s      p      d    tot
    1  0.009  0.020  0.000  0.029
    2  0.009  0.020  0.000  0.029
tot    0.018  0.040  0.000  0.058
 
band    15 # energy   13.42684169 # occ.  0.00000000
 
ion      s      p      d    tot
    1  0.002  0.022  0.000  0.024
    2  0.002  0.022  0.000  0.024
tot    0.004  0.044  0.000  0.048
 
band    16 # energy   15.10652760 # occ.  0.00000000
 
ion      s      p      d    tot
    1  0.008  0.062  0.000  0.070
    2  0.008  0.062  0.000  0.070
tot    0.015  0.125  0.000  0.140
 

 k-point     9 :    0.40000000 0.00000000 0.00000000     weight = 0.01500000

band     1 # energy  -25.65761257 # occ.  2.00000000
 
ion      s      p      d    tot
    1  0.291  0.075  0.000  0.366
    2  0.291  0.075  0.000  0.366
tot    0.582  0.150  0.000  0.732
 
band     2 # energy  -19.45451557 # occ.  2.00000000
 
ion      s      p      d    tot
    1  0.186  0.185  0.000  0.370
    2  0.186  0.185  0.000  0.370
tot    0.371  0.369  0.000  0.741
 
band     3 # energy  -11.54766320 # occ.  2.00000000
 
ion      s      p      d    tot
    1  0.000  0.396  0.000  0.396
    2  0.000  0.396  0.000  0.396
tot    0.000  0.791  0.000  0.791
 
band     4 # energy  -10.62271913 # occ.  2.00000000
 
ion      s      p      d    tot
    1  0.122  0.200  0.000  0.322
    2  0.122  0.200  0.000  0.322
tot    0.243  0.400  0.000  0.644
 
band     5 # energy   -6.23411043 # occ.  2.00000000
 
ion      s      p      d    tot
    1  0.059  0.297  0.000  0.356
    2  0.059  0.297  0.000  0.356
tot    0.118  0.595  0.000  0.712
 
band     6 # energy   -1.17638522 # occ.  0.00000000
 
ion      s      p      d    tot
    1  0.112  0.209  0.000  0.321
    2  0.112  0.209  0.000  0.321
tot    0.224  0.418  0.000  0.642
 
band     7 # energy    2.76025082 # occ.  0.00000000
 
ion      s      p      d    tot
    1  0.026  0.279  0.000  0.305
    2  0.026  0.279  0.000  0.305
tot    0.052  0.558  0.000  0.610
 
band     8 # energy    2.99716553 # occ.  0.00000000
 
ion      s      p      d    tot
    1  0.000  0.414  0.000  0.414
    2  0.000  0.414  0.000  0.414
tot    0.000  0.829  0.000  0.829
 
band     9 # energy    7.75287711 # occ.  0.00000000
 
ion      s      p      d    tot
    1  0.003  0.025  0.000  0.028
    2  0.003  0.025  0.000  0.028
tot    0.006  0.051  0.000  0.057
 
band    10 # energy    8.05067634 # occ.  0.00000000
 
ion      s      p      d    tot
    1  0.004  0.026  0.000  0.030
    2  0.004  0.026  0.000  0.030
tot    0.008  0.051  0.000  0.059
 
band    11 # energy    9.02426634 # occ.  0.00000000
 
ion      s      p      d    tot
    1  0.000  0.012  0.000  0.013
    2  0.000  0.012  0.000  0.013
tot    0.001  0.024  0.000  0.025
 
band    12 # energy   10.19627246 # occ.  0.00000000
 
ion      s      p      d    tot
    1  0.004  0.012  0.000  0.016
    2  0.004  0.012  0.000  0.016
tot    0.009  0.024  0.000  0.033
 
band    13 # energy   11.23540354 # occ.  0.00000000
 
ion      s      p      d    tot
    1  0.001  0.019  0.000  0.020
    2  0.001  0.019  0.000  0.020
tot    0.002  0.038  0.000  0.040
 
band    14 # energy   13.14554836 # occ.  0.00000000
 
ion      s      p      d    tot
    1  0.005  0.037  0.000  0.042
    2  0.005  0.037  0.000  0.042
tot    0.010  0.074  0.000  0.084
 
band    15 # energy   14.00184920 # occ.  0.00000000
 
ion      s      p      d    tot
    1  0.003  0.012  0.000  0.016
    2  0.003  0.012  0.000  0.016
tot    0.007  0.024  0.000  0.031
 
band    16 # energy   14.51866374 # occ.  0.00000000
 
ion      s      p      d    tot
    1  0.000  0.053  0.000  0.053
    2  0.000  0.053  0.000  0.053
tot    0.000  0.107  0.000  0.107
 

 k-point    10 :    0.45000000 0.00000000 0.00000000     weight = 0.01500000

band     1 # energy  -24.72120772 # occ.  2.00000000
 
ion      s      p      d    tot
    1  0.295  0.079  0.000  0.374
    2  0.295  0.079  0.000  0.374
tot    0.590  0.158  0.000  0.748
 
band     2 # energy  -20.72423050 # occ.  2.00000000
 
ion      s      p      d    tot
    1  0.183  0.177  0.000  0.361
    2  0.183  0.177  0.000  0.361
tot    0.367  0.354  0.000  0.721
 
band     3 # energy  -11.72426624 # occ.  2.00000000
 
ion      s      p      d    tot
    1  0.000  0.395  0.000  0.395
    2  0.000  0.395  0.000  0.395
tot    0.000  0.789  0.000  0.789
 
band     4 # energy   -9.93427011 # occ.  2.00000000
 
ion      s      p      d    tot
    1  0.128  0.208  0.000  0.336
    2  0.128  0.208  0.000  0.336
tot    0.256  0.416  0.000  0.673
 
band     5 # energy   -6.79845767 # occ.  2.00000000
 
ion      s      p      d    tot
    1  0.061  0.284  0.000  0.345
    2  0.061  0.284  0.000  0.345
tot    0.123  0.568  0.000  0.690
 
band     6 # energy   -1.08972550 # occ.  0.00000000
 
ion      s      p      d    tot
    1  0.116  0.205  0.000  0.322
    2  0.116  0.205  0.000  0.322
tot    0.232  0.411  0.000  0.643
 
band     7 # energy    2.59303031 # occ.  0.00000000
 
ion      s      p      d    tot
    1  0.015  0.284  0.000  0.300
    2  0.015  0.284  0.000  0.300
tot    0.031  0.569  0.000  0.600
 
band     8 # energy    3.11530768 # occ.  0.00000000
 
ion      s      p      d    tot
    1  0.000  0.413  0.000  0.413
    2  0.000  0.413  0.000  0.413
tot    0.000  0.825  0.000  0.825
 
band     9 # energy    8.99182779 # occ.  0.00000000
 
ion      s      p      d    tot