<?xml version="1.0" encoding="ISO-8859-1"?>
<modeling>
 <generator>
  <i name="program" type="string">vasp </i>
  <i name="version" type="string">6.4.2  </i>
  <i name="subversion" type="string">20Jul23 (build Nov 14 2023 12:59:38) complex                          parallel </i>
  <i name="platform" type="string">LinuxIFC </i>
  <i name="date" type="string">2023 12 29 </i>
  <i name="time" type="string">16:08:10 </i>
 </generator>
 <incar>
  <i type="string" name="PREC">Accurate</i>
  <i type="string" name="ALGO">Normal</i>
  <i type="logical" name="ADDGRID"> T  </i>
  <i type="int" name="ISPIN">     1</i>
  <i name="AMIX">      0.10000000</i>
  <i name="BMIX">      0.00010000</i>
  <i type="int" name="ICHARG">     2</i>
  <i type="int" name="NELM">   200</i>
  <i type="int" name="NELMDL">   -12</i>
  <i type="int" name="NELMIN">     6</i>
  <i type="int" name="IBRION">     8</i>
  <i name="EDIFF">      0.00000100</i>
  <i name="EDIFFG">     -0.01000000</i>
  <i type="int" name="NSW">     1</i>
  <i name="ENCUT">    473.51475000</i>
  <i name="POTIM">      0.01000000</i>
  <i type="int" name="NEDOS">  6001</i>
  <i type="logical" name="LREAL"> F  </i>
  <i type="logical" name="LPLANE"> T  </i>
  <i type="int" name="ISMEAR">     0</i>
  <i name="SIGMA">      0.01000000</i>
  <i type="int" name="NWRITE">     3</i>
  <i type="logical" name="LWAVE"> F  </i>
  <i type="logical" name="LCHARG"> F  </i>
  <i type="logical" name="LVTOT"> F  </i>
  <i type="int" name="LORBIT">    10</i>
  <i type="logical" name="LELF"> F  </i>
  <i type="logical" name="LASPH"> T  </i>
  <i type="logical" name="LEPSILON"> F  </i>
  <i type="int" name="IVDW">     0</i>
 </incar>
 <primitive_cell>
  <structure name="primitive_cell" >
   <crystal>
    <varray name="basis" >
     <v>       2.29449859       0.00000000       0.00000000 </v>
     <v>      -1.14724930       1.98709407       0.00000000 </v>
     <v>       0.00000000       0.00000000      16.00000000 </v>
    </varray>
    <i name="volume">     72.95015287 </i>
    <varray name="rec_basis" >
     <v>       0.43582507       0.25162372       0.00000000 </v>
     <v>       0.00000000       0.50324744       0.00000000 </v>
     <v>       0.00000000       0.00000000       0.06250000 </v>
    </varray>
   </crystal>
   <varray name="positions" >
    <v>       0.66666667       0.33333333       0.47822185 </v>
    <v>       0.33333333       0.66666667       0.52177815 </v>
   </varray>
  </structure>
  <varray name="primitive_index" >
   <v type="int" >        1 </v>
   <v type="int" >        2 </v>
  </varray>
 </primitive_cell>
 <kpoints>
  <generation param="Gamma">
   <v type="int" name="divisions">      20       20        1 </v>
   <v name="usershift">      0.00000000       0.00000000       0.00000000 </v>
   <v name="genvec1">      0.05000000       0.00000000       0.00000000 </v>
   <v name="genvec2">      0.00000000       0.05000000       0.00000000 </v>
   <v name="genvec3">      0.00000000       0.00000000       1.00000000 </v>
   <v name="shift">      0.00000000       0.00000000       0.00000000 </v>
  </generation>
  <varray name="kpointlist" >
   <v>       0.00000000       0.00000000       0.00000000 </v>
   <v>       0.05000000       0.00000000       0.00000000 </v>
   <v>       0.10000000       0.00000000       0.00000000 </v>
   <v>       0.15000000       0.00000000       0.00000000 </v>
   <v>       0.20000000       0.00000000       0.00000000 </v>
   <v>       0.25000000       0.00000000       0.00000000 </v>
   <v>       0.30000000       0.00000000       0.00000000 </v>
   <v>       0.35000000      -0.00000000       0.00000000 </v>
   <v>       0.40000000       0.00000000       0.00000000 </v>
   <v>       0.45000000       0.00000000       0.00000000 </v>
   <v>       0.50000000       0.00000000       0.00000000 </v>
   <v>       0.05000000       0.05000000       0.00000000 </v>
   <v>       0.10000000       0.05000000       0.00000000 </v>
   <v>       0.15000000       0.05000000       0.00000000 </v>
   <v>       0.20000000       0.05000000       0.00000000 </v>
   <v>       0.25000000       0.05000000       0.00000000 </v>
   <v>       0.30000000       0.05000000       0.00000000 </v>
   <v>       0.35000000       0.05000000       0.00000000 </v>
   <v>       0.40000000       0.05000000       0.00000000 </v>
   <v>       0.45000000       0.05000000       0.00000000 </v>
   <v>       0.10000000       0.10000000       0.00000000 </v>
   <v>       0.15000000       0.10000000       0.00000000 </v>
   <v>       0.20000000       0.10000000       0.00000000 </v>
   <v>       0.25000000       0.10000000       0.00000000 </v>
   <v>       0.30000000       0.10000000       0.00000000 </v>
   <v>       0.35000000       0.10000000       0.00000000 </v>
   <v>       0.40000000       0.10000000       0.00000000 </v>
   <v>       0.45000000       0.10000000       0.00000000 </v>
   <v>       0.15000000       0.15000000       0.00000000 </v>
   <v>       0.20000000       0.15000000       0.00000000 </v>
   <v>       0.25000000       0.15000000       0.00000000 </v>
   <v>       0.30000000       0.15000000       0.00000000 </v>
   <v>       0.35000000       0.15000000       0.00000000 </v>
   <v>       0.40000000       0.15000000       0.00000000 </v>
   <v>       0.20000000       0.20000000       0.00000000 </v>
   <v>       0.25000000       0.20000000       0.00000000 </v>
   <v>       0.30000000       0.20000000       0.00000000 </v>
   <v>       0.35000000       0.20000000       0.00000000 </v>
   <v>       0.40000000       0.20000000       0.00000000 </v>
   <v>       0.25000000       0.25000000       0.00000000 </v>
   <v>       0.30000000       0.25000000       0.00000000 </v>
   <v>       0.35000000       0.25000000       0.00000000 </v>
   <v>       0.30000000       0.30000000       0.00000000 </v>
   <v>       0.35000000       0.30000000       0.00000000 </v>
  </varray>
  <varray name="weights" >
   <v>       0.00250000 </v>
   <v>       0.01500000 </v>
   <v>       0.01500000 </v>
   <v>       0.01500000 </v>
   <v>       0.01500000 </v>
   <v>       0.01500000 </v>
   <v>       0.01500000 </v>
   <v>       0.01500000 </v>
   <v>       0.01500000 </v>
   <v>       0.01500000 </v>
   <v>       0.00750000 </v>
   <v>       0.01500000 </v>
   <v>       0.03000000 </v>
   <v>       0.03000000 </v>
   <v>       0.03000000 </v>
   <v>       0.03000000 </v>
   <v>       0.03000000 </v>
   <v>       0.03000000 </v>
   <v>       0.03000000 </v>
   <v>       0.03000000 </v>
   <v>       0.01500000 </v>
   <v>       0.03000000 </v>
   <v>       0.03000000 </v>
   <v>       0.03000000 </v>
   <v>       0.03000000 </v>
   <v>       0.03000000 </v>
   <v>       0.03000000 </v>
   <v>       0.01500000 </v>
   <v>       0.01500000 </v>
   <v>       0.03000000 </v>
   <v>       0.03000000 </v>
   <v>       0.03000000 </v>
   <v>       0.03000000 </v>
   <v>       0.03000000 </v>
   <v>       0.01500000 </v>
   <v>       0.03000000 </v>
   <v>       0.03000000 </v>
   <v>       0.03000000 </v>
   <v>       0.01500000 </v>
   <v>       0.01500000 </v>
   <v>       0.03000000 </v>
   <v>       0.03000000 </v>
   <v>       0.01500000 </v>
   <v>       0.01500000 </v>
  </varray>
 </kpoints>
 <parameters>
  <separator name="general" >
   <i type="string" name="SYSTEM">unknown system</i>
   <i type="logical" name="LCOMPAT"> F  </i>
  </separator>
  <separator name="electronic" >
   <i type="string" name="PREC">accura</i>
   <i name="ENMAX">    473.51475000</i>
   <i name="ENAUG">    904.64000000</i>
   <i name="EDIFF">      0.00000100</i>
   <i type="int" name="IALGO">    38</i>
   <i type="int" name="IWAVPR">    11</i>
   <i type="int" name="NBANDS">    16</i>
   <i type="int" name="NBANDSLOW">    -1</i>
   <i type="int" name="NBANDSHIGH">    -1</i>
   <i name="NELECT">     10.00000000</i>
   <i type="int" name="TURBO">     0</i>
   <i type="int" name="IRESTART">     0</i>
   <i type="int" name="NREBOOT">     0</i>
   <i type="int" name="NMIN">     0</i>
   <i name="EREF">      0.00000000</i>
   <separator name="electronic smearing" >
    <i type="int" name="ISMEAR">     0</i>
    <i name="SIGMA">      0.01000000</i>
    <i name="KSPACING">      0.50000000</i>
    <i type="logical" name="KGAMMA"> T  </i>
    <i type="logical" name="KBLOWUP"> T  </i>
   </separator>
   <separator name="electronic projectors" >
    <i type="logical" name="LREAL"> F  </i>
    <v name="ROPT">      0.00000000</v>
    <i type="int" name="LMAXPAW">  -100</i>
    <i type="int" name="LMAXMIX">     2</i>
    <i type="logical" name="NLSPLINE"> F  </i>
   </separator>
   <separator name="electronic startup" >
    <i type="int" name="ISTART">     0</i>
    <i type="int" name="ICHARG">     2</i>
    <i type="int" name="INIWAV">     1</i>
   </separator>
   <separator name="electronic spin" >
    <i type="int" name="ISPIN">     1</i>
    <i type="logical" name="LNONCOLLINEAR"> F  </i>
    <v name="MAGMOM">      1.00000000      1.00000000</v>
    <i name="NUPDOWN">     -1.00000000</i>
    <i type="logical" name="LSORBIT"> F  </i>
    <v name="SAXIS">      0.00000000      0.00000000      1.00000000</v>
    <i type="logical" name="LSPIRAL"> F  </i>
    <v name="QSPIRAL">      0.00000000      0.00000000      0.00000000</v>
    <i type="logical" name="LZEROZ"> F  </i>
   </separator>
   <separator name="electronic exchange-correlation" >
    <i type="logical" name="LASPH"> T  </i>
    <i type="logical" name="LMETAGGA"> F  </i>
   </separator>
   <separator name="electronic convergence" >
    <i type="int" name="NELM">   200</i>
    <i type="int" name="NELMDL">   -12</i>
    <i type="int" name="NELMIN">     6</i>
    <i name="ENINI">    473.51475000</i>
    <separator name="electronic convergence detail" >
     <i type="logical" name="LDIAG"> T  </i>
     <i type="logical" name="LSUBROT"> F  </i>
     <i name="WEIMIN">      0.00100000</i>
     <i name="EBREAK">      0.00000002</i>
     <i name="DEPER">      0.30000000</i>
     <i type="int" name="NRMM">     4</i>
     <i name="TIME">      0.40000000</i>
    </separator>
   </separator>
   <separator name="electronic mixer" >
    <i name="AMIX">      0.10000000</i>
    <i name="BMIX">      0.00010000</i>
    <i name="AMIN">      0.10000000</i>
    <i name="AMIX_MAG">      0.40000000</i>
    <i name="BMIX_MAG">      0.00010000</i>
    <separator name="electronic mixer details" >
     <i type="int" name="IMIX">     4</i>
     <i type="logical" name="MIXFIRST"> F  </i>
     <i type="int" name="MAXMIX">   -45</i>
     <i name="WC">    100.00000000</i>
     <i type="int" name="INIMIX">     1</i>
     <i type="int" name="MIXPRE">     1</i>
     <i type="int" name="MREMOVE">     5</i>
    </separator>
   </separator>
   <separator name="electronic dipolcorrection" >
    <i type="logical" name="LDIPOL"> F  </i>
    <i type="logical" name="LMONO"> F  </i>
    <i type="int" name="IDIPOL">     0</i>
    <i name="EPSILON">      1.00000000</i>
    <v name="DIPOL">   -100.00000000   -100.00000000   -100.00000000</v>
    <i name="EFIELD">      0.00000000</i>
   </separator>
  </separator>
  <separator name="grids" >
   <i type="int" name="NGX">    16</i>
   <i type="int" name="NGY">    16</i>
   <i type="int" name="NGZ">   120</i>
   <i type="int" name="NGXF">    32</i>
   <i type="int" name="NGYF">    32</i>
   <i type="int" name="NGZF">   240</i>
   <i type="logical" name="ADDGRID"> T  </i>
  </separator>
  <separator name="ionic" >
   <i type="int" name="NSW">     1</i>
   <i type="int" name="IBRION">     8</i>
   <i type="int" name="MDALGO">     0</i>
   <i type="int" name="ISIF">     2</i>
   <i name="PSTRESS">      0.00000000</i>
   <i name="EDIFFG">     -0.01000000</i>
   <i type="int" name="NFREE">     0</i>
   <i name="POTIM">      0.01000000</i>
   <i name="SMASS">     -3.00000000</i>
   <i name="SCALEE">      1.00000000</i>
  </separator>
  <separator name="ionic md" >
   <i name="TEBEG">      0.00010000</i>
   <i name="TEEND">      0.00010000</i>
   <i type="int" name="NBLOCK">     1</i>
   <i type="int" name="KBLOCK">     1</i>
   <i type="int" name="NPACO">   256</i>
   <i name="APACO">     10.00000000</i>
  </separator>
  <separator name="symmetry" >
   <i type="int" name="ISYM">     2</i>
   <i name="SYMPREC">      0.00001000</i>
  </separator>
  <separator name="dos" >
   <i type="int" name="LORBIT">    10</i>
   <v name="RWIGS">     -1.00000000</v>
   <i type="int" name="NEDOS">  6001</i>
   <i name="EMIN">     10.00000000</i>
   <i name="EMAX">    -10.00000000</i>
   <i name="EFERMI">      0.00000000</i>
  </separator>
  <separator name="writing" >
   <i type="int" name="NWRITE">     3</i>
   <i type="logical" name="LWAVE"> F  </i>
   <i type="logical" name="LDOWNSAMPLE"> F  </i>
   <i type="logical" name="LCHARG"> F  </i>
   <i type="logical" name="LPARD"> F  </i>
   <i type="logical" name="LVTOT"> F  </i>
   <i type="logical" name="LVHAR"> F  </i>
   <i type="logical" name="LELF"> F  </i>
   <i type="logical" name="LOPTICS"> F  </i>
   <v name="STM">      0.00000000      0.00000000      0.00000000      0.00000000      0.00000000      0.00000000      0.00000000</v>
  </separator>
  <separator name="performance" >
   <i type="int" name="NPAR">    16</i>
   <i type="int" name="NSIM">     4</i>
   <i type="int" name="NBLK">    -1</i>
   <i type="logical" name="LPLANE"> T  </i>
   <i type="logical" name="LSCALAPACK"> T  </i>
   <i type="logical" name="LSCAAWARE"> F  </i>
   <i type="logical" name="LSCALU"> F  </i>
   <i type="logical" name="LASYNC"> F  </i>
   <i type="logical" name="LORBITALREAL"> F  </i>
  </separator>
  <separator name="miscellaneous" >
   <i type="int" name="IDIOT">     3</i>
   <i type="int" name="PHON_NSTRUCT">    -1</i>
   <i type="logical" name="LMUSIC"> F  </i>
   <v name="POMASS">     14.00100000</v>
   <v name="DARWINR">      0.00000000</v>
   <v name="DARWINV">      1.00000000</v>
   <i type="logical" name="LCORR"> T  </i>
  </separator>
  <i type="logical" name="GGA_COMPAT"> T  </i>
  <i type="logical" name="LBERRY"> F  </i>
  <i type="int" name="ICORELEVEL">     0</i>
  <i type="logical" name="LDAU"> F  </i>
  <i type="int" name="I_CONSTRAINED_M">     0</i>
  <separator name="electronic exchange-correlation" >
   <i type="string" name="GGA">--</i>
   <i type="int" name="VOSKOWN">     0</i>
   <i type="logical" name="LHFCALC"> F  </i>
   <i type="string" name="PRECFOCK"></i>
   <i type="logical" name="LSYMGRAD"> F  </i>
   <i type="logical" name="LHFONE"> F  </i>
   <i type="logical" name="LRHFCALC"> F  </i>
   <i type="logical" name="LTHOMAS"> F  </i>
   <i type="logical" name="LMODELHF"> F  </i>
   <i type="logical" name="LFOCKACE"> F  </i>
   <i name="ENCUT4O">     -1.00000000</i>
   <i type="int" name="EXXOEP">     0</i>
   <i type="int" name="FOURORBIT">     0</i>
   <i name="AEXX">      0.00000000</i>
   <i name="HFALPHA">      0.00000000</i>
   <i name="MCALPHA">      0.00000000</i>
   <i name="ALDAX">      1.00000000</i>
   <i name="AGGAX">      1.00000000</i>
   <i name="ALDAC">      1.00000000</i>
   <i name="AGGAC">      1.00000000</i>
   <i type="int" name="NKREDX">     1</i>
   <i type="int" name="NKREDY">     1</i>
   <i type="int" name="NKREDZ">     1</i>
   <i type="logical" name="SHIFTRED"> F  </i>
   <i type="logical" name="ODDONLY"> F  </i>
   <i type="logical" name="EVENONLY"> F  </i>
   <i type="int" name="LMAXFOCK">     0</i>
   <i type="int" name="NMAXFOCKAE">     0</i>
   <i type="logical" name="LFOCKAEDFT"> F  </i>
   <i name="HFSCREEN">      0.00000000</i>
   <i name="HFSCREENC">      0.00000000</i>
   <i type="int" name="NBANDSGWLOW">     0</i>
  </separator>
  <separator name="vdW DFT" >
   <i type="logical" name="LUSE_VDW"> F  </i>
   <i type="int" name="IVDW_NL">     1</i>
   <i type="logical" name="LSPIN_VDW"> F  </i>
   <i name="Zab_VDW">     -0.84910000</i>
   <i name="PARAM1">      0.12340000</i>
   <i name="PARAM2">      1.00000000</i>
   <i name="PARAM3">      0.00000000</i>
  </separator>
  <separator name="model GW" >
   <i type="int" name="MODEL_GW">     0</i>
   <i name="MODEL_EPS0">     21.88504586</i>
   <i name="MODEL_ALPHA">      1.00000000</i>
  </separator>
  <separator name="linear response parameters" >
   <i type="logical" name="LEPSILON"> F  </i>
   <i type="logical" name="LRPA"> F  </i>
   <i type="logical" name="LNABLA"> F  </i>
   <i type="logical" name="LVEL"> F  </i>
   <i name="CSHIFT">      0.10000000</i>
   <i name="OMEGAMAX">     -1.00000000</i>
   <i name="DEG_THRESHOLD">      0.00200000</i>
   <i name="RTIME">     -0.10000000</i>
   <i name="WPLASMAI">      0.00000000</i>
   <v name="DFIELD">      0.00000000      0.00000000      0.00000000</v>
   <v name="WPLASMA">      0.00000000      0.00000000      0.00000000      0.00000000      0.00000000      0.00000000      0.00000000      0.00000000      0.00000000</v>
  </separator>
  <separator name="orbital magnetization" >
   <i type="logical" name="NUCIND"> F  </i>
   <v name="MAGPOS">      0.00000000      0.00000000      0.00000000</v>
   <i type="logical" name="LNICSALL"> T  </i>
   <i type="logical" name="ORBITALMAG"> F  </i>
   <i type="logical" name="LMAGBLOCH"> F  </i>
   <i type="logical" name="LCHIMAG"> F  </i>
   <i type="logical" name="LGAUGE"> T  </i>
   <i type="int" name="MAGATOM">     0</i>
   <v name="MAGDIPOL">      0.00000000      0.00000000      0.00000000</v>
   <v name="AVECCONST">      0.00000000      0.00000000      0.00000000</v>
  </separator>
  <separator name="response functions" >
   <i type="logical" name="LALL_IN_ONE"> F  </i>
   <i type="int" name="IALL_IN_ONE">    -1</i>
   <i type="int" name="NBANDS_WAVE">    -1</i>
   <i type="logical" name="LFINITE_TEMPERATURE"> F  </i>
   <i type="logical" name="LADDER"> F  </i>
   <i type="logical" name="LRPAFORCE"> F  </i>
   <i type="logical" name="LFXC"> F  </i>
   <i type="logical" name="LHARTREE"> T  </i>
   <i type="int" name="IBSE">     0</i>
   <v type="int" name="KPOINT">    -1     0     0     0</v>
   <i type="logical" name="LTCTC"> F  </i>
   <i type="logical" name="LTCTE"> F  </i>
   <i type="logical" name="LTETE"> F  </i>
   <i type="logical" name="LTRIPLET"> F  </i>
   <i type="logical" name="LFXCEPS"> F  </i>
   <i type="logical" name="LFXHEG"> F  </i>
   <i type="int" name="NATURALO">     2</i>
   <i type="logical" name="LHOLEGF"> F  </i>
   <i type="logical" name="L2ORDER"> F  </i>
   <i type="logical" name="LDMP1"> F  </i>
   <i type="logical" name="LMP2LT"> F  </i>
   <i type="logical" name="LSMP2LT"> F  </i>
   <i type="logical" name="LGWLF"> F  </i>
   <i name="ENCUTGW">     -1.60000002</i>
   <i name="ENCUTGWSOFT">     -1.60000002</i>
   <i name="ENCUTLF">     -1.00000000</i>
   <i type="logical" name="LESF_SPLINES"> F  </i>
   <i type="int" name="LMAXMP2">    -1</i>
   <i name="SCISSOR">      0.00000000</i>
   <i type="int" name="NOMEGA">     0</i>
   <i type="int" name="NOMEGAR">     0</i>
   <i type="int" name="NBANDSGW">    -1</i>
   <i type="int" name="NBANDSO">    -1</i>
   <i type="int" name="NBANDSV">    -1</i>
   <i type="int" name="NELMGW">     1</i>
   <i type="int" name="NELMHF">     1</i>
   <i type="int" name="DIM">     3</i>
   <i type="int" name="IESPILON">     4</i>
   <i type="int" name="ANTIRES">     0</i>
   <i name="OMEGAMAX">    -30.00000000</i>
   <i name="OMEGAMIN">    -30.00000000</i>
   <i name="OMEGATL">   -200.00000000</i>
   <i type="int" name="OMEGAGRID">     0</i>
   <i name="CSHIFT">     -0.10000000</i>
   <i type="logical" name="LSELFENERGY"> F  </i>
   <i type="logical" name="LSPECTRAL"> F  </i>
   <i type="logical" name="LSPECTRALGW"> F  </i>
   <i type="logical" name="LSINGLES"> F  </i>
   <i type="logical" name="LFERMIGW"> F  </i>
   <i type="logical" name="ODDONLYGW"> F  </i>
   <i type="logical" name="EVENONLYGW"> F  </i>
   <i type="int" name="NKREDLFX">     1</i>
   <i type="int" name="NKREDLFY">     1</i>
   <i type="int" name="NKREDLFZ">     1</i>
   <i type="int" name="MAXMEM">  2800</i>
   <i type="int" name="TELESCOPE">     0</i>
   <i type="int" name="NTAUPAR">    -1</i>
   <i type="int" name="NOMEGAPAR">    -1</i>
   <i name="DAMP_NEWTON">      0.80000001</i>
   <i name="LAMBDA">      1.00000000</i>
  </separator>
  <separator name="External order field" >
   <i name="OFIELD_KAPPA">      0.00000000</i>
   <v name="OFIELD_K">      0.00000000      0.00000000      0.00000000</v>
   <i name="OFIELD_Q6_NEAR">      0.00000000</i>
   <i name="OFIELD_Q6_FAR">      0.00000000</i>
   <i name="OFIELD_A">      0.00000000</i>
  </separator>
  <separator name="optional k-points parameters" >
   <i type="int" name="KPOINTS_OPT_MODE">     1</i>
   <i type="logical" name="LKPOINTS_OPT"> F  </i>
  </separator>
 </parameters>
 <atominfo>
  <atoms>       2 </atoms>
  <types>       1 </types>
  <array name="atoms" >
   <dimension dim="1">ion</dimension>
   <field type="string">element</field>
   <field type="int">atomtype</field>
   <set>
    <rc><c>N </c><c>   1</c></rc>
    <rc><c>N </c><c>   1</c></rc>
   </set>
  </array>
  <array name="atomtypes" >
   <dimension dim="1">type</dimension>
   <field type="int">atomspertype</field>
   <field type="string">element</field>
   <field>mass</field>
   <field>valence</field>
   <field type="string">pseudopotential</field>
   <set>
    <rc><c>   2</c><c>N </c><c>     14.00100000</c><c>      5.00000000</c><c>  PAW_PBE N_GW 10Apr2007                </c></rc>
   </set>
  </array>
 </atominfo>
 <structure name="initialpos" >
  <crystal>
   <varray name="basis" >
    <v>       2.29449859       0.00000000       0.00000000 </v>
    <v>      -1.14724930       1.98709407       0.00000000 </v>
    <v>       0.00000000       0.00000000      16.00000000 </v>
   </varray>
   <i name="volume">     72.95015287 </i>
   <varray name="rec_basis" >
    <v>       0.43582507       0.25162372       0.00000000 </v>
    <v>       0.00000000       0.50324744       0.00000000 </v>
    <v>       0.00000000       0.00000000       0.06250000 </v>
   </varray>
  </crystal>
  <varray name="positions" >
   <v>       0.66666667       0.33333333       0.47822185 </v>
   <v>       0.33333333       0.66666667       0.52177815 </v>
  </varray>
 </structure>
 <calculation>
  <scstep>
   <time name="dav">    0.19    0.19</time>
   <time name="total">    0.26    0.26</time>
   <energy>
    <i name="alphaZ">      5.96913924 </i>
    <i name="ewald">   1610.65328944 </i>
    <i name="hartreedc">  -2055.25523171 </i>
    <i name="XCdc">     40.24275613 </i>
    <i name="pawpsdc">    409.78799272 </i>
    <i name="pawaedc">   -412.24743296 </i>
    <i name="eentropy">     -0.00005305 </i>
    <i name="bandstr">    -71.06669534 </i>
    <i name="atom">    529.06779047 </i>
    <i name="e_fr_energy">     57.15155493 </i>
    <i name="e_wo_entrp">     57.15160798 </i>
    <i name="e_0_energy">     57.15158145 </i>
   </energy>
  </scstep>
  <scstep>
   <time name="dav">    0.29    0.29</time>
   <time name="total">    0.29    0.29</time>
   <energy>
    <i name="e_fr_energy">    -12.89517848 </i>
    <i name="e_wo_entrp">    -12.89517848 </i>
    <i name="e_0_energy">    -12.89517848 </i>
   </energy>
  </scstep>
  <scstep>
   <time name="dav">    0.19    0.19</time>
   <time name="total">    0.19    0.19</time>
   <energy>
    <i name="e_fr_energy">    -14.03972161 </i>
    <i name="e_wo_entrp">    -14.03972161 </i>
    <i name="e_0_energy">    -14.03972161 </i>
   </energy>
  </scstep>
  <scstep>
   <time name="dav">    0.34    0.34</time>
   <time name="total">    0.34    0.34</time>
   <energy>
    <i name="e_fr_energy">    -14.04450574 </i>
    <i name="e_wo_entrp">    -14.04450574 </i>
    <i name="e_0_energy">    -14.04450574 </i>
   </energy>
  </scstep>
  <scstep>
   <time name="dav">    0.20    0.20</time>
   <time name="total">    0.20    0.20</time>
   <energy>
    <i name="e_fr_energy">    -14.04451311 </i>
    <i name="e_wo_entrp">    -14.04451311 </i>
    <i name="e_0_energy">    -14.04451311 </i>
   </energy>
  </scstep>
  <scstep>
   <time name="dav">    0.36    0.36</time>
   <time name="total">    0.36    0.36</time>
   <energy>
    <i name="e_fr_energy">    -14.04451315 </i>
    <i name="e_wo_entrp">    -14.04451315 </i>
    <i name="e_0_energy">    -14.04451315 </i>
   </energy>
  </scstep>
  <scstep>
   <time name="dav">    0.21    0.21</time>
   <time name="total">    0.21    0.21</time>
   <energy>
    <i name="e_fr_energy">    -14.04451315 </i>
    <i name="e_wo_entrp">    -14.04451315 </i>
    <i name="e_0_energy">    -14.04451315 </i>
   </energy>
  </scstep>
  <scstep>
   <time name="dav">    0.27    0.27</time>
   <time name="total">    0.27    0.27</time>
   <energy>
    <i name="e_fr_energy">    -14.04451315 </i>
    <i name="e_wo_entrp">    -14.04451315 </i>
    <i name="e_0_energy">    -14.04451315 </i>
   </energy>
  </scstep>
  <scstep>
   <time name="dav">    0.16    0.16</time>
   <time name="total">    0.16    0.16</time>
   <energy>
    <i name="e_fr_energy">    -14.04451315 </i>
    <i name="e_wo_entrp">    -14.04451315 </i>
    <i name="e_0_energy">    -14.04451315 </i>
   </energy>
  </scstep>
  <scstep>
   <time name="dav">    0.19    0.19</time>
   <time name="total">    0.19    0.19</time>
   <energy>
    <i name="e_fr_energy">    -14.04451315 </i>
    <i name="e_wo_entrp">    -14.04451315 </i>
    <i name="e_0_energy">    -14.04451315 </i>
   </energy>
  </scstep>
  <scstep>
   <time name="dav">    0.13    0.13</time>
   <time name="total">    0.13    0.13</time>
   <energy>
    <i name="e_fr_energy">    -14.04451315 </i>
    <i name="e_wo_entrp">    -14.04451315 </i>
    <i name="e_0_energy">    -14.04451315 </i>
   </energy>
  </scstep>
  <scstep>
   <time name="dav">    0.14    0.14</time>
   <time name="total">    0.16    0.16</time>
   <energy>
    <i name="e_fr_energy">    -14.04451315 </i>
    <i name="e_wo_entrp">    -14.04451315 </i>
    <i name="e_0_energy">    -14.04451315 </i>
   </energy>
  </scstep>
  <scstep>
   <time name="dav">    0.27    0.27</time>
   <time name="total">    0.37    0.37</time>
   <energy>
    <i name="e_fr_energy">    -13.85775607 </i>
    <i name="e_wo_entrp">    -13.85775607 </i>
    <i name="e_0_energy">    -13.85775607 </i>
   </energy>
  </scstep>
  <scstep>
   <time name="dav">    0.29    0.29</time>
   <time name="total">    0.38    0.38</time>
   <energy>
    <i name="e_fr_energy">    -13.41979046 </i>
    <i name="e_wo_entrp">    -13.41979046 </i>
    <i name="e_0_energy">    -13.41979046 </i>
   </energy>
  </scstep>
  <scstep>
   <time name="dav">    0.22    0.22</time>
   <time name="total">    0.32    0.32</time>
   <energy>
    <i name="e_fr_energy">    -13.41717800 </i>
    <i name="e_wo_entrp">    -13.41717800 </i>
    <i name="e_0_energy">    -13.41717800 </i>
   </energy>
  </scstep>
  <scstep>
   <time name="dav">    0.26    0.26</time>
   <time name="total">    0.36    0.36</time>
   <energy>
    <i name="e_fr_energy">    -13.41997786 </i>
    <i name="e_wo_entrp">    -13.41997786 </i>
    <i name="e_0_energy">    -13.41997786 </i>
   </energy>
  </scstep>
  <scstep>
   <time name="dav">    0.20    0.32</time>
   <time name="total">    0.29    0.42</time>
   <energy>
    <i name="e_fr_energy">    -13.41986955 </i>
    <i name="e_wo_entrp">    -13.41986955 </i>
    <i name="e_0_energy">    -13.41986955 </i>
   </energy>
  </scstep>
  <scstep>
   <time name="dav">    0.30    0.30</time>
   <time name="total">    0.39    0.39</time>
   <energy>
    <i name="e_fr_energy">    -13.41989019 </i>
    <i name="e_wo_entrp">    -13.41989019 </i>
    <i name="e_0_energy">    -13.41989019 </i>
   </energy>
  </scstep>
  <scstep>
   <time name="dav">    0.18    0.18</time>
   <time name="total">    0.25    0.25</time>
   <energy>
    <i name="alphaZ">      5.96913924 </i>
    <i name="ewald">   1610.65328944 </i>
    <i name="hartreedc">  -2051.48512839 </i>
    <i name="XCdc">     40.83701584 </i>
    <i name="pawpsdc">    530.65921974 </i>
    <i name="pawaedc">   -533.07210850 </i>
    <i name="eentropy">     -0.00000000 </i>
    <i name="bandstr">   -146.04910780 </i>
    <i name="atom">    529.06779047 </i>
    <i name="e_fr_energy">    -13.41988995 </i>
    <i name="e_wo_entrp">    -13.41988995 </i>
    <i name="e_0_energy">    -13.41988995 </i>
   </energy>
  </scstep>
  <structure>
   <crystal>
    <varray name="basis" >
     <v>       2.29449859       0.00000000       0.00000000 </v>
     <v>      -1.14724930       1.98709407       0.00000000 </v>
     <v>       0.00000000       0.00000000      16.00000000 </v>
    </varray>
    <i name="volume">     72.95015287 </i>
    <varray name="rec_basis" >
     <v>       0.43582507       0.25162372       0.00000000 </v>
     <v>       0.00000000       0.50324744       0.00000000 </v>
     <v>       0.00000000       0.00000000       0.06250000 </v>
    </varray>
   </crystal>
   <varray name="positions" >
    <v>       0.66666667       0.33333333       0.47822185 </v>
    <v>       0.33333333       0.66666667       0.52177815 </v>
   </varray>
  </structure>
  <varray name="forces" >
   <v>       0.00000000       0.00000000      -0.02427575 </v>
   <v>      -0.00000000      -0.00000000       0.02427575 </v>
  </varray>
  <varray name="stress" >
   <v>      -5.98072212       0.00000000       0.00000000 </v>
   <v>      -0.00000000      -5.98072212       0.00000000 </v>
   <v>       0.00000000       0.00000000      -6.10702701 </v>
  </varray>
  <energy>
   <i name="e_fr_energy">    -13.41988995 </i>
   <i name="e_wo_entrp">    -13.41988995 </i>
   <i name="e_0_energy">    -13.41988995 </i>
  </energy>
  <kpoints>
   <generation param="Gamma">
    <v type="int" name="divisions">      20       20        1 </v>
    <v name="usershift">      0.00000000       0.00000000       0.00000000 </v>
    <v name="genvec1">      0.05000000       0.00000000       0.00000000 </v>
    <v name="genvec2">      0.00000000       0.05000000       0.00000000 </v>
    <v name="genvec3">      0.00000000       0.00000000       1.00000000 </v>
    <v name="shift">      0.00000000       0.00000000       0.00000000 </v>
   </generation>
   <varray name="kpointlist" >
    <v>       0.00000000       0.00000000       0.00000000 </v>
    <v>       0.05000000       0.00000000       0.00000000 </v>
    <v>       0.00000000       0.05000000       0.00000000 </v>
    <v>      -0.05000000       0.05000000       0.00000000 </v>
    <v>       0.10000000       0.00000000       0.00000000 </v>
    <v>       0.00000000       0.10000000       0.00000000 </v>
    <v>      -0.10000000       0.10000000       0.00000000 </v>
    <v>       0.15000000       0.00000000       0.00000000 </v>
    <v>       0.00000000       0.15000000       0.00000000 </v>
    <v>      -0.15000000       0.15000000       0.00000000 </v>
    <v>       0.20000000       0.00000000       0.00000000 </v>
    <v>       0.00000000       0.20000000       0.00000000 </v>
    <v>      -0.20000000       0.20000000       0.00000000 </v>
    <v>       0.25000000       0.00000000       0.00000000 </v>
    <v>       0.00000000       0.25000000       0.00000000 </v>
    <v>      -0.25000000       0.25000000       0.00000000 </v>
    <v>       0.30000000       0.00000000       0.00000000 </v>
    <v>       0.00000000       0.30000000       0.00000000 </v>
    <v>      -0.30000000       0.30000000       0.00000000 </v>
    <v>       0.35000000      -0.00000000       0.00000000 </v>
    <v>       0.00000000       0.35000000       0.00000000 </v>
    <v>      -0.35000000       0.35000000       0.00000000 </v>
    <v>       0.40000000       0.00000000       0.00000000 </v>
    <v>       0.00000000       0.40000000       0.00000000 </v>
    <v>      -0.40000000       0.40000000       0.00000000 </v>
    <v>       0.45000000       0.00000000       0.00000000 </v>
    <v>       0.00000000       0.45000000       0.00000000 </v>
    <v>      -0.45000000       0.45000000       0.00000000 </v>
    <v>       0.50000000       0.00000000       0.00000000 </v>
    <v>       0.00000000       0.50000000       0.00000000 </v>
    <v>       0.50000000       0.50000000       0.00000000 </v>
    <v>       0.05000000       0.05000000       0.00000000 </v>
    <v>      -0.05000000       0.10000000       0.00000000 </v>
    <v>      -0.10000000       0.05000000       0.00000000 </v>
    <v>       0.10000000       0.05000000       0.00000000 </v>
    <v>      -0.05000000       0.15000000       0.00000000 </v>
    <v>      -0.15000000       0.10000000       0.00000000 </v>
    <v>      -0.10000000       0.15000000       0.00000000 </v>
    <v>       0.05000000       0.10000000       0.00000000 </v>
    <v>       0.15000000      -0.05000000       0.00000000 </v>
    <v>       0.15000000       0.05000000       0.00000000 </v>
    <v>      -0.05000000       0.20000000       0.00000000 </v>
    <v>      -0.20000000       0.15000000       0.00000000 </v>
    <v>      -0.15000000       0.20000000       0.00000000 </v>
    <v>       0.05000000       0.15000000       0.00000000 </v>
    <v>       0.20000000      -0.05000000       0.00000000 </v>
    <v>       0.20000000       0.05000000       0.00000000 </v>
    <v>      -0.05000000       0.25000000       0.00000000 </v>
    <v>      -0.25000000       0.20000000       0.00000000 </v>
    <v>      -0.20000000       0.25000000       0.00000000 </v>
    <v>       0.05000000       0.20000000       0.00000000 </v>
    <v>       0.25000000      -0.05000000       0.00000000 </v>
    <v>       0.25000000       0.05000000       0.00000000 </v>
    <v>      -0.05000000       0.30000000       0.00000000 </v>
    <v>      -0.30000000       0.25000000       0.00000000 </v>
    <v>      -0.25000000       0.30000000       0.00000000 </v>
    <v>       0.05000000       0.25000000       0.00000000 </v>
    <v>       0.30000000      -0.05000000       0.00000000 </v>
    <v>       0.30000000       0.05000000       0.00000000 </v>
    <v>      -0.05000000       0.35000000       0.00000000 </v>
    <v>      -0.35000000       0.30000000       0.00000000 </v>
    <v>      -0.30000000       0.35000000       0.00000000 </v>
    <v>       0.05000000       0.30000000       0.00000000 </v>
    <v>       0.35000000      -0.05000000       0.00000000 </v>
    <v>       0.35000000       0.05000000       0.00000000 </v>
    <v>      -0.05000000       0.40000000       0.00000000 </v>
    <v>      -0.40000000       0.35000000       0.00000000 </v>
    <v>      -0.35000000       0.40000000       0.00000000 </v>
    <v>       0.05000000       0.35000000       0.00000000 </v>
    <v>       0.40000000      -0.05000000       0.00000000 </v>
    <v>       0.40000000       0.05000000       0.00000000 </v>
    <v>      -0.05000000       0.45000000       0.00000000 </v>
    <v>      -0.45000000       0.40000000       0.00000000 </v>
    <v>      -0.40000000       0.45000000       0.00000000 </v>
    <v>       0.05000000       0.40000000       0.00000000 </v>
    <v>       0.45000000      -0.05000000       0.00000000 </v>
    <v>       0.45000000       0.05000000       0.00000000 </v>
    <v>      -0.05000000       0.50000000       0.00000000 </v>
    <v>       0.50000000       0.45000000       0.00000000 </v>
    <v>      -0.45000000       0.50000000       0.00000000 </v>
    <v>       0.05000000       0.45000000       0.00000000 </v>
    <v>       0.50000000      -0.05000000       0.00000000 </v>
    <v>       0.10000000       0.10000000       0.00000000 </v>
    <v>      -0.10000000       0.20000000       0.00000000 </v>
    <v>      -0.20000000       0.10000000       0.00000000 </v>
    <v>       0.15000000       0.10000000       0.00000000 </v>
    <v>      -0.10000000       0.25000000       0.00000000 </v>
    <v>      -0.25000000       0.15000000       0.00000000 </v>
    <v>      -0.15000000       0.25000000       0.00000000 </v>
    <v>       0.10000000       0.15000000       0.00000000 </v>
    <v>       0.25000000      -0.10000000       0.00000000 </v>
    <v>       0.20000000       0.10000000       0.00000000 </v>
    <v>      -0.10000000       0.30000000       0.00000000 </v>
    <v>      -0.30000000       0.20000000       0.00000000 </v>
    <v>      -0.20000000       0.30000000       0.00000000 </v>
    <v>       0.10000000       0.20000000       0.00000000 </v>
    <v>       0.30000000      -0.10000000       0.00000000 </v>
    <v>       0.25000000       0.10000000       0.00000000 </v>
    <v>      -0.10000000       0.35000000       0.00000000 </v>
    <v>      -0.35000000       0.25000000       0.00000000 </v>
    <v>      -0.25000000       0.35000000       0.00000000 </v>
    <v>       0.10000000       0.25000000       0.00000000 </v>
    <v>       0.35000000      -0.10000000       0.00000000 </v>
    <v>       0.30000000       0.10000000       0.00000000 </v>
    <v>      -0.10000000       0.40000000       0.00000000 </v>
    <v>      -0.40000000       0.30000000       0.00000000 </v>
    <v>      -0.30000000       0.40000000       0.00000000 </v>
    <v>       0.10000000       0.30000000       0.00000000 </v>
    <v>       0.40000000      -0.10000000       0.00000000 </v>
    <v>       0.35000000       0.10000000       0.00000000 </v>
    <v>      -0.10000000       0.45000000       0.00000000 </v>
    <v>      -0.45000000       0.35000000       0.00000000 </v>
    <v>      -0.35000000       0.45000000       0.00000000 </v>
    <v>       0.10000000       0.35000000       0.00000000 </v>
    <v>       0.45000000      -0.10000000       0.00000000 </v>
    <v>       0.40000000       0.10000000       0.00000000 </v>
    <v>      -0.10000000       0.50000000       0.00000000 </v>
    <v>       0.50000000       0.40000000       0.00000000 </v>
    <v>      -0.40000000       0.50000000       0.00000000 </v>
    <v>       0.10000000       0.40000000       0.00000000 </v>
    <v>       0.50000000      -0.10000000       0.00000000 </v>
    <v>       0.45000000       0.10000000       0.00000000 </v>
    <v>      -0.10000000      -0.45000000       0.00000000 </v>
    <v>       0.45000000       0.45000000       0.00000000 </v>
    <v>       0.15000000       0.15000000       0.00000000 </v>
    <v>      -0.15000000       0.30000000       0.00000000 </v>
    <v>      -0.30000000       0.15000000       0.00000000 </v>
    <v>       0.20000000       0.15000000       0.00000000 </v>
    <v>      -0.15000000       0.35000000       0.00000000 </v>
    <v>      -0.35000000       0.20000000       0.00000000 </v>
    <v>      -0.20000000       0.35000000       0.00000000 </v>
    <v>       0.15000000       0.20000000       0.00000000 </v>
    <v>       0.35000000      -0.15000000       0.00000000 </v>
    <v>       0.25000000       0.15000000       0.00000000 </v>
    <v>      -0.15000000       0.40000000       0.00000000 </v>
    <v>      -0.40000000       0.25000000       0.00000000 </v>
    <v>      -0.25000000       0.40000000       0.00000000 </v>
    <v>       0.15000000       0.25000000       0.00000000 </v>
    <v>       0.40000000      -0.15000000       0.00000000 </v>
    <v>       0.30000000       0.15000000       0.00000000 </v>
    <v>      -0.15000000       0.45000000       0.00000000 </v>
    <v>      -0.45000000       0.30000000       0.00000000 </v>
    <v>      -0.30000000       0.45000000       0.00000000 </v>
    <v>       0.15000000       0.30000000       0.00000000 </v>
    <v>       0.45000000      -0.15000000       0.00000000 </v>
    <v>       0.35000000       0.15000000       0.00000000 </v>
    <v>      -0.15000000       0.50000000       0.00000000 </v>
    <v>       0.50000000       0.35000000       0.00000000 </v>
    <v>      -0.35000000       0.50000000       0.00000000 </v>
    <v>       0.15000000       0.35000000       0.00000000 </v>
    <v>       0.50000000      -0.15000000       0.00000000 </v>
    <v>       0.40000000       0.15000000       0.00000000 </v>
    <v>      -0.15000000      -0.45000000       0.00000000 </v>
    <v>       0.45000000       0.40000000       0.00000000 </v>
    <v>      -0.40000000      -0.45000000       0.00000000 </v>
    <v>       0.15000000       0.40000000       0.00000000 </v>
    <v>      -0.45000000      -0.15000000       0.00000000 </v>
    <v>       0.20000000       0.20000000       0.00000000 </v>
    <v>      -0.20000000       0.40000000       0.00000000 </v>
    <v>      -0.40000000       0.20000000       0.00000000 </v>
    <v>       0.25000000       0.20000000       0.00000000 </v>
    <v>      -0.20000000       0.45000000       0.00000000 </v>
    <v>      -0.45000000       0.25000000       0.00000000 </v>
    <v>      -0.25000000       0.45000000       0.00000000 </v>
    <v>       0.20000000       0.25000000       0.00000000 </v>
    <v>       0.45000000      -0.20000000       0.00000000 </v>
    <v>       0.30000000       0.20000000       0.00000000 </v>
    <v>      -0.20000000       0.50000000       0.00000000 </v>
    <v>       0.50000000       0.30000000       0.00000000 </v>
    <v>      -0.30000000       0.50000000       0.00000000 </v>
    <v>       0.20000000       0.30000000       0.00000000 </v>
    <v>       0.50000000      -0.20000000       0.00000000 </v>
    <v>       0.35000000       0.20000000       0.00000000 </v>
    <v>      -0.20000000      -0.45000000       0.00000000 </v>
    <v>       0.45000000       0.35000000       0.00000000 </v>
    <v>      -0.35000000      -0.45000000       0.00000000 </v>
    <v>       0.20000000       0.35000000       0.00000000 </v>
    <v>      -0.45000000      -0.20000000       0.00000000 </v>
    <v>       0.40000000       0.20000000       0.00000000 </v>
    <v>      -0.20000000      -0.40000000       0.00000000 </v>
    <v>       0.40000000       0.40000000       0.00000000 </v>
    <v>       0.25000000       0.25000000       0.00000000 </v>
    <v>      -0.25000000       0.50000000       0.00000000 </v>
    <v>       0.50000000       0.25000000       0.00000000 </v>
    <v>       0.30000000       0.25000000       0.00000000 </v>
    <v>      -0.25000000      -0.45000000       0.00000000 </v>
    <v>       0.45000000       0.30000000       0.00000000 </v>
    <v>      -0.30000000      -0.45000000       0.00000000 </v>
    <v>       0.25000000       0.30000000       0.00000000 </v>
    <v>      -0.45000000      -0.25000000       0.00000000 </v>
    <v>       0.35000000       0.25000000       0.00000000 </v>
    <v>      -0.25000000      -0.40000000       0.00000000 </v>
    <v>       0.40000000       0.35000000       0.00000000 </v>
    <v>      -0.35000000      -0.40000000       0.00000000 </v>
    <v>       0.25000000       0.35000000       0.00000000 </v>
    <v>      -0.40000000      -0.25000000       0.00000000 </v>
    <v>       0.30000000       0.30000000       0.00000000 </v>
    <v>      -0.30000000      -0.40000000       0.00000000 </v>
    <v>       0.40000000       0.30000000       0.00000000 </v>
    <v>       0.35000000       0.30000000       0.00000000 </v>
    <v>      -0.30000000      -0.35000000       0.00000000 </v>
    <v>       0.35000000       0.35000000       0.00000000 </v>
   </varray>
   <varray name="weights" >
    <v>       0.00250000 </v>
    <v>       0.00500000 </v>
    <v>       0.00500000 </v>
    <v>       0.00500000 </v>
    <v>       0.00500000 </v>
    <v>       0.00500000 </v>
    <v>       0.00500000 </v>
    <v>       0.00500000 </v>
    <v>       0.00500000 </v>
    <v>       0.00500000 </v>
    <v>       0.00500000 </v>
    <v>       0.00500000 </v>
    <v>       0.00500000 </v>
    <v>       0.00500000 </v>
    <v>       0.00500000 </v>
    <v>       0.00500000 </v>
    <v>       0.00500000 </v>
    <v>       0.00500000 </v>
    <v>       0.00500000 </v>
    <v>       0.00500000 </v>
    <v>       0.00500000 </v>
    <v>       0.00500000 </v>
    <v>       0.00500000 </v>
    <v>       0.00500000 </v>
    <v>       0.00500000 </v>
    <v>       0.00500000 </v>
    <v>       0.00500000 </v>
    <v>       0.00500000 </v>
    <v>       0.00250000 </v>
    <v>       0.00250000 </v>
    <v>       0.00250000 </v>
    <v>       0.00500000 </v>
    <v>       0.00500000 </v>
    <v>       0.00500000 </v>
    <v>       0.00500000 </v>
    <v>       0.00500000 </v>
    <v>       0.00500000 </v>
    <v>       0.00500000 </v>
    <v>       0.00500000 </v>
    <v>       0.00500000 </v>
    <v>       0.00500000 </v>
    <v>       0.00500000 </v>
    <v>       0.00500000 </v>
    <v>       0.00500000 </v>
    <v>       0.00500000 </v>
    <v>       0.00500000 </v>
    <v>       0.00500000 </v>
    <v>       0.00500000 </v>
    <v>       0.00500000 </v>
    <v>       0.00500000 </v>
    <v>       0.00500000 </v>
    <v>       0.00500000 </v>
    <v>       0.00500000 </v>
    <v>       0.00500000 </v>
    <v>       0.00500000 </v>
    <v>       0.00500000 </v>
    <v>       0.00500000 </v>
    <v>       0.00500000 </v>
    <v>       0.00500000 </v>
    <v>       0.00500000 </v>
    <v>       0.00500000 </v>
    <v>       0.00500000 </v>
    <v>       0.00500000 </v>
    <v>       0.00500000 </v>
    <v>       0.00500000 </v>
    <v>       0.00500000 </v>
    <v>       0.00500000 </v>
    <v>       0.00500000 </v>
    <v>       0.00500000 </v>
    <v>       0.00500000 </v>
    <v>       0.00500000 </v>
    <v>       0.00500000 </v>
    <v>       0.00500000 </v>
    <v>       0.00500000 </v>
    <v>       0.00500000 </v>
    <v>       0.00500000 </v>
    <v>       0.00500000 </v>
    <v>       0.00500000 </v>
    <v>       0.00500000 </v>
    <v>       0.00500000 </v>
    <v>       0.00500000 </v>
    <v>       0.00500000 </v>
    <v>       0.00500000 </v>
    <v>       0.00500000 </v>
    <v>       0.00500000 </v>
    <v>       0.00500000 </v>
    <v>       0.00500000 </v>
    <v>       0.00500000 </v>
    <v>       0.00500000 </v>
    <v>       0.00500000 </v>
    <v>       0.00500000 </v>
    <v>       0.00500000 </v>
    <v>       0.00500000 </v>
    <v>       0.00500000 </v>
    <v>       0.00500000 </v>
    <v>       0.00500000 </v>
    <v>       0.00500000 </v>
    <v>       0.00500000 </v>
    <v>       0.00500000 </v>
    <v>       0.00500000 </v>
    <v>       0.00500000 </v>
    <v>       0.00500000 </v>
    <v>       0.00500000 </v>
    <v>       0.00500000 </v>
    <v>       0.00500000 </v>
    <v>       0.00500000 </v>
    <v>       0.00500000 </v>
    <v>       0.00500000 </v>
    <v>       0.00500000 </v>
    <v>       0.00500000 </v>
    <v>       0.00500000 </v>
    <v>       0.00500000 </v>
    <v>       0.00500000 </v>
    <v>       0.00500000 </v>
    <v>       0.00500000 </v>
    <v>       0.00500000 </v>
    <v>       0.00500000 </v>
    <v>       0.00500000 </v>
    <v>       0.00500000 </v>
    <v>       0.00500000 </v>
    <v>       0.00500000 </v>
    <v>       0.00500000 </v>
    <v>       0.00500000 </v>
    <v>       0.00500000 </v>
    <v>       0.00500000 </v>
    <v>       0.00500000 </v>
    <v>       0.00500000 </v>
    <v>       0.00500000 </v>
    <v>       0.00500000 </v>
    <v>       0.00500000 </v>
    <v>       0.00500000 </v>
    <v>       0.00500000 </v>
    <v>       0.00500000 </v>
    <v>       0.00500000 </v>
    <v>       0.00500000 </v>
    <v>       0.00500000 </v>
    <v>       0.00500000 </v>
    <v>       0.00500000 </v>
    <v>       0.00500000 </v>
    <v>       0.00500000 </v>
    <v>       0.00500000 </v>
    <v>       0.00500000 </v>
    <v>       0.00500000 </v>
    <v>       0.00500000 </v>
    <v>       0.00500000 </v>
    <v>       0.00500000 </v>
    <v>       0.00500000 </v>
    <v>       0.00500000 </v>
    <v>       0.00500000 </v>
    <v>       0.00500000 </v>
    <v>       0.00500000 </v>
    <v>       0.00500000 </v>
    <v>       0.00500000 </v>
    <v>       0.00500000 </v>
    <v>       0.00500000 </v>
    <v>       0.00500000 </v>
    <v>       0.00500000 </v>
    <v>       0.00500000 </v>
    <v>       0.00500000 </v>
    <v>       0.00500000 </v>
    <v>       0.00500000 </v>
    <v>       0.00500000 </v>
    <v>       0.00500000 </v>
    <v>       0.00500000 </v>
    <v>       0.00500000 </v>
    <v>       0.00500000 </v>
    <v>       0.00500000 </v>
    <v>       0.00500000 </v>
    <v>       0.00500000 </v>
    <v>       0.00500000 </v>
    <v>       0.00500000 </v>
    <v>       0.00500000 </v>
    <v>       0.00500000 </v>
    <v>       0.00500000 </v>
    <v>       0.00500000 </v>
    <v>       0.00500000 </v>
    <v>       0.00500000 </v>
    <v>       0.00500000 </v>
    <v>       0.00500000 </v>
    <v>       0.00500000 </v>
    <v>       0.00500000 </v>
    <v>       0.00500000 </v>
    <v>       0.00500000 </v>
    <v>       0.00500000 </v>
    <v>       0.00500000 </v>
    <v>       0.00500000 </v>
    <v>       0.00500000 </v>
    <v>       0.00500000 </v>
    <v>       0.00500000 </v>
    <v>       0.00500000 </v>
    <v>       0.00500000 </v>
    <v>       0.00500000 </v>
    <v>       0.00500000 </v>
    <v>       0.00500000 </v>
    <v>       0.00500000 </v>
    <v>       0.00500000 </v>
    <v>       0.00500000 </v>
    <v>       0.00500000 </v>
    <v>       0.00500000 </v>
    <v>       0.00500000 </v>
    <v>       0.00500000 </v>
    <v>       0.00500000 </v>
   </varray>
  </kpoints>
  <scstep>
   <time name="total">    1.53    1.53</time>
   <energy>
    <i name="e_fr_energy">   -537.57804515 </i>
    <i name="e_wo_entrp">   -537.57804515 </i>
    <i name="e_0_energy">   -537.57804515 </i>
   </energy>
  </scstep>
  <scstep>
   <time name="total">    1.33    1.33</time>
   <energy>
    <i name="e_fr_energy">   -518.72967194 </i>
    <i name="e_wo_entrp">   -518.72967194 </i>
    <i name="e_0_energy">   -518.72967194 </i>
   </energy>
  </scstep>
  <scstep>
   <time name="total">    1.26    1.26</time>
   <energy>
    <i name="e_fr_energy">   -519.09137726 </i>
    <i name="e_wo_entrp">   -519.09137726 </i>
    <i name="e_0_energy">   -519.09137726 </i>
   </energy>
  </scstep>
  <scstep>
   <time name="total">    1.48    1.48</time>
   <energy>
    <i name="e_fr_energy">   -522.61464975 </i>
    <i name="e_wo_entrp">   -522.61464975 </i>
    <i name="e_0_energy">   -522.61464975 </i>
   </energy>
  </scstep>
  <scstep>
   <time name="total">    1.34    1.34</time>
   <energy>
    <i name="e_fr_energy">   -522.37998069 </i>
    <i name="e_wo_entrp">   -522.37998069 </i>
    <i name="e_0_energy">   -522.37998069 </i>
   </energy>
  </scstep>
  <scstep>
   <time name="total">    1.52    1.52</time>
   <energy>
    <i name="e_fr_energy">   -521.06592518 </i>
    <i name="e_wo_entrp">   -521.06592518 </i>
    <i name="e_0_energy">   -521.06592518 </i>
   </energy>
  </scstep>
  <scstep>
   <time name="total">    1.46    1.46</time>
   <energy>
    <i name="e_fr_energy">   -521.39643701 </i>
    <i name="e_wo_entrp">   -521.39643701 </i>
    <i name="e_0_energy">   -521.39643701 </i>
   </energy>
  </scstep>
  <scstep>
   <time name="total">    1.56    1.56</time>
   <energy>
    <i name="e_fr_energy">   -521.41504986 </i>
    <i name="e_wo_entrp">   -521.41504986 </i>
    <i name="e_0_energy">   -521.41504986 </i>
   </energy>
  </scstep>
  <scstep>
   <time name="total">    1.61    1.61</time>
   <energy>
    <i name="e_fr_energy">   -521.35532197 </i>
    <i name="e_wo_entrp">   -521.35532197 </i>
    <i name="e_0_energy">   -521.35532197 </i>
   </energy>
  </scstep>
  <scstep>
   <time name="total">    1.65    1.65</time>
   <energy>
    <i name="e_fr_energy">   -521.36304039 </i>
    <i name="e_wo_entrp">   -521.36304039 </i>
    <i name="e_0_energy">   -521.36304039 </i>
   </energy>
  </scstep>
  <scstep>
   <time name="total">    1.64    1.64</time>
   <energy>
    <i name="e_fr_energy">   -521.36172198 </i>
    <i name="e_wo_entrp">   -521.36172198 </i>
    <i name="e_0_energy">   -521.36172198 </i>
   </energy>
  </scstep>
  <kpoints>
   <generation param="Gamma">
    <v type="int" name="divisions">      20       20        1 </v>
    <v name="usershift">      0.00000000       0.00000000       0.00000000 </v>
    <v name="genvec1">      0.05000000       0.00000000       0.00000000 </v>
    <v name="genvec2">      0.00000000       0.05000000       0.00000000 </v>
    <v name="genvec3">      0.00000000       0.00000000       1.00000000 </v>
    <v name="shift">      0.00000000       0.00000000       0.00000000 </v>
   </generation>
   <varray name="kpointlist" >
    <v>       0.00000000       0.00000000       0.00000000 </v>
    <v>       0.05000000       0.00000000       0.00000000 </v>
    <v>       0.10000000       0.00000000       0.00000000 </v>
    <v>       0.15000000       0.00000000       0.00000000 </v>
    <v>       0.20000000       0.00000000       0.00000000 </v>
    <v>       0.25000000       0.00000000       0.00000000 </v>
    <v>       0.30000000       0.00000000       0.00000000 </v>
    <v>       0.35000000      -0.00000000       0.00000000 </v>
    <v>       0.40000000       0.00000000       0.00000000 </v>
    <v>       0.45000000       0.00000000       0.00000000 </v>
    <v>       0.50000000       0.00000000       0.00000000 </v>
    <v>       0.05000000       0.05000000       0.00000000 </v>
    <v>       0.10000000       0.05000000       0.00000000 </v>
    <v>       0.15000000       0.05000000       0.00000000 </v>
    <v>       0.20000000       0.05000000       0.00000000 </v>
    <v>       0.25000000       0.05000000       0.00000000 </v>
    <v>       0.30000000       0.05000000       0.00000000 </v>
    <v>       0.35000000       0.05000000       0.00000000 </v>
    <v>       0.40000000       0.05000000       0.00000000 </v>
    <v>       0.45000000       0.05000000       0.00000000 </v>
    <v>       0.10000000       0.10000000       0.00000000 </v>
    <v>       0.15000000       0.10000000       0.00000000 </v>
    <v>       0.20000000       0.10000000       0.00000000 </v>
    <v>       0.25000000       0.10000000       0.00000000 </v>
    <v>       0.30000000       0.10000000       0.00000000 </v>
    <v>       0.35000000       0.10000000       0.00000000 </v>
    <v>       0.40000000       0.10000000       0.00000000 </v>
    <v>       0.45000000       0.10000000       0.00000000 </v>
    <v>       0.15000000       0.15000000       0.00000000 </v>
    <v>       0.20000000       0.15000000       0.00000000 </v>
    <v>       0.25000000       0.15000000       0.00000000 </v>
    <v>       0.30000000       0.15000000       0.00000000 </v>
    <v>       0.35000000       0.15000000       0.00000000 </v>
    <v>       0.40000000       0.15000000       0.00000000 </v>
    <v>       0.20000000       0.20000000       0.00000000 </v>
    <v>       0.25000000       0.20000000       0.00000000 </v>
    <v>       0.30000000       0.20000000       0.00000000 </v>
    <v>       0.35000000       0.20000000       0.00000000 </v>
    <v>       0.40000000       0.20000000       0.00000000 </v>
    <v>       0.25000000       0.25000000       0.00000000 </v>
    <v>       0.30000000       0.25000000       0.00000000 </v>
    <v>       0.35000000       0.25000000       0.00000000 </v>
    <v>       0.30000000       0.30000000       0.00000000 </v>
    <v>       0.35000000       0.30000000       0.00000000 </v>
   </varray>
   <varray name="weights" >
    <v>       0.00250000 </v>
    <v>       0.01500000 </v>
    <v>       0.01500000 </v>
    <v>       0.01500000 </v>
    <v>       0.01500000 </v>
    <v>       0.01500000 </v>
    <v>       0.01500000 </v>
    <v>       0.01500000 </v>
    <v>       0.01500000 </v>
    <v>       0.01500000 </v>
    <v>       0.00750000 </v>
    <v>       0.01500000 </v>
    <v>       0.03000000 </v>
    <v>       0.03000000 </v>
    <v>       0.03000000 </v>
    <v>       0.03000000 </v>
    <v>       0.03000000 </v>
    <v>       0.03000000 </v>
    <v>       0.03000000 </v>
    <v>       0.03000000 </v>
    <v>       0.01500000 </v>
    <v>       0.03000000 </v>
    <v>       0.03000000 </v>
    <v>       0.03000000 </v>
    <v>       0.03000000 </v>
    <v>       0.03000000 </v>
    <v>       0.03000000 </v>
    <v>       0.01500000 </v>
    <v>       0.01500000 </v>
    <v>       0.03000000 </v>
    <v>       0.03000000 </v>
    <v>       0.03000000 </v>
    <v>       0.03000000 </v>
    <v>       0.03000000 </v>
    <v>       0.01500000 </v>
    <v>       0.03000000 </v>
    <v>       0.03000000 </v>
    <v>       0.03000000 </v>
    <v>       0.01500000 </v>
    <v>       0.01500000 </v>
    <v>       0.03000000 </v>
    <v>       0.03000000 </v>
    <v>       0.01500000 </v>
    <v>       0.01500000 </v>
   </varray>
  </kpoints>
  <scstep>
   <time name="total">    0.54    0.54</time>
   <energy>
    <i name="e_fr_energy">   -763.93073782 </i>
    <i name="e_wo_entrp">   -763.93073782 </i>
    <i name="e_0_energy">   -763.93073782 </i>
   </energy>
  </scstep>
  <scstep>
   <time name="total">    0.53    0.53</time>
   <energy>
    <i name="e_fr_energy">   -754.52489901 </i>
    <i name="e_wo_entrp">   -754.52489901 </i>
    <i name="e_0_energy">   -754.52489901 </i>
   </energy>
  </scstep>
  <scstep>
   <time name="total">    0.52    0.52</time>
   <energy>
    <i name="e_fr_energy">   -751.80774454 </i>
    <i name="e_wo_entrp">   -751.80774454 </i>
    <i name="e_0_energy">   -751.80774454 </i>
   </energy>
  </scstep>
  <scstep>
   <time name="total">    0.52    0.52</time>
   <energy>
    <i name="e_fr_energy">   -747.94392918 </i>
    <i name="e_wo_entrp">   -747.94392918 </i>
    <i name="e_0_energy">   -747.94392918 </i>
   </energy>
  </scstep>
  <scstep>
   <time name="total">    0.60    0.60</time>
   <energy>
    <i name="e_fr_energy">   -747.25007800 </i>
    <i name="e_wo_entrp">   -747.25007800 </i>
    <i name="e_0_energy">   -747.25007800 </i>
   </energy>
  </scstep>
  <scstep>
   <time name="total">    0.53    0.53</time>
   <energy>
    <i name="e_fr_energy">   -747.33062636 </i>
    <i name="e_wo_entrp">   -747.33062636 </i>
    <i name="e_0_energy">   -747.33062636 </i>
   </energy>
  </scstep>
  <scstep>
   <time name="total">    0.59    0.59</time>
   <energy>
    <i name="e_fr_energy">   -747.29399770 </i>
    <i name="e_wo_entrp">   -747.29399770 </i>
    <i name="e_0_energy">   -747.29399770 </i>
   </energy>
  </scstep>
  <scstep>
   <time name="total">    0.60    0.60</time>
   <energy>
    <i name="e_fr_energy">   -748.09289882 </i>
    <i name="e_wo_entrp">   -748.09289882 </i>
    <i name="e_0_energy">   -748.09289882 </i>
   </energy>
  </scstep>
  <scstep>
   <time name="total">    0.59    0.59</time>
   <energy>
    <i name="e_fr_energy">   -748.16114786 </i>
    <i name="e_wo_entrp">   -748.16114786 </i>
    <i name="e_0_energy">   -748.16114786 </i>
   </energy>
  </scstep>
  <scstep>
   <time name="total">    0.58    0.58</time>
   <energy>
    <i name="e_fr_energy">   -748.20109050 </i>
    <i name="e_wo_entrp">   -748.20109050 </i>
    <i name="e_0_energy">   -748.20109050 </i>
   </energy>
  </scstep>
  <scstep>
   <time name="total">    0.59    0.59</time>
   <energy>
    <i name="e_fr_energy">   -748.29231524 </i>
    <i name="e_wo_entrp">   -748.29231524 </i>
    <i name="e_0_energy">   -748.29231524 </i>
   </energy>
  </scstep>
  <scstep>
   <time name="total">    0.58    0.58</time>
   <energy>
    <i name="e_fr_energy">   -748.28267173 </i>
    <i name="e_wo_entrp">   -748.28267173 </i>
    <i name="e_0_energy">   -748.28267173 </i>
   </energy>
  </scstep>
  <scstep>
   <time name="total">    0.59    0.59</time>
   <energy>
    <i name="e_fr_energy">   -748.25096007 </i>
    <i name="e_wo_entrp">   -748.25096007 </i>
    <i name="e_0_energy">   -748.25096007 </i>
   </energy>
  </scstep>
  <scstep>
   <time name="total">    0.59    0.59</time>
   <energy>
    <i name="e_fr_energy">   -748.25674074 </i>
    <i name="e_wo_entrp">   -748.25674074 </i>
    <i name="e_0_energy">   -748.25674074 </i>
   </energy>
  </scstep>
  <scstep>
   <time name="total">    0.60    0.60</time>
   <energy>
    <i name="e_fr_energy">   -748.25623641 </i>
    <i name="e_wo_entrp">   -748.25623641 </i>
    <i name="e_0_energy">   -748.25623641 </i>
   </energy>
  </scstep>
  <kpoints>
   <generation param="Gamma">
    <v type="int" name="divisions">      20       20        1 </v>
    <v name="usershift">      0.00000000       0.00000000       0.00000000 </v>
    <v name="genvec1">      0.05000000       0.00000000       0.00000000 </v>
    <v name="genvec2">      0.00000000       0.05000000       0.00000000 </v>
    <v name="genvec3">      0.00000000       0.00000000       1.00000000 </v>
    <v name="shift">      0.00000000       0.00000000       0.00000000 </v>
   </generation>
   <varray name="kpointlist" >
    <v>       0.00000000       0.00000000       0.00000000 </v>
    <v>       0.05000000       0.00000000       0.00000000 </v>
    <v>       0.10000000       0.00000000       0.00000000 </v>
    <v>       0.15000000       0.00000000       0.00000000 </v>
    <v>       0.20000000       0.00000000       0.00000000 </v>
    <v>       0.25000000       0.00000000       0.00000000 </v>
    <v>       0.30000000       0.00000000       0.00000000 </v>
    <v>       0.35000000      -0.00000000       0.00000000 </v>
    <v>       0.40000000       0.00000000       0.00000000 </v>
    <v>       0.45000000       0.00000000       0.00000000 </v>
    <v>       0.50000000       0.00000000       0.00000000 </v>
    <v>       0.05000000       0.05000000       0.00000000 </v>
    <v>       0.10000000       0.05000000       0.00000000 </v>
    <v>       0.15000000       0.05000000       0.00000000 </v>
    <v>       0.20000000       0.05000000       0.00000000 </v>
    <v>       0.25000000       0.05000000       0.00000000 </v>
    <v>       0.30000000       0.05000000       0.00000000 </v>
    <v>       0.35000000       0.05000000       0.00000000 </v>
    <v>       0.40000000       0.05000000       0.00000000 </v>
    <v>       0.45000000       0.05000000       0.00000000 </v>
    <v>       0.10000000       0.10000000       0.00000000 </v>
    <v>       0.15000000       0.10000000       0.00000000 </v>
    <v>       0.20000000       0.10000000       0.00000000 </v>
    <v>       0.25000000       0.10000000       0.00000000 </v>
    <v>       0.30000000       0.10000000       0.00000000 </v>
    <v>       0.35000000       0.10000000       0.00000000 </v>
    <v>       0.40000000       0.10000000       0.00000000 </v>
    <v>       0.45000000       0.10000000       0.00000000 </v>
    <v>       0.15000000       0.15000000       0.00000000 </v>
    <v>       0.20000000       0.15000000       0.00000000 </v>
    <v>       0.25000000       0.15000000       0.00000000 </v>
    <v>       0.30000000       0.15000000       0.00000000 </v>
    <v>       0.35000000       0.15000000       0.00000000 </v>
    <v>       0.40000000       0.15000000       0.00000000 </v>
    <v>       0.20000000       0.20000000       0.00000000 </v>
    <v>       0.25000000       0.20000000       0.00000000 </v>
    <v>       0.30000000       0.20000000       0.00000000 </v>
    <v>       0.35000000       0.20000000       0.00000000 </v>
    <v>       0.40000000       0.20000000       0.00000000 </v>
    <v>       0.25000000       0.25000000       0.00000000 </v>
    <v>       0.30000000       0.25000000       0.00000000 </v>
    <v>       0.35000000       0.25000000       0.00000000 </v>
    <v>       0.30000000       0.30000000       0.00000000 </v>
    <v>       0.35000000       0.30000000       0.00000000 </v>
   </varray>
   <varray name="weights" >
    <v>       0.00250000 </v>
    <v>       0.01500000 </v>
    <v>       0.01500000 </v>
    <v>       0.01500000 </v>
    <v>       0.01500000 </v>
    <v>       0.01500000 </v>
    <v>       0.01500000 </v>
    <v>       0.01500000 </v>
    <v>       0.01500000 </v>
    <v>       0.01500000 </v>
    <v>       0.00750000 </v>
    <v>       0.01500000 </v>
    <v>       0.03000000 </v>
    <v>       0.03000000 </v>
    <v>       0.03000000 </v>
    <v>       0.03000000 </v>
    <v>       0.03000000 </v>
    <v>       0.03000000 </v>
    <v>       0.03000000 </v>
    <v>       0.03000000 </v>
    <v>       0.01500000 </v>
    <v>       0.03000000 </v>
    <v>       0.03000000 </v>
    <v>       0.03000000 </v>
    <v>       0.03000000 </v>
    <v>       0.03000000 </v>
    <v>       0.03000000 </v>
    <v>       0.01500000 </v>
    <v>       0.01500000 </v>
    <v>       0.03000000 </v>
    <v>       0.03000000 </v>
    <v>       0.03000000 </v>
    <v>       0.03000000 </v>
    <v>       0.03000000 </v>
    <v>       0.01500000 </v>
    <v>       0.03000000 </v>
    <v>       0.03000000 </v>
    <v>       0.03000000 </v>
    <v>       0.01500000 </v>
    <v>       0.01500000 </v>
    <v>       0.03000000 </v>
    <v>       0.03000000 </v>
    <v>       0.01500000 </v>
    <v>       0.01500000 </v>
   </varray>
  </kpoints>
  <dynmat>
   <i name="unit" type="string">THz^2 </i>
   <varray name="hessian" >
    <v>    -432.05948443      -0.00000000      -0.00000000     432.05948443       0.00000000       0.00000000 </v>
    <v>      -0.00000000    -432.05948443       0.00000000       0.00000000     432.05948443      -0.00000000 </v>
    <v>      -0.00000000       0.00000000    -521.11610639       0.00000000      -0.00000000     521.11610639 </v>
    <v>     432.05948443       0.00000000       0.00000000    -432.05948443      -0.00000000      -0.00000000 </v>
    <v>       0.00000000     432.05948443      -0.00000000      -0.00000000    -432.05948443       0.00000000 </v>
    <v>       0.00000000      -0.00000000     521.11610639      -0.00000000       0.00000000    -521.11610639 </v>
   </varray>
   <v name="eigenvalues"> -1.04223221E+003 -8.64118969E+002 -8.64118969E+002 -4.30806745E-014  0.00000000E+000  2.46000850E-014</v>
   <varray name="eigenvectors" >
    <v>  -8.02515071E-023  4.45485355E-039 -7.07106781E-001  8.02515071E-023  0.00000000E+000  7.07106781E-001</v>
    <v>   6.91445523E-001  1.47996921E-001 -1.56948135E-022 -6.91445523E-001 -1.47996921E-001  0.00000000E+000</v>
    <v>  -1.47996921E-001  6.91445523E-001  3.35931609E-023  1.47996921E-001 -6.91445523E-001  0.00000000E+000</v>
    <v>   7.07106781E-001  3.30899975E-027 -9.42605272E-039  7.07106781E-001  3.30900642E-027  0.00000000E+000</v>
    <v>   8.02515071E-023 -4.45485355E-039  7.07106781E-001 -8.02515071E-023  0.00000000E+000  7.07106781E-001</v>
    <v>   3.30896899E-027 -7.07106781E-001 -1.82159316E-044  3.30903719E-027 -7.07106781E-001  0.00000000E+000</v>
   </varray>
  </dynmat>
  <time name="totalsc">   38.99   40.05</time>
  <eigenvalues>
   <array>
    <dimension dim="1">band</dimension>
    <dimension dim="2">kpoint</dimension>
    <dimension dim="3">spin</dimension>
    <field>eigene</field>
    <field>occ</field>
    <set>
     <set comment="spin 1">
      <set comment="kpoint 1">
       <r>  -30.0381    1.0000 </r>
       <r>  -14.5027    1.0000 </r>
       <r>   -8.3938    1.0000 </r>
       <r>   -8.3938    1.0000 </r>
       <r>   -5.6319    1.0000 </r>
       <r>   -0.0363    0.0000 </r>
       <r>   -0.0362    0.0000 </r>
       <r>    0.3137    0.0000 </r>
       <r>    2.0777    0.0000 </r>
       <r>    2.2311    0.0000 </r>
       <r>    3.3101    0.0000 </r>
       <r>    4.2994    0.0000 </r>
       <r>    6.1173    0.0000 </r>
       <r>    7.7294    0.0000 </r>
       <r>   10.1293    0.0000 </r>
       <r>   12.5185    0.0000 </r>
      </set>
      <set comment="kpoint 2">
       <r>  -29.9661    1.0000 </r>
       <r>  -14.4364    1.0000 </r>
       <r>   -8.7967    1.0000 </r>
       <r>   -8.5208    1.0000 </r>
       <r>   -5.5968    1.0000 </r>
       <r>   -0.0800    0.0000 </r>
       <r>    0.1034    0.0000 </r>
       <r>    0.5813    0.0000 </r>
       <r>    2.1710    0.0000 </r>
       <r>    2.3222    0.0000 </r>
       <r>    3.3992    0.0000 </r>
       <r>    4.3922    0.0000 </r>
       <r>    6.1988    0.0000 </r>
       <r>    7.8197    0.0000 </r>
       <r>   10.1998    0.0000 </r>
       <r>   12.6031    0.0000 </r>
      </set>
      <set comment="kpoint 3">
       <r>  -29.7502    1.0000 </r>
       <r>  -14.2397    1.0000 </r>
       <r>   -9.8471    1.0000 </r>
       <r>   -8.8649    1.0000 </r>
       <r>   -5.4982    1.0000 </r>
       <r>   -0.2716    0.0000 </r>
       <r>    0.4800    0.0000 </r>
       <r>    1.2912    0.0000 </r>
       <r>    2.4502    0.0000 </r>
       <r>    2.5962    0.0000 </r>
       <r>    3.6668    0.0000 </r>
       <r>    4.6703    0.0000 </r>
       <r>    6.4429    0.0000 </r>
       <r>    8.0897    0.0000 </r>
       <r>   10.4092    0.0000 </r>
       <r>   12.8542    0.0000 </r>
      </set>
      <set comment="kpoint 4">
       <r>  -29.3919    1.0000 </r>
       <r>  -13.9238    1.0000 </r>
       <r>  -11.2643    1.0000 </r>
       <r>   -9.3446    1.0000 </r>
       <r>   -5.3623    1.0000 </r>
       <r>   -0.5603    0.0000 </r>
       <r>    0.9954    0.0000 </r>
       <r>    2.1176    0.0000 </r>
       <r>    2.9112    0.0000 </r>
       <r>    3.0599    0.0000 </r>
       <r>    4.1156    0.0000 </r>
       <r>    5.1326    0.0000 </r>
       <r>    6.8495    0.0000 </r>
       <r>    8.5376    0.0000 </r>
       <r>   10.7520    0.0000 </r>
       <r>   13.2625    0.0000 </r>
      </set>
      <set comment="kpoint 5">
       <r>  -28.8936    1.0000 </r>
       <r>  -13.5996    1.0000 </r>
       <r>  -12.7479    1.0000 </r>
       <r>   -9.8782    1.0000 </r>
       <r>   -5.2384    1.0000 </r>
       <r>   -0.8725    0.0000 </r>
       <r>    1.5468    0.0000 </r>
       <r>    2.7775    0.0000 </r>
       <r>    3.5510    0.0000 </r>
       <r>    3.7230    0.0000 </r>
       <r>    4.7513    0.0000 </r>
       <r>    5.7786    0.0000 </r>
       <r>    7.4210    0.0000 </r>
       <r>    9.1606    0.0000 </r>
       <r>   11.2251    0.0000 </r>
       <r>   13.8053    0.0000 </r>
      </set>
      <set comment="kpoint 6">
       <r>  -28.2593    1.0000 </r>
       <r>  -14.6850    1.0000 </r>
       <r>  -12.7741    1.0000 </r>
       <r>  -10.4010    1.0000 </r>
       <r>   -5.2028    1.0000 </r>
       <r>   -1.1300    0.0000 </r>
       <r>    2.0555    0.0000 </r>
       <r>    3.1242    0.0000 </r>
       <r>    4.3775    0.0000 </r>
       <r>    4.5561    0.0000 </r>
       <r>    5.5686    0.0000 </r>
       <r>    6.6097    0.0000 </r>
       <r>    8.1594    0.0000 </r>
       <r>    9.9567    0.0000 </r>
       <r>   11.8328    0.0000 </r>
       <r>   14.4232    0.0000 </r>
      </set>
      <set comment="kpoint 7">
       <r>  -27.4962    1.0000 </r>
       <r>  -16.3321    1.0000 </r>
       <r>  -12.1349    1.0000 </r>
       <r>  -10.8706    1.0000 </r>
       <r>   -5.3425    1.0000 </r>
       <r>   -1.2645    0.0000 </r>
       <r>    2.4748    0.0000 </r>
       <r>    3.1576    0.0000 </r>
       <r>    5.3800    0.0000 </r>
       <r>    5.5423    0.0000 </r>
       <r>    6.5530    0.0000 </r>
       <r>    7.6266    0.0000 </r>
       <r>    9.0564    0.0000 </r>
       <r>   10.9230    0.0000 </r>
       <r>   12.5786    0.0000 </r>
       <r>   14.9620    0.0000 </r>
      </set>
      <set comment="kpoint 8">
       <r>  -26.6180    1.0000 </r>
       <r>  -17.9484    1.0000 </r>
       <r>  -11.3947    1.0000 </r>
       <r>  -11.2588    1.0000 </r>
       <r>   -5.7007    1.0000 </r>
       <r>   -1.2612    0.0000 </r>
       <r>    2.7877    0.0000 </r>
       <r>    2.9859    0.0000 </r>
       <r>    6.5250    0.0000 </r>
       <r>    6.6989    0.0000 </r>
       <r>    7.7023    0.0000 </r>
       <r>    8.8257    0.0000 </r>
       <r>   10.0932    0.0000 </r>
       <r>   12.0422    0.0000 </r>
       <r>   13.4268    0.0000 </r>
       <r>   15.1065    0.0000 </r>
      </set>
      <set comment="kpoint 9">
       <r>  -25.6576    1.0000 </r>
       <r>  -19.4545    1.0000 </r>
       <r>  -11.5477    1.0000 </r>
       <r>  -10.6227    1.0000 </r>
       <r>   -6.2341    1.0000 </r>
       <r>   -1.1764    0.0000 </r>
       <r>    2.7603    0.0000 </r>
       <r>    2.9972    0.0000 </r>
       <r>    7.7529    0.0000 </r>
       <r>    8.0507    0.0000 </r>
       <r>    9.0243    0.0000 </r>
       <r>   10.1963    0.0000 </r>
       <r>   11.2354    0.0000 </r>
       <r>   13.1455    0.0000 </r>
       <r>   14.0018    0.0000 </r>
       <r>   14.5187    0.0000 </r>
      </set>
      <set comment="kpoint 10">
       <r>  -24.7212    1.0000 </r>
       <r>  -20.7242    1.0000 </r>
       <r>  -11.7243    1.0000 </r>
       <r>   -9.9343    1.0000 </r>
       <r>   -6.7985    1.0000 </r>
       <r>   -1.0897    0.0000 </r>
       <r>    2.5930    0.0000 </r>
       <r>    3.1153    0.0000 </r>
       <r>    8.9918    0.0000 </r>
       <r>    9.5860    0.0000 </r>
       <r>   10.5099    0.0000 </r>
       <r>   11.6287    0.0000 </r>
       <r>   12.1222    0.0000 </r>
       <r>   12.8802    0.0000 </r>
       <r>   13.2907    0.0000 </r>
       <r>   14.2260    0.0000 </r>
      </set>
      <set comment="kpoint 11">
       <r>  -24.2278    1.0000 </r>
       <r>  -21.3311    1.0000 </r>
       <r>  -11.7842    1.0000 </r>
       <r>   -9.6147    1.0000 </r>
       <r>   -7.0809    1.0000 </r>
       <r>   -1.0553    0.0000 </r>
       <r>    2.5338    0.0000 </r>
       <r>    3.1532    0.0000 </r>
       <r>    9.7958    0.0000 </r>
       <r>   11.1278    0.0000 </r>
       <r>   11.2755    0.0000 </r>
       <r>   11.3912    0.0000 </r>
       <r>   12.2250    0.0000 </r>
       <r>   12.4387    0.0000 </r>
       <r>   13.4279    0.0000 </r>
       <r>   13.4902    0.0000 </r>
      </set>
      <set comment="kpoint 12">
       <r>  -29.8220    1.0000 </r>
       <r>  -14.3048    1.0000 </r>
       <r>   -9.4984    1.0000 </r>
       <r>   -8.7797    1.0000 </r>
       <r>   -5.5296    1.0000 </r>
       <r>   -0.0579    0.0000 </r>
       <r>    0.1741    0.0000 </r>
       <r>    1.1181    0.0000 </r>
       <r>    2.3574    0.0000 </r>
       <r>    2.5042    0.0000 </r>
       <r>    3.5773    0.0000 </r>
       <r>    4.5777    0.0000 </r>
       <r>    6.3615    0.0000 </r>
       <r>    7.9998    0.0000 </r>
       <r>   10.3397    0.0000 </r>
       <r>   12.7710    0.0000 </r>
      </set>
      <set comment="kpoint 13">
       <r>  -29.5350    1.0000 </r>
       <r>  -14.0475    1.0000 </r>
       <r>  -10.6817    1.0000 </r>
       <r>   -9.2438    1.0000 </r>
       <r>   -5.4119    1.0000 </r>
       <r>   -0.2173    0.0000 </r>
       <r>    0.5270    0.0000 </r>
       <r>    1.9054    0.0000 </r>
       <r>    2.7279    0.0000 </r>
       <r>    2.8688    0.0000 </r>
       <r>    3.9339    0.0000 </r>
       <r>    4.9479    0.0000 </r>
       <r>    6.6860    0.0000 </r>
       <r>    8.3589    0.0000 </r>
       <r>   10.6150    0.0000 </r>
       <r>   13.1018    0.0000 </r>
      </set>
      <set comment="kpoint 14">
       <r>  -29.1067    1.0000 </r>
       <r>  -13.6966    1.0000 </r>
       <r>  -12.1146    1.0000 </r>
       <r>   -9.8022    1.0000 </r>
       <r>   -5.2802    1.0000 </r>
       <r>   -0.4969    0.0000 </r>
       <r>    1.0788    0.0000 </r>
       <r>    2.6275    0.0000 </r>
       <r>    3.2773    0.0000 </r>
       <r>    3.4263    0.0000 </r>
       <r>    4.4732    0.0000 </r>
       <r>    5.5022    0.0000 </r>
       <r>    7.1728    0.0000 </r>
       <r>    8.8948    0.0000 </r>
       <r>   11.0204    0.0000 </r>
       <r>   13.5820    0.0000 </r>
      </set>
      <set comment="kpoint 15">
       <r>  -28.5401    1.0000 </r>
       <r>  -13.9641    1.0000 </r>
       <r>  -12.9475    1.0000 </r>
       <r>  -10.3716    1.0000 </r>
       <r>   -5.1960    1.0000 </r>
       <r>   -0.7701    0.0000 </r>
       <r>    1.6529    0.0000 </r>
       <r>    3.0865    0.0000 </r>
       <r>    4.0115    0.0000 </r>
       <r>    4.1739    0.0000 </r>
       <r>    5.1987    0.0000 </r>
       <r>    6.2410    0.0000 </r>
       <r>    7.8254    0.0000 </r>
       <r>    9.6051    0.0000 </r>
       <r>   11.5562    0.0000 </r>
       <r>   14.1769    0.0000 </r>
      </set>
      <set comment="kpoint 16">
       <r>  -27.8407    1.0000 </r>
       <r>  -15.5227    1.0000 </r>
       <r>  -12.4258    1.0000 </r>
       <r>  -10.8974    1.0000 </r>
       <r>   -5.2427    1.0000 </r>
       <r>   -0.9561    0.0000 </r>
       <r>    2.1610    0.0000 </r>
       <r>    3.2240    0.0000 </r>
       <r>    4.9299    0.0000 </r>
       <r>    5.0841    0.0000 </r>
       <r>    6.1011    0.0000 </r>
       <r>    7.1653    0.0000 </r>
       <r>    8.6435    0.0000 </r>
       <r>   10.4874    0.0000 </r>
       <r>   12.2299    0.0000 </r>
       <r>   14.7820    0.0000 </r>
      </set>
      <set comment="kpoint 17">
       <r>  -27.0183    1.0000 </r>
       <r>  -17.1470    1.0000 </r>
       <r>  -11.7414    1.0000 </r>
       <r>  -11.3339    1.0000 </r>
       <r>   -5.4903    1.0000 </r>
       <r>   -1.0064    0.0000 </r>
       <r>    2.5459    0.0000 </r>
       <r>    3.1197    0.0000 </r>
       <r>    6.0108    0.0000 </r>
       <r>    6.1559    0.0000 </r>
       <r>    7.1705    0.0000 </r>
       <r>    8.2738    0.0000 </r>
       <r>    9.6147    0.0000 </r>
       <r>   11.5336    0.0000 </r>
       <r>   13.0372    0.0000 </r>
       <r>   15.1475    0.0000 </r>
      </set>
      <set comment="kpoint 18">
       <r>  -26.0933    1.0000 </r>
       <r>  -18.7050    1.0000 </r>
       <r>  -11.7176    1.0000 </r>
       <r>  -10.9456    1.0000 </r>
       <r>   -5.9434    1.0000 </r>
       <r>   -0.9388    0.0000 </r>
       <r>    2.6490    0.0000 </r>
       <r>    3.0615    0.0000 </r>
       <r>    7.2046    0.0000 </r>
       <r>    7.4123    0.0000 </r>
       <r>    8.4086    0.0000 </r>
       <r>    9.5601    0.0000 </r>
       <r>   10.7164    0.0000 </r>
       <r>   12.6962    0.0000 </r>
       <r>   13.8769    0.0000 </r>
       <r>   14.8470    0.0000 </r>
      </set>
      <set comment="kpoint 19">
       <r>  -25.1220    1.0000 </r>
       <r>  -20.1105    1.0000 </r>
       <r>  -11.9537    1.0000 </r>
       <r>  -10.1979    1.0000 </r>
       <r>   -6.5160    1.0000 </r>
       <r>   -0.8262    0.0000 </r>
       <r>    2.4615    0.0000 </r>
       <r>    3.2017    0.0000 </r>
       <r>    8.4512    0.0000 </r>
       <r>    8.8611    0.0000 </r>
       <r>    9.8200    0.0000 </r>
       <r>   11.0002    0.0000 </r>
       <r>   11.8591    0.0000 </r>
       <r>   13.1947    0.0000 </r>
       <r>   13.9492    0.0000 </r>
       <r>   14.4382    0.0000 </r>
      </set>
      <set comment="kpoint 20">
       <r>  -24.3172    1.0000 </r>
       <r>  -21.1355    1.0000 </r>
       <r>  -12.0752    1.0000 </r>
       <r>   -9.6412    1.0000 </r>
       <r>   -6.9938    1.0000 </r>
       <r>   -0.7468    0.0000 </r>
       <r>    2.3223    0.0000 </r>
       <r>    3.2967    0.0000 </r>
       <r>    9.6069    0.0000 </r>
       <r>   10.4707    0.0000 </r>
       <r>   11.2661    0.0000 </r>
       <r>   11.7882    0.0000 </r>
       <r>   12.2193    0.0000 </r>
       <r>   12.7243    0.0000 </r>
       <r>   13.2844    0.0000 </r>
       <r>   13.6667    0.0000 </r>
      </set>
      <set comment="kpoint 21">
       <r>  -29.1778    1.0000 </r>
       <r>  -13.7476    1.0000 </r>
       <r>  -11.8058    1.0000 </r>
       <r>   -9.8708    1.0000 </r>
       <r>   -5.2969    1.0000 </r>
       <r>    0.0004    0.0000 </r>
       <r>    0.5453    0.0000 </r>
       <r>    2.6094    0.0000 </r>
       <r>    3.1869    0.0000 </r>
       <r>    3.3185    0.0000 </r>
       <r>    4.3779    0.0000 </r>
       <r>    5.4102    0.0000 </r>
       <r>    7.0888    0.0000 </r>
       <r>    8.8064    0.0000 </r>
       <r>   10.9510    0.0000 </r>
       <r>   13.5075    0.0000 </r>
      </set>
      <set comment="kpoint 22">
       <r>  -28.6811    1.0000 </r>
       <r>  -13.6104    1.0000 </r>
       <r>  -12.8666    1.0000 </r>
       <r>  -10.5725    1.0000 </r>
[...]
       </set>
       <set comment="band 13">
        <r>  0.0016  0.0205  0.0000 </r>
        <r>  0.0016  0.0205  0.0000 </r>
       </set>
       <set comment="band 14">
        <r>  0.0071  0.0191  0.0000 </r>
        <r>  0.0071  0.0191  0.0000 </r>
       </set>
       <set comment="band 15">
        <r>  0.0011  0.0087  0.0000 </r>
        <r>  0.0011  0.0087  0.0000 </r>
       </set>
       <set comment="band 16">
        <r>  0.0027  0.0848  0.0000 </r>
        <r>  0.0027  0.0848  0.0000 </r>
       </set>
      </set>
      <set comment="kpoint 36">
       <set comment="band 1">
        <r>  0.2875  0.0763  0.0000 </r>
        <r>  0.2875  0.0763  0.0000 </r>
       </set>
       <set comment="band 2">
        <r>  0.2164  0.1778  0.0000 </r>
        <r>  0.2164  0.1778  0.0000 </r>
       </set>
       <set comment="band 3">
        <r>  0.0159  0.3360  0.0000 </r>
        <r>  0.0159  0.3360  0.0000 </r>
       </set>
       <set comment="band 4">
        <r>  0.1027  0.2124  0.0000 </r>
        <r>  0.1027  0.2124  0.0000 </r>
       </set>
       <set comment="band 5">
        <r>  0.0513  0.3170  0.0000 </r>
        <r>  0.0513  0.3170  0.0000 </r>
       </set>
       <set comment="band 6">
        <r>  0.0241  0.3247  0.0000 </r>
        <r>  0.0241  0.3247  0.0000 </r>
       </set>
       <set comment="band 7">
        <r>  0.0362  0.3077  0.0000 </r>
        <r>  0.0362  0.3077  0.0000 </r>
       </set>
       <set comment="band 8">
        <r>  0.0762  0.3347  0.0000 </r>
        <r>  0.0762  0.3347  0.0000 </r>
       </set>
       <set comment="band 9">
        <r>  0.0004  0.0373  0.0000 </r>
        <r>  0.0004  0.0373  0.0000 </r>
       </set>
       <set comment="band 10">
        <r>  0.0051  0.0157  0.0000 </r>
        <r>  0.0051  0.0157  0.0000 </r>
       </set>
       <set comment="band 11">
        <r>  0.0003  0.0134  0.0000 </r>
        <r>  0.0003  0.0134  0.0000 </r>
       </set>
       <set comment="band 12">
        <r>  0.0039  0.0114  0.0000 </r>
        <r>  0.0039  0.0114  0.0000 </r>
       </set>
       <set comment="band 13">
        <r>  0.0010  0.0187  0.0000 </r>
        <r>  0.0010  0.0187  0.0000 </r>
       </set>
       <set comment="band 14">
        <r>  0.0063  0.0252  0.0000 </r>
        <r>  0.0063  0.0252  0.0000 </r>
       </set>
       <set comment="band 15">
        <r>  0.0002  0.0265  0.0000 </r>
        <r>  0.0002  0.0265  0.0000 </r>
       </set>
       <set comment="band 16">
        <r>  0.0017  0.0713  0.0000 </r>
        <r>  0.0017  0.0713  0.0000 </r>
       </set>
      </set>
      <set comment="kpoint 37">
       <set comment="band 1">
        <r>  0.2840  0.0853  0.0000 </r>
        <r>  0.2840  0.0853  0.0000 </r>
       </set>
       <set comment="band 2">
        <r>  0.2216  0.1651  0.0000 </r>
        <r>  0.2216  0.1651  0.0000 </r>
       </set>
       <set comment="band 3">
        <r>  0.0203  0.3280  0.0000 </r>
        <r>  0.0203  0.3280  0.0000 </r>
       </set>
       <set comment="band 4">
        <r>  0.1020  0.2245  0.0000 </r>
        <r>  0.1020  0.2245  0.0000 </r>
       </set>
       <set comment="band 5">
        <r>  0.0614  0.3048  0.0000 </r>
        <r>  0.0614  0.3048  0.0000 </r>
       </set>
       <set comment="band 6">
        <r>  0.0116  0.3150  0.0000 </r>
        <r>  0.0116  0.3150  0.0000 </r>
       </set>
       <set comment="band 7">
        <r>  0.0540  0.3098  0.0000 </r>
        <r>  0.0540  0.3098  0.0000 </r>
       </set>
       <set comment="band 8">
        <r>  0.0594  0.3394  0.0000 </r>
        <r>  0.0594  0.3394  0.0000 </r>
       </set>
       <set comment="band 9">
        <r>  0.0004  0.0404  0.0000 </r>
        <r>  0.0004  0.0404  0.0000 </r>
       </set>
       <set comment="band 10">
        <r>  0.0046  0.0196  0.0000 </r>
        <r>  0.0046  0.0196  0.0000 </r>
       </set>
       <set comment="band 11">
        <r>  0.0001  0.0105  0.0000 </r>
        <r>  0.0001  0.0105  0.0000 </r>
       </set>
       <set comment="band 12">
        <r>  0.0033  0.0141  0.0000 </r>
        <r>  0.0033  0.0141  0.0000 </r>
       </set>
       <set comment="band 13">
        <r>  0.0004  0.0174  0.0000 </r>
        <r>  0.0004  0.0174  0.0000 </r>
       </set>
       <set comment="band 14">
        <r>  0.0020  0.0496  0.0000 </r>
        <r>  0.0020  0.0496  0.0000 </r>
       </set>
       <set comment="band 15">
        <r>  0.0006  0.0513  0.0000 </r>
        <r>  0.0006  0.0513  0.0000 </r>
       </set>
       <set comment="band 16">
        <r>  0.0025  0.0139  0.0000 </r>
        <r>  0.0025  0.0139  0.0000 </r>
       </set>
      </set>
      <set comment="kpoint 38">
       <set comment="band 1">
        <r>  0.2853  0.0914  0.0000 </r>
        <r>  0.2853  0.0914  0.0000 </r>
       </set>
       <set comment="band 2">
        <r>  0.2206  0.1571  0.0000 </r>
        <r>  0.2206  0.1571  0.0000 </r>
       </set>
       <set comment="band 3">
        <r>  0.0239  0.3230  0.0000 </r>
        <r>  0.0239  0.3230  0.0000 </r>
       </set>
       <set comment="band 4">
        <r>  0.1014  0.2375  0.0000 </r>
        <r>  0.1014  0.2375  0.0000 </r>
       </set>
       <set comment="band 5">
        <r>  0.0680  0.2904  0.0000 </r>
        <r>  0.0680  0.2904  0.0000 </r>
       </set>
       <set comment="band 6">
        <r>  0.0030  0.3077  0.0000 </r>
        <r>  0.0030  0.3077  0.0000 </r>
       </set>
       <set comment="band 7">
        <r>  0.0734  0.3123  0.0000 </r>
        <r>  0.0734  0.3123  0.0000 </r>
       </set>
       <set comment="band 8">
        <r>  0.0410  0.3469  0.0000 </r>
        <r>  0.0410  0.3469  0.0000 </r>
       </set>
       <set comment="band 9">
        <r>  0.0006  0.0372  0.0000 </r>
        <r>  0.0006  0.0372  0.0000 </r>
       </set>
       <set comment="band 10">
        <r>  0.0037  0.0272  0.0000 </r>
        <r>  0.0037  0.0272  0.0000 </r>
       </set>
       <set comment="band 11">
        <r>  0.0000  0.0062  0.0000 </r>
        <r>  0.0000  0.0062  0.0000 </r>
       </set>
       <set comment="band 12">
        <r>  0.0013  0.0277  0.0000 </r>
        <r>  0.0013  0.0277  0.0000 </r>
       </set>
       <set comment="band 13">
        <r>  0.0013  0.0180  0.0000 </r>
        <r>  0.0013  0.0180  0.0000 </r>
       </set>
       <set comment="band 14">
        <r>  0.0001  0.0363  0.0000 </r>
        <r>  0.0001  0.0363  0.0000 </r>
       </set>
       <set comment="band 15">
        <r>  0.0025  0.0291  0.0000 </r>
        <r>  0.0025  0.0291  0.0000 </r>
       </set>
       <set comment="band 16">
        <r>  0.0007  0.0623  0.0000 </r>
        <r>  0.0007  0.0623  0.0000 </r>
       </set>
      </set>
      <set comment="kpoint 39">
       <set comment="band 1">
        <r>  0.2921  0.0911  0.0000 </r>
        <r>  0.2921  0.0911  0.0000 </r>
       </set>
       <set comment="band 2">
        <r>  0.2137  0.1568  0.0000 </r>
        <r>  0.2137  0.1568  0.0000 </r>
       </set>
       <set comment="band 3">
        <r>  0.0252  0.3214  0.0000 </r>
        <r>  0.0252  0.3214  0.0000 </r>
       </set>
       <set comment="band 4">
        <r>  0.1019  0.2448  0.0000 </r>
        <r>  0.1019  0.2448  0.0000 </r>
       </set>
       <set comment="band 5">
        <r>  0.0696  0.2825  0.0000 </r>
        <r>  0.0696  0.2825  0.0000 </r>
       </set>
       <set comment="band 6">
        <r>  0.0001  0.3052  0.0000 </r>
        <r>  0.0001  0.3052  0.0000 </r>
       </set>
       <set comment="band 7">
        <r>  0.0800  0.3132  0.0000 </r>
        <r>  0.0800  0.3132  0.0000 </r>
       </set>
       <set comment="band 8">
        <r>  0.0347  0.3509  0.0000 </r>
        <r>  0.0347  0.3509  0.0000 </r>
       </set>
       <set comment="band 9">
        <r>  0.0009  0.0231  0.0000 </r>
        <r>  0.0009  0.0231  0.0000 </r>
       </set>
       <set comment="band 10">
        <r>  0.0001  0.0664  0.0000 </r>
        <r>  0.0001  0.0664  0.0000 </r>
       </set>
       <set comment="band 11">
        <r>  0.0038  0.0210  0.0000 </r>
        <r>  0.0038  0.0210  0.0000 </r>
       </set>
       <set comment="band 12">
        <r>  0.0020  0.0169  0.0000 </r>
        <r>  0.0020  0.0169  0.0000 </r>
       </set>
       <set comment="band 13">
        <r>  0.0000  0.0020  0.0000 </r>
        <r>  0.0000  0.0020  0.0000 </r>
       </set>
       <set comment="band 14">
        <r>  0.0002  0.0076  0.0000 </r>
        <r>  0.0002  0.0076  0.0000 </r>
       </set>
       <set comment="band 15">
        <r>  0.0000  0.0420  0.0000 </r>
        <r>  0.0000  0.0420  0.0000 </r>
       </set>
       <set comment="band 16">
        <r>  0.0018  0.0212  0.0000 </r>
        <r>  0.0018  0.0212  0.0000 </r>
       </set>
      </set>
      <set comment="kpoint 40">
       <set comment="band 1">
        <r>  0.2831  0.0856  0.0000 </r>
        <r>  0.2831  0.0856  0.0000 </r>
       </set>
       <set comment="band 2">
        <r>  0.2321  0.1614  0.0000 </r>
        <r>  0.2321  0.1614  0.0000 </r>
       </set>
       <set comment="band 3">
        <r>  0.0132  0.3276  0.0000 </r>
        <r>  0.0132  0.3276  0.0000 </r>
       </set>
       <set comment="band 4">
        <r>  0.1012  0.2242  0.0000 </r>
        <r>  0.1012  0.2242  0.0000 </r>
       </set>
       <set comment="band 5">
        <r>  0.0610  0.3081  0.0000 </r>
        <r>  0.0610  0.3081  0.0000 </r>
       </set>
       <set comment="band 6">
        <r>  0.0053  0.3187  0.0000 </r>
        <r>  0.0053  0.3187  0.0000 </r>
       </set>
       <set comment="band 7">
        <r>  0.0431  0.3055  0.0000 </r>
        <r>  0.0431  0.3055  0.0000 </r>
       </set>
       <set comment="band 8">
        <r>  0.0775  0.3503  0.0000 </r>
        <r>  0.0775  0.3503  0.0000 </r>
       </set>
       <set comment="band 9">
        <r>  0.0001  0.0420  0.0000 </r>
        <r>  0.0001  0.0420  0.0000 </r>
       </set>
       <set comment="band 10">
        <r>  0.0047  0.0171  0.0000 </r>
        <r>  0.0047  0.0171  0.0000 </r>
       </set>
       <set comment="band 11">
        <r>  0.0001  0.0106  0.0000 </r>
        <r>  0.0001  0.0106  0.0000 </r>
       </set>
       <set comment="band 12">
        <r>  0.0033  0.0137  0.0000 </r>
        <r>  0.0033  0.0137  0.0000 </r>
       </set>
       <set comment="band 13">
        <r>  0.0004  0.0162  0.0000 </r>
        <r>  0.0004  0.0162  0.0000 </r>
       </set>
       <set comment="band 14">
        <r>  0.0001  0.0651  0.0000 </r>
        <r>  0.0001  0.0651  0.0000 </r>
       </set>
       <set comment="band 15">
        <r>  0.0036  0.0323  0.0000 </r>
        <r>  0.0036  0.0323  0.0000 </r>
       </set>
       <set comment="band 16">
        <r>  0.0003  0.0335  0.0000 </r>
        <r>  0.0003  0.0335  0.0000 </r>
       </set>
      </set>
      <set comment="kpoint 41">
       <set comment="band 1">
        <r>  0.2804  0.0943  0.0000 </r>
        <r>  0.2804  0.0943  0.0000 </r>
       </set>
       <set comment="band 2">
        <r>  0.2411  0.1481  0.0000 </r>
        <r>  0.2411  0.1481  0.0000 </r>
       </set>
       <set comment="band 3">
        <r>  0.0127  0.3217  0.0000 </r>
        <r>  0.0127  0.3217  0.0000 </r>
       </set>
       <set comment="band 4">
        <r>  0.0986  0.2380  0.0000 </r>
        <r>  0.0986  0.2380  0.0000 </r>
       </set>
       <set comment="band 5">
        <r>  0.0697  0.2958  0.0000 </r>
        <r>  0.0697  0.2958  0.0000 </r>
       </set>
       <set comment="band 6">
        <r>  0.0019  0.3022  0.0000 </r>
        <r>  0.0019  0.3022  0.0000 </r>
       </set>
       <set comment="band 7">
        <r>  0.0526  0.3256  0.0000 </r>
        <r>  0.0526  0.3256  0.0000 </r>
       </set>
       <set comment="band 8">
        <r>  0.0628  0.3554  0.0000 </r>
        <r>  0.0628  0.3554  0.0000 </r>
       </set>
       <set comment="band 9">
        <r>  0.0001  0.0447  0.0000 </r>
        <r>  0.0001  0.0447  0.0000 </r>
       </set>
       <set comment="band 10">
        <r>  0.0042  0.0221  0.0000 </r>
        <r>  0.0042  0.0221  0.0000 </r>
       </set>
       <set comment="band 11">
        <r>  0.0000  0.0079  0.0000 </r>
        <r>  0.0000  0.0079  0.0000 </r>
       </set>
       <set comment="band 12">
        <r>  0.0023  0.0184  0.0000 </r>
        <r>  0.0023  0.0184  0.0000 </r>
       </set>
       <set comment="band 13">
        <r>  0.0001  0.0318  0.0000 </r>
        <r>  0.0001  0.0318  0.0000 </r>
       </set>
       <set comment="band 14">
        <r>  0.0000  0.0433  0.0000 </r>
        <r>  0.0000  0.0433  0.0000 </r>
       </set>
       <set comment="band 15">
        <r>  0.0002  0.0310  0.0000 </r>
        <r>  0.0002  0.0310  0.0000 </r>
       </set>
       <set comment="band 16">
        <r>  0.0023  0.0436  0.0000 </r>
        <r>  0.0023  0.0436  0.0000 </r>
       </set>
      </set>
      <set comment="kpoint 42">
       <set comment="band 1">
        <r>  0.2830  0.0992  0.0000 </r>
        <r>  0.2830  0.0992  0.0000 </r>
       </set>
       <set comment="band 2">
        <r>  0.2408  0.1414  0.0000 </r>
        <r>  0.2408  0.1414  0.0000 </r>
       </set>
       <set comment="band 3">
        <r>  0.0134  0.3184  0.0000 </r>
        <r>  0.0134  0.3184  0.0000 </r>
       </set>
       <set comment="band 4">
        <r>  0.0965  0.2507  0.0000 </r>
        <r>  0.0965  0.2507  0.0000 </r>
       </set>
       <set comment="band 5">
        <r>  0.0751  0.2836  0.0000 </r>
        <r>  0.0751  0.2836  0.0000 </r>
       </set>
       <set comment="band 6">
        <r>  0.0004  0.2936  0.0000 </r>
        <r>  0.0004  0.2936  0.0000 </r>
       </set>
       <set comment="band 7">
        <r>  0.0674  0.3421  0.0000 </r>
        <r>  0.0674  0.3421  0.0000 </r>
       </set>
       <set comment="band 8">
        <r>  0.0446  0.3550  0.0000 </r>
        <r>  0.0446  0.3550  0.0000 </r>
       </set>
       <set comment="band 9">
        <r>  0.0004  0.0398  0.0000 </r>
        <r>  0.0004  0.0398  0.0000 </r>
       </set>
       <set comment="band 10">
        <r>  0.0027  0.0394  0.0000 </r>
        <r>  0.0027  0.0394  0.0000 </r>
       </set>
       <set comment="band 11">
        <r>  0.0004  0.0350  0.0000 </r>
        <r>  0.0004  0.0350  0.0000 </r>
       </set>
       <set comment="band 12">
        <r>  0.0001  0.0104  0.0000 </r>
        <r>  0.0001  0.0104  0.0000 </r>
       </set>
       <set comment="band 13">
        <r>  0.0009  0.0362  0.0000 </r>
        <r>  0.0009  0.0362  0.0000 </r>
       </set>
       <set comment="band 14">
        <r>  0.0013  0.0317  0.0000 </r>
        <r>  0.0013  0.0317  0.0000 </r>
       </set>
       <set comment="band 15">
        <r>  0.0018  0.0192  0.0000 </r>
        <r>  0.0018  0.0192  0.0000 </r>
       </set>
       <set comment="band 16">
        <r>  0.0003  0.0036  0.0000 </r>
        <r>  0.0003  0.0036  0.0000 </r>
       </set>
      </set>
      <set comment="kpoint 43">
       <set comment="band 1">
        <r>  0.2774  0.1034  0.0000 </r>
        <r>  0.2774  0.1034  0.0000 </r>
       </set>
       <set comment="band 2">
        <r>  0.2566  0.1327  0.0000 </r>
        <r>  0.2566  0.1327  0.0000 </r>
       </set>
       <set comment="band 3">
        <r>  0.0052  0.3196  0.0000 </r>
        <r>  0.0052  0.3196  0.0000 </r>
       </set>
       <set comment="band 4">
        <r>  0.0940  0.2525  0.0000 </r>
        <r>  0.0940  0.2525  0.0000 </r>
       </set>
       <set comment="band 5">
        <r>  0.0777  0.2847  0.0000 </r>
        <r>  0.0777  0.2847  0.0000 </r>
       </set>
       <set comment="band 6">
        <r>  0.0005  0.2890  0.0000 </r>
        <r>  0.0005  0.2890  0.0000 </r>
       </set>
       <set comment="band 7">
        <r>  0.0468  0.3458  0.0000 </r>
        <r>  0.0468  0.3458  0.0000 </r>
       </set>
       <set comment="band 8">
        <r>  0.0644  0.3660  0.0000 </r>
        <r>  0.0644  0.3660  0.0000 </r>
       </set>
       <set comment="band 9">
        <r>  0.0000  0.0475  0.0000 </r>
        <r>  0.0000  0.0475  0.0000 </r>
       </set>
       <set comment="band 10">
        <r>  0.0034  0.0297  0.0000 </r>
        <r>  0.0034  0.0297  0.0000 </r>
       </set>
       <set comment="band 11">
        <r>  0.0000  0.0473  0.0000 </r>
        <r>  0.0000  0.0473  0.0000 </r>
       </set>
       <set comment="band 12">
        <r>  0.0000  0.0121  0.0000 </r>
        <r>  0.0000  0.0121  0.0000 </r>
       </set>
       <set comment="band 13">
        <r>  0.0001  0.0224  0.0000 </r>
        <r>  0.0001  0.0224  0.0000 </r>
       </set>
       <set comment="band 14">
        <r>  0.0014  0.0223  0.0000 </r>
        <r>  0.0014  0.0223  0.0000 </r>
       </set>
       <set comment="band 15">
        <r>  0.0003  0.0191  0.0000 </r>
        <r>  0.0003  0.0191  0.0000 </r>
       </set>
       <set comment="band 16">
        <r>  0.0005  0.0378  0.0000 </r>
        <r>  0.0005  0.0378  0.0000 </r>
       </set>
      </set>
      <set comment="kpoint 44">
       <set comment="band 1">
        <r>  0.2769  0.1088  0.0000 </r>
        <r>  0.2769  0.1088  0.0000 </r>
       </set>
       <set comment="band 2">
        <r>  0.2616  0.1249  0.0000 </r>
        <r>  0.2616  0.1249  0.0000 </r>
       </set>
       <set comment="band 3">
        <r>  0.0023  0.3192  0.0000 </r>
        <r>  0.0023  0.3192  0.0000 </r>
       </set>
       <set comment="band 4">
        <r>  0.0906  0.2627  0.0000 </r>
        <r>  0.0906  0.2627  0.0000 </r>
       </set>
       <set comment="band 5">
        <r>  0.0823  0.2757  0.0000 </r>
        <r>  0.0823  0.2757  0.0000 </r>
       </set>
       <set comment="band 6">
        <r>  0.0001  0.2842  0.0000 </r>
        <r>  0.0001  0.2842  0.0000 </r>
       </set>
       <set comment="band 7">
        <r>  0.0599  0.3630  0.0000 </r>
        <r>  0.0599  0.3630  0.0000 </r>
       </set>
       <set comment="band 8">
        <r>  0.0497  0.3616  0.0000 </r>
        <r>  0.0497  0.3616  0.0000 </r>
       </set>
       <set comment="band 9">
        <r>  0.0003  0.0425  0.0000 </r>
        <r>  0.0003  0.0425  0.0000 </r>
       </set>
       <set comment="band 10">
        <r>  0.0001  0.0506  0.0000 </r>
        <r>  0.0001  0.0506  0.0000 </r>
       </set>
       <set comment="band 11">
        <r>  0.0008  0.0427  0.0000 </r>
        <r>  0.0008  0.0427  0.0000 </r>
       </set>
       <set comment="band 12">
        <r>  0.0014  0.0361  0.0000 </r>
        <r>  0.0014  0.0361  0.0000 </r>
       </set>
       <set comment="band 13">
        <r>  0.0020  0.0105  0.0000 </r>
        <r>  0.0020  0.0105  0.0000 </r>
       </set>
       <set comment="band 14">
        <r>  0.0001  0.0074  0.0000 </r>
        <r>  0.0001  0.0074  0.0000 </r>
       </set>
       <set comment="band 15">
        <r>  0.0001  0.0040  0.0000 </r>
        <r>  0.0001  0.0040  0.0000 </r>
       </set>
       <set comment="band 16">
        <r>  0.0011  0.0269  0.0000 </r>
        <r>  0.0011  0.0269  0.0000 </r>
       </set>
      </set>
     </set>
    </set>
   </array>
  </projected>
 </calculation>
 <structure name="finalpos" >
  <crystal>
   <varray name="basis" >
    <v>       2.29449859       0.00000000       0.00000000 </v>
    <v>      -1.14724930       1.98709407       0.00000000 </v>
    <v>       0.00000000       0.00000000      16.00000000 </v>
   </varray>
   <i name="volume">     72.95015287 </i>
   <varray name="rec_basis" >
    <v>       0.43582507       0.25162372       0.00000000 </v>
    <v>       0.00000000       0.50324744       0.00000000 </v>
    <v>       0.00000000       0.00000000       0.06250000 </v>
   </varray>
  </crystal>
  <varray name="positions" >
   <v>       0.66666667       0.33333333       0.47822185 </v>
   <v>       0.33333333       0.66666667       0.52177815 </v>
  </varray>
 </structure>
</modeling>
