unknown system                          
           1
     2.294499    0.000000    0.000000
    -1.147249    1.987094    0.000000
     0.000000    0.000000   16.000000
   N 
     2
Direct configuration=     1
   0.66666667  0.33333333  0.47822185
   0.33333333  0.66666667  0.52177815
