   2   2   1   0
  0.7464293E+02  0.3282344E-09  0.3282344E-09  0.1600000E-08  0.1000000E-16
  1.000000000000000E-004
  CAR 
 unknown system                          
     11.24895200    -18.84023217 6001     -3.33927766      1.00000000
    -18.840  0.0000E+00  0.0000E+00
    -18.835  0.0000E+00  0.0000E+00
    -18.830  0.0000E+00  0.0000E+00
    -18.825  0.0000E+00  0.0000E+00
    -18.820  0.0000E+00  0.0000E+00
    -18.815  0.0000E+00  0.0000E+00
    -18.810  0.0000E+00  0.0000E+00
    -18.805  0.0000E+00  0.0000E+00
    -18.800  0.0000E+00  0.0000E+00
    -18.795  0.0000E+00  0.0000E+00
    -18.790  0.0000E+00  0.0000E+00
    -18.785  0.0000E+00  0.0000E+00
    -18.780  0.0000E+00  0.0000E+00
    -18.775  0.0000E+00  0.0000E+00
    -18.770  0.0000E+00  0.0000E+00
    -18.765  0.0000E+00  0.0000E+00
    -18.760  0.0000E+00  0.0000E+00
    -18.755  0.0000E+00  0.0000E+00
    -18.750  0.0000E+00  0.0000E+00
    -18.745  0.0000E+00  0.0000E+00
    -18.740  0.0000E+00  0.0000E+00
    -18.735  0.0000E+00  0.0000E+00
    -18.730  0.0000E+00  0.0000E+00
    -18.725  0.0000E+00  0.0000E+00
    -18.720  0.0000E+00  0.0000E+00
    -18.715  0.0000E+00  0.0000E+00
    -18.710  0.0000E+00  0.0000E+00
    -18.705  0.0000E+00  0.0000E+00
    -18.700  0.0000E+00  0.0000E+00
    -18.695  0.0000E+00  0.0000E+00
    -18.690  0.0000E+00  0.0000E+00
    -18.685  0.0000E+00  0.0000E+00
    -18.680  0.0000E+00  0.0000E+00
    -18.675  0.0000E+00  0.0000E+00
    -18.670  0.0000E+00  0.0000E+00
    -18.665  0.0000E+00  0.0000E+00
    -18.660  0.0000E+00  0.0000E+00
    -18.655  0.0000E+00  0.0000E+00
    -18.650  0.0000E+00  0.0000E+00
    -18.645  0.0000E+00  0.0000E+00
    -18.640  0.0000E+00  0.0000E+00
    -18.635  0.0000E+00  0.0000E+00
    -18.630  0.0000E+00  0.0000E+00
    -18.625  0.0000E+00  0.0000E+00
    -18.620  0.0000E+00  0.0000E+00
    -18.615  0.0000E+00  0.0000E+00
    -18.610  0.0000E+00  0.0000E+00
    -18.605  0.0000E+00  0.0000E+00
    -18.600  0.0000E+00  0.0000E+00
    -18.595  0.0000E+00  0.0000E+00
    -18.589  0.0000E+00  0.0000E+00
    -18.584  0.0000E+00  0.0000E+00
    -18.579  0.0000E+00  0.0000E+00
    -18.574  0.0000E+00  0.0000E+00
    -18.569  0.0000E+00  0.0000E+00
    -18.564  0.0000E+00  0.0000E+00
    -18.559  0.0000E+00  0.0000E+00
    -18.554  0.0000E+00  0.0000E+00
    -18.549  0.0000E+00  0.0000E+00
    -18.544  0.0000E+00  0.0000E+00
    -18.539  0.0000E+00  0.0000E+00
    -18.534  0.0000E+00  0.0000E+00
    -18.529  0.0000E+00  0.0000E+00
    -18.524  0.0000E+00  0.0000E+00
    -18.519  0.0000E+00  0.0000E+00
    -18.514  0.0000E+00  0.0000E+00
    -18.509  0.0000E+00  0.0000E+00
    -18.504  0.0000E+00  0.0000E+00
    -18.499  0.0000E+00  0.0000E+00
    -18.494  0.0000E+00  0.0000E+00
    -18.489  0.0000E+00  0.0000E+00
    -18.484  0.0000E+00  0.0000E+00
    -18.479  0.0000E+00  0.0000E+00
    -18.474  0.0000E+00  0.0000E+00
    -18.469  0.0000E+00  0.0000E+00
    -18.464  0.0000E+00  0.0000E+00
    -18.459  0.0000E+00  0.0000E+00
    -18.454  0.0000E+00  0.0000E+00
    -18.449  0.0000E+00  0.0000E+00
    -18.444  0.0000E+00  0.0000E+00
    -18.439  0.0000E+00  0.0000E+00
    -18.434  0.0000E+00  0.0000E+00
    -18.429  0.0000E+00  0.0000E+00
    -18.424  0.0000E+00  0.0000E+00
    -18.419  0.0000E+00  0.0000E+00
    -18.414  0.0000E+00  0.0000E+00
    -18.409  0.0000E+00  0.0000E+00
    -18.404  0.0000E+00  0.0000E+00
    -18.399  0.0000E+00  0.0000E+00
    -18.394  0.0000E+00  0.0000E+00
    -18.389  0.0000E+00  0.0000E+00
    -18.384  0.0000E+00  0.0000E+00
    -18.379  0.0000E+00  0.0000E+00
    -18.374  0.0000E+00  0.0000E+00
    -18.369  0.0000E+00  0.0000E+00
    -18.364  0.0000E+00  0.0000E+00
    -18.359  0.0000E+00  0.0000E+00
    -18.354  0.0000E+00  0.0000E+00
    -18.349  0.0000E+00  0.0000E+00
    -18.344  0.0000E+00  0.0000E+00
    -18.339  0.0000E+00  0.0000E+00
    -18.334  0.0000E+00  0.0000E+00
    -18.329  0.0000E+00  0.0000E+00
    -18.324  0.0000E+00  0.0000E+00
    -18.319  0.0000E+00  0.0000E+00
    -18.314  0.0000E+00  0.0000E+00
    -18.309  0.0000E+00  0.0000E+00
    -18.304  0.0000E+00  0.0000E+00
    -18.299  0.0000E+00  0.0000E+00
    -18.294  0.0000E+00  0.0000E+00
    -18.289  0.0000E+00  0.0000E+00
    -18.284  0.0000E+00  0.0000E+00
    -18.279  0.0000E+00  0.0000E+00
    -18.274  0.0000E+00  0.0000E+00
    -18.269  0.0000E+00  0.0000E+00
    -18.264  0.0000E+00  0.0000E+00
    -18.259  0.0000E+00  0.0000E+00
    -18.253  0.0000E+00  0.0000E+00
    -18.248  0.0000E+00  0.0000E+00
    -18.243  0.0000E+00  0.0000E+00
    -18.238  0.0000E+00  0.0000E+00
    -18.233  0.0000E+00  0.0000E+00
    -18.228  0.0000E+00  0.0000E+00
    -18.223  0.0000E+00  0.0000E+00
    -18.218  0.0000E+00  0.0000E+00
    -18.213  0.0000E+00  0.0000E+00
    -18.208  0.0000E+00  0.0000E+00
    -18.203  0.0000E+00  0.0000E+00
    -18.198  0.0000E+00  0.0000E+00
    -18.193  0.0000E+00  0.0000E+00
    -18.188  0.0000E+00  0.0000E+00
    -18.183  0.0000E+00  0.0000E+00
    -18.178  0.0000E+00  0.0000E+00
    -18.173  0.0000E+00  0.0000E+00
    -18.168  0.0000E+00  0.0000E+00
    -18.163  0.0000E+00  0.0000E+00
    -18.158  0.0000E+00  0.0000E+00
    -18.153  0.0000E+00  0.0000E+00
    -18.148  0.0000E+00  0.0000E+00
    -18.143  0.0000E+00  0.0000E+00
    -18.138  0.0000E+00  0.0000E+00
    -18.133  0.0000E+00  0.0000E+00
    -18.128  0.0000E+00  0.0000E+00
    -18.123  0.0000E+00  0.0000E+00
    -18.118  0.0000E+00  0.0000E+00
    -18.113  0.0000E+00  0.0000E+00
    -18.108  0.0000E+00  0.0000E+00
    -18.103  0.0000E+00  0.0000E+00
    -18.098  0.0000E+00  0.0000E+00
    -18.093  0.0000E+00  0.0000E+00
    -18.088  0.0000E+00  0.0000E+00
    -18.083  0.0000E+00  0.0000E+00
    -18.078  0.0000E+00  0.0000E+00
    -18.073  0.0000E+00  0.0000E+00
    -18.068  0.0000E+00  0.0000E+00
    -18.063  0.0000E+00  0.0000E+00
    -18.058  0.0000E+00  0.0000E+00
    -18.053  0.0000E+00  0.0000E+00
    -18.048  0.0000E+00  0.0000E+00
    -18.043  0.0000E+00  0.0000E+00
    -18.038  0.0000E+00  0.0000E+00
    -18.033  0.0000E+00  0.0000E+00
    -18.028  0.0000E+00  0.0000E+00
    -18.023  0.0000E+00  0.0000E+00
    -18.018  0.0000E+00  0.0000E+00
    -18.013  0.0000E+00  0.0000E+00
    -18.008  0.0000E+00  0.0000E+00
    -18.003  0.0000E+00  0.0000E+00
    -17.998  0.0000E+00  0.0000E+00
    -17.993  0.0000E+00  0.0000E+00
    -17.988  0.0000E+00  0.0000E+00
    -17.983  0.0000E+00  0.0000E+00
    -17.978  0.0000E+00  0.0000E+00
    -17.973  0.0000E+00  0.0000E+00
    -17.968  0.0000E+00  0.0000E+00
    -17.963  0.0000E+00  0.0000E+00
    -17.958  0.0000E+00  0.0000E+00
    -17.953  0.0000E+00  0.0000E+00
    -17.948  0.0000E+00  0.0000E+00
    -17.943  0.0000E+00  0.0000E+00
    -17.938  0.0000E+00  0.0000E+00
    -17.933  0.0000E+00  0.0000E+00
    -17.928  0.0000E+00  0.0000E+00
    -17.923  0.0000E+00  0.0000E+00
    -17.917  0.0000E+00  0.0000E+00
    -17.912  0.0000E+00  0.0000E+00
    -17.907  0.0000E+00  0.0000E+00
    -17.902  0.0000E+00  0.0000E+00
    -17.897  0.0000E+00  0.0000E+00
    -17.892  0.0000E+00  0.0000E+00
    -17.887  0.0000E+00  0.0000E+00
    -17.882  0.0000E+00  0.0000E+00
    -17.877  0.0000E+00  0.0000E+00
    -17.872  0.0000E+00  0.0000E+00
    -17.867  0.0000E+00  0.0000E+00
    -17.862  0.0000E+00  0.0000E+00
    -17.857  0.0000E+00  0.0000E+00
    -17.852  0.0000E+00  0.0000E+00
    -17.847  0.0000E+00  0.0000E+00
    -17.842  0.0000E+00  0.0000E+00
    -17.837  0.0000E+00  0.0000E+00
    -17.832  0.0000E+00  0.0000E+00
    -17.827  0.0000E+00  0.0000E+00
    -17.822  0.0000E+00  0.0000E+00
    -17.817  0.0000E+00  0.0000E+00
    -17.812  0.0000E+00  0.0000E+00
    -17.807  0.0000E+00  0.0000E+00
    -17.802  0.0000E+00  0.0000E+00
    -17.797  0.0000E+00  0.0000E+00
    -17.792  0.0000E+00  0.0000E+00
    -17.787  0.0000E+00  0.0000E+00
    -17.782  0.0000E+00  0.0000E+00
    -17.777  0.0000E+00  0.0000E+00
    -17.772  0.0000E+00  0.0000E+00
    -17.767  0.0000E+00  0.0000E+00
    -17.762  0.0000E+00  0.0000E+00
    -17.757  0.0000E+00  0.0000E+00
    -17.752  0.0000E+00  0.0000E+00
    -17.747  0.0000E+00  0.0000E+00
    -17.742  0.0000E+00  0.0000E+00
    -17.737  0.0000E+00  0.0000E+00
    -17.732  0.0000E+00  0.0000E+00
    -17.727  0.0000E+00  0.0000E+00
    -17.722  0.0000E+00  0.0000E+00
    -17.717  0.0000E+00  0.0000E+00
    -17.712  0.0000E+00  0.0000E+00
    -17.707  0.0000E+00  0.0000E+00
    -17.702  0.0000E+00  0.0000E+00
    -17.697  0.0000E+00  0.0000E+00
    -17.692  0.0000E+00  0.0000E+00
    -17.687  0.0000E+00  0.0000E+00
    -17.682  0.0000E+00  0.0000E+00
    -17.677  0.0000E+00  0.0000E+00
    -17.672  0.0000E+00  0.0000E+00
    -17.667  0.0000E+00  0.0000E+00
    -17.662  0.0000E+00  0.0000E+00
    -17.657  0.0000E+00  0.0000E+00
    -17.652  0.0000E+00  0.0000E+00
    -17.647  0.0000E+00  0.0000E+00
    -17.642  0.0000E+00  0.0000E+00
    -17.637  0.0000E+00  0.0000E+00
    -17.632  0.0000E+00  0.0000E+00
    -17.627  0.0000E+00  0.0000E+00
    -17.622  0.0000E+00  0.0000E+00
    -17.617  0.0000E+00  0.0000E+00
    -17.612  0.0000E+00  0.0000E+00
    -17.607  0.0000E+00  0.0000E+00
    -17.602  0.0000E+00  0.0000E+00
    -17.597  0.0000E+00  0.0000E+00
    -17.592  0.0000E+00  0.0000E+00
    -17.587  0.0000E+00  0.0000E+00
    -17.582  0.0000E+00  0.0000E+00
    -17.576  0.0000E+00  0.0000E+00
    -17.571  0.0000E+00  0.0000E+00
    -17.566  0.0000E+00  0.0000E+00
    -17.561  0.0000E+00  0.0000E+00
    -17.556  0.0000E+00  0.0000E+00
    -17.551  0.0000E+00  0.0000E+00
    -17.546  0.0000E+00  0.0000E+00
    -17.541  0.0000E+00  0.0000E+00
    -17.536  0.0000E+00  0.0000E+00
    -17.531  0.1130E-15  0.5664E-18
    -17.526  0.2824E-13  0.1422E-15
    -17.521  0.5312E-11  0.2678E-13
    -17.516  0.6089E-09  0.3080E-11
    -17.511  0.4260E-07  0.2167E-09
    -17.506  0.1821E-05  0.9351E-08
    -17.501  0.4767E-04  0.2484E-06
    -17.496  0.7649E-03  0.4084E-05
    -17.491  0.7536E-02  0.4187E-04
    -17.486  0.4566E-01  0.2709E-03
    -17.481  0.1704E+00  0.1125E-02
    -17.476  0.3921E+00  0.3092E-02
    -17.471  0.5569E+00  0.5885E-02
    -17.466  0.4882E+00  0.8333E-02
    -17.461  0.2642E+00  0.9658E-02
    -17.456  0.8822E-01  0.1010E-01
    -17.451  0.1815E-01  0.1019E-01
    -17.446  0.2298E-02  0.1020E-01
    -17.441  0.1788E-03  0.1020E-01
    -17.436  0.8537E-05  0.1020E-01
    -17.431  0.3082E-06  0.1020E-01
    -17.426  0.2997E-05  0.1020E-01
    -17.421  0.9344E-04  0.1020E-01
    -17.416  0.1788E-02  0.1021E-01
    -17.411  0.2099E-01  0.1032E-01
    -17.406  0.1515E+00  0.1108E-01
    -17.401  0.6729E+00  0.1445E-01
    -17.396  0.1843E+01  0.2369E-01
    -17.391  0.3113E+01  0.3931E-01
    -17.386  0.3247E+01  0.5559E-01
    -17.381  0.2091E+01  0.6607E-01
    -17.376  0.8307E+00  0.7024E-01
    -17.371  0.2035E+00  0.7126E-01
    -17.366  0.3069E-01  0.7141E-01
    -17.361  0.2846E-02  0.7143E-01
    -17.356  0.1620E-03  0.7143E-01
    -17.351  0.5652E-05  0.7143E-01
    -17.346  0.1207E-06  0.7143E-01
    -17.341  0.1574E-08  0.7143E-01
    -17.336  0.1253E-10  0.7143E-01
    -17.331  0.6099E-13  0.7143E-01
    -17.326  0.0000E+00  0.7143E-01
    -17.321  0.0000E+00  0.7143E-01
    -17.316  0.0000E+00  0.7143E-01
    -17.311  0.0000E+00  0.7143E-01
    -17.306  0.0000E+00  0.7143E-01
    -17.301  0.0000E+00  0.7143E-01
    -17.296  0.0000E+00  0.7143E-01
    -17.291  0.0000E+00  0.7143E-01
    -17.286  0.6777E-15  0.7143E-01
    -17.281  0.2114E-12  0.7143E-01
    -17.276  0.3901E-10  0.7143E-01
    -17.271  0.4382E-08  0.7143E-01
    -17.266  0.3005E-06  0.7143E-01
    -17.261  0.1260E-04  0.7143E-01
    -17.256  0.3232E-03  0.7143E-01
    -17.251  0.5084E-02  0.7146E-01
    -17.246  0.4911E-01  0.7170E-01
    -17.240  0.2917E+00  0.7317E-01
    -17.235  0.1068E+01  0.7852E-01
    -17.230  0.2409E+01  0.9060E-01
    -17.225  0.3355E+01  0.1074E+00
    -17.220  0.2884E+01  0.1219E+00
    -17.215  0.1531E+01  0.1296E+00
    -17.210  0.5011E+00  0.1321E+00
    -17.205  0.1011E+00  0.1326E+00
    -17.200  0.1255E-01  0.1326E+00
    -17.195  0.9574E-03  0.1327E+00
    -17.190  0.4481E-04  0.1327E+00
    -17.185  0.1400E-05  0.1327E+00
    -17.180  0.5481E-05  0.1327E+00
    -17.175  0.1572E-03  0.1327E+00
    -17.170  0.2775E-02  0.1327E+00
    -17.165  0.3006E-01  0.1328E+00
    -17.160  0.2003E+00  0.1338E+00
    -17.155  0.8214E+00  0.1379E+00
    -17.150  0.2077E+01  0.1484E+00
    -17.145  0.3241E+01  0.1646E+00
    -17.140  0.3122E+01  0.1803E+00
    -17.135  0.1856E+01  0.1896E+00
    -17.130  0.6810E+00  0.1930E+00
    -17.125  0.1540E+00  0.1938E+00
    -17.120  0.2144E-01  0.1939E+00
    -17.115  0.1835E-02  0.1939E+00
    -17.110  0.9636E-04  0.1939E+00
    -17.105  0.3101E-05  0.1939E+00
    -17.100  0.6103E-07  0.1939E+00
    -17.095  0.7340E-09  0.1939E+00
    -17.090  0.5384E-11  0.1939E+00
    -17.085  0.2440E-13  0.1939E+00
    -17.080  0.0000E+00  0.1939E+00
    -17.075  0.0000E+00  0.1939E+00
    -17.070  0.0000E+00  0.1939E+00
    -17.065  0.0000E+00  0.1939E+00
    -17.060  0.0000E+00  0.1939E+00
    -17.055  0.0000E+00  0.1939E+00
    -17.050  0.0000E+00  0.1939E+00
    -17.045  0.0000E+00  0.1939E+00
    -17.040  0.0000E+00  0.1939E+00
    -17.035  0.0000E+00  0.1939E+00
    -17.030  0.0000E+00  0.1939E+00
    -17.025  0.0000E+00  0.1939E+00
    -17.020  0.0000E+00  0.1939E+00
    -17.015  0.0000E+00  0.1939E+00
    -17.010  0.0000E+00  0.1939E+00
    -17.005  0.0000E+00  0.1939E+00
    -17.000  0.0000E+00  0.1939E+00
    -16.995  0.0000E+00  0.1939E+00
    -16.990  0.0000E+00  0.1939E+00
    -16.985  0.0000E+00  0.1939E+00
    -16.980  0.0000E+00  0.1939E+00
    -16.975  0.0000E+00  0.1939E+00
    -16.970  0.0000E+00  0.1939E+00
    -16.965  0.0000E+00  0.1939E+00
    -16.960  0.8133E-14  0.1939E+00
    -16.955  0.2101E-11  0.1939E+00
    -16.950  0.3341E-09  0.1939E+00
    -16.945  0.3241E-07  0.1939E+00
    -16.940  0.1920E-05  0.1939E+00
    -16.935  0.6954E-04  0.1939E+00
    -16.930  0.1543E-02  0.1939E+00
    -16.925  0.2099E-01  0.1940E+00
    -16.920  0.1754E+00  0.1949E+00
    -16.915  0.9024E+00  0.1994E+00
    -16.910  0.2860E+01  0.2137E+00
    -16.904  0.5591E+01  0.2418E+00
    -16.899  0.6746E+01  0.2756E+00
    -16.894  0.5026E+01  0.3008E+00
    -16.889  0.2311E+01  0.3124E+00
    -16.884  0.6552E+00  0.3157E+00
    -16.879  0.1144E+00  0.3163E+00
    -16.874  0.1230E-01  0.3163E+00
    -16.869  0.8113E-03  0.3163E+00
    -16.864  0.3283E-04  0.3163E+00
    -16.859  0.8130E-06  0.3163E+00
    -16.854  0.1231E-07  0.3163E+00
    -16.849  0.1138E-09  0.3163E+00
    -16.844  0.6425E-12  0.3163E+00
    -16.839  0.2711E-14  0.3163E+00
    -16.834  0.0000E+00  0.3163E+00
    -16.829  0.0000E+00  0.3163E+00
    -16.824  0.0000E+00  0.3163E+00
    -16.819  0.0000E+00  0.3163E+00
    -16.814  0.0000E+00  0.3163E+00
    -16.809  0.0000E+00  0.3163E+00
    -16.804  0.0000E+00  0.3163E+00
    -16.799  0.3389E-14  0.3163E+00
    -16.794  0.9149E-12  0.3163E+00
    -16.789  0.1474E-09  0.3163E+00
    -16.784  0.1448E-07  0.3163E+00
    -16.779  0.8689E-06  0.3163E+00
    -16.774  0.3188E-04  0.3163E+00
    -16.769  0.7161E-03  0.3163E+00
    -16.764  0.9868E-02  0.3164E+00
    -16.759  0.8353E-01  0.3168E+00
    -16.754  0.4351E+00  0.3190E+00
    -16.749  0.1396E+01  0.3260E+00
    -16.744  0.2764E+01  0.3398E+00
    -16.739  0.3377E+01  0.3568E+00
    -16.734  0.2548E+01  0.3696E+00
    -16.729  0.1186E+01  0.3755E+00
    -16.724  0.3406E+00  0.3772E+00
    -16.719  0.6024E-01  0.3775E+00
    -16.714  0.6554E-02  0.3775E+00
    -16.709  0.4380E-03  0.3776E+00
    -16.704  0.1795E-04  0.3776E+00
    -16.699  0.4502E-06  0.3776E+00
    -16.694  0.6904E-08  0.3776E+00
    -16.689  0.6464E-10  0.3776E+00
    -16.684  0.3687E-12  0.3776E+00
    -16.679  0.1355E-14  0.3776E+00
    -16.674  0.0000E+00  0.3776E+00
    -16.669  0.0000E+00  0.3776E+00
    -16.664  0.0000E+00  0.3776E+00
    -16.659  0.0000E+00  0.3776E+00
    -16.654  0.0000E+00  0.3776E+00
    -16.649  0.0000E+00  0.3776E+00
    -16.644  0.0000E+00  0.3776E+00
    -16.639  0.0000E+00  0.3776E+00
    -16.634  0.0000E+00  0.3776E+00
    -16.629  0.0000E+00  0.3776E+00
    -16.624  0.0000E+00  0.3776E+00
    -16.619  0.0000E+00  0.3776E+00
    -16.614  0.0000E+00  0.3776E+00
    -16.609  0.0000E+00  0.3776E+00
    -16.604  0.0000E+00  0.3776E+00
    -16.599  0.0000E+00  0.3776E+00
    -16.594  0.0000E+00  0.3776E+00
    -16.589  0.0000E+00  0.3776E+00
    -16.584  0.0000E+00  0.3776E+00
    -16.579  0.0000E+00  0.3776E+00
    -16.574  0.0000E+00  0.3776E+00
    -16.568  0.0000E+00  0.3776E+00
    -16.563  0.0000E+00  0.3776E+00
    -16.558  0.8133E-14  0.3776E+00
    -16.553  0.1935E-11  0.3776E+00
    -16.548  0.2906E-09  0.3776E+00
    -16.543  0.2663E-07  0.3776E+00
    -16.538  0.1490E-05  0.3776E+00
    -16.533  0.5100E-04  0.3776E+00
    -16.528  0.1069E-02  0.3776E+00
    -16.523  0.1375E-01  0.3776E+00
    -16.518  0.1086E+00  0.3782E+00
    -16.513  0.5284E+00  0.3808E+00
    -16.508  0.1584E+01  0.3888E+00
    -16.503  0.2928E+01  0.4034E+00
    -16.498  0.3342E+01  0.4202E+00
    -16.493  0.2355E+01  0.4320E+00
    -16.488  0.1024E+01  0.4371E+00
    -16.483  0.2745E+00  0.4385E+00
    -16.478  0.4534E-01  0.4388E+00
    -16.473  0.4604E-02  0.4388E+00
    -16.468  0.2872E-03  0.4388E+00
    -16.463  0.1118E-04  0.4388E+00
    -16.458  0.9958E-05  0.4388E+00
    -16.453  0.2839E-03  0.4388E+00
    -16.448  0.5092E-02  0.4388E+00
    -16.443  0.5605E-01  0.4391E+00
    -16.438  0.3793E+00  0.4410E+00
    -16.433  0.1581E+01  0.4489E+00
    -16.428  0.4061E+01  0.4693E+00
    -16.423  0.6437E+01  0.5016E+00
    -16.418  0.6299E+01  0.5331E+00
    -16.413  0.3805E+01  0.5522E+00
    -16.408  0.1418E+01  0.5593E+00
    -16.403  0.3258E+00  0.5610E+00
    -16.398  0.4609E-01  0.5612E+00
    -16.393  0.4007E-02  0.5612E+00
    -16.388  0.2138E-03  0.5612E+00
    -16.383  0.6992E-05  0.5612E+00
    -16.378  0.1399E-06  0.5612E+00
    -16.373  0.1709E-08  0.5612E+00
    -16.368  0.1274E-10  0.5612E+00
    -16.363  0.5964E-13  0.5612E+00
    -16.358  0.0000E+00  0.5612E+00
    -16.353  0.0000E+00  0.5612E+00
    -16.348  0.0000E+00  0.5612E+00
    -16.343  0.0000E+00  0.5612E+00
    -16.338  0.0000E+00  0.5612E+00
    -16.333  0.0000E+00  0.5612E+00
    -16.328  0.0000E+00  0.5612E+00
    -16.323  0.0000E+00  0.5612E+00
    -16.318  0.0000E+00  0.5612E+00
    -16.313  0.0000E+00  0.5612E+00
    -16.308  0.0000E+00  0.5612E+00
    -16.303  0.0000E+00  0.5612E+00
    -16.298  0.0000E+00  0.5612E+00
    -16.293  0.0000E+00  0.5612E+00
    -16.288  0.0000E+00  0.5612E+00
    -16.283  0.0000E+00  0.5612E+00
    -16.278  0.0000E+00  0.5612E+00
    -16.273  0.0000E+00  0.5612E+00
    -16.268  0.0000E+00  0.5612E+00
    -16.263  0.0000E+00  0.5612E+00
    -16.258  0.0000E+00  0.5612E+00
    -16.253  0.0000E+00  0.5612E+00
    -16.248  0.6777E-15  0.5612E+00
    -16.243  0.2026E-12  0.5612E+00
    -16.238  0.3754E-10  0.5612E+00
    -16.233  0.4234E-08  0.5612E+00
    -16.227  0.2914E-06  0.5612E+00
    -16.222  0.1226E-04  0.5612E+00
    -16.217  0.3158E-03  0.5612E+00
    -16.212  0.4986E-02  0.5613E+00
    -16.207  0.4834E-01  0.5615E+00
    -16.202  0.2883E+00  0.5629E+00
    -16.197  0.1059E+01  0.5682E+00
    -16.192  0.2398E+01  0.5803E+00
    -16.187  0.3352E+01  0.5971E+00
    -16.182  0.2893E+01  0.6116E+00
    -16.177  0.1541E+01  0.6193E+00
    -16.172  0.5064E+00  0.6219E+00
    -16.167  0.1025E+00  0.6224E+00
    -16.162  0.1278E-01  0.6224E+00
    -16.157  0.9785E-03  0.6224E+00
    -16.152  0.4596E-04  0.6224E+00
    -16.147  0.1322E-05  0.6224E+00
    -16.142  0.2327E-07  0.6224E+00
    -16.137  0.2500E-09  0.6224E+00
    -16.132  0.1639E-11  0.6224E+00
    -16.127  0.6777E-14  0.6224E+00
    -16.122  0.0000E+00  0.6224E+00
    -16.117  0.0000E+00  0.6224E+00
    -16.112  0.0000E+00  0.6224E+00
    -16.107  0.0000E+00  0.6224E+00
    -16.102  0.0000E+00  0.6224E+00
    -16.097  0.0000E+00  0.6224E+00
    -16.092  0.0000E+00  0.6224E+00
    -16.087  0.0000E+00  0.6224E+00
    -16.082  0.0000E+00  0.6224E+00
    -16.077  0.0000E+00  0.6224E+00
    -16.072  0.0000E+00  0.6224E+00
    -16.067  0.0000E+00  0.6224E+00
    -16.062  0.0000E+00  0.6224E+00
    -16.057  0.0000E+00  0.6224E+00
    -16.052  0.0000E+00  0.6224E+00
    -16.047  0.0000E+00  0.6224E+00
    -16.042  0.0000E+00  0.6224E+00
    -16.037  0.0000E+00  0.6224E+00
    -16.032  0.0000E+00  0.6224E+00
    -16.027  0.0000E+00  0.6224E+00
    -16.022  0.0000E+00  0.6224E+00
    -16.017  0.0000E+00  0.6224E+00
    -16.012  0.1355E-14  0.6224E+00
    -16.007  0.2860E-12  0.6224E+00
    -16.002  0.5463E-10  0.6224E+00
    -15.997  0.6358E-08  0.6224E+00
    -15.992  0.4516E-06  0.6224E+00
    -15.987  0.1961E-04  0.6224E+00
    -15.982  0.5210E-03  0.6225E+00
    -15.977  0.8486E-02  0.6225E+00
    -15.972  0.8487E-01  0.6229E+00
    -15.967  0.5220E+00  0.6255E+00
    -15.962  0.1978E+01  0.6355E+00
    -15.957  0.4619E+01  0.6586E+00
    -15.952  0.6658E+01  0.6920E+00
    -15.947  0.5925E+01  0.7217E+00
    -15.942  0.3255E+01  0.7380E+00
    -15.937  0.1103E+01  0.7436E+00
    -15.932  0.2304E+00  0.7447E+00
    -15.927  0.2961E-01  0.7449E+00
    -15.922  0.2339E-02  0.7449E+00
    -15.917  0.1134E-03  0.7449E+00
    -15.912  0.3365E-05  0.7449E+00
    -15.907  0.6110E-07  0.7449E+00
    -15.902  0.6775E-09  0.7449E+00
    -15.897  0.4584E-11  0.7449E+00
    -15.891  0.1898E-13  0.7449E+00
    -15.886  0.0000E+00  0.7449E+00
    -15.881  0.0000E+00  0.7449E+00
    -15.876  0.0000E+00  0.7449E+00
    -15.871  0.0000E+00  0.7449E+00
    -15.866  0.0000E+00  0.7449E+00
    -15.861  0.4066E-14  0.7449E+00
    -15.856  0.9596E-12  0.7449E+00
    -15.851  0.1641E-09  0.7449E+00
    -15.846  0.1711E-07  0.7449E+00
    -15.841  0.1089E-05  0.7449E+00
    -15.836  0.4240E-04  0.7449E+00
    -15.831  0.1010E-02  0.7449E+00
    -15.826  0.1477E-01  0.7450E+00
    -15.821  0.1325E+00  0.7456E+00
    -15.816  0.7319E+00  0.7493E+00
    -15.811  0.2490E+01  0.7618E+00
    -15.806  0.5224E+01  0.7880E+00
    -15.801  0.6764E+01  0.8219E+00
    -15.796  0.5408E+01  0.8490E+00
    -15.791  0.2668E+01  0.8624E+00
    -15.786  0.8121E+00  0.8665E+00
    -15.781  0.1523E+00  0.8673E+00
    -15.776  0.1757E-01  0.8673E+00
    -15.771  0.1245E-02  0.8673E+00
    -15.766  0.5412E-04  0.8673E+00
    -15.761  0.1441E-05  0.8673E+00
    -15.756  0.2344E-07  0.8673E+00
    -15.751  0.2329E-09  0.8673E+00
    -15.746  0.1410E-11  0.8673E+00
    -15.741  0.5422E-14  0.8673E+00
    -15.736  0.0000E+00  0.8673E+00
    -15.731  0.0000E+00  0.8673E+00
    -15.726  0.0000E+00  0.8673E+00
    -15.721  0.0000E+00  0.8673E+00
    -15.716  0.0000E+00  0.8673E+00
    -15.711  0.0000E+00  0.8673E+00
    -15.706  0.0000E+00  0.8673E+00
    -15.701  0.0000E+00  0.8673E+00
    -15.696  0.0000E+00  0.8673E+00
    -15.691  0.0000E+00  0.8673E+00
    -15.686  0.0000E+00  0.8673E+00
    -15.681  0.0000E+00  0.8673E+00
    -15.676  0.0000E+00  0.8673E+00
    -15.671  0.0000E+00  0.8673E+00
    -15.666  0.0000E+00  0.8673E+00
    -15.661  0.0000E+00  0.8673E+00
    -15.656  0.0000E+00  0.8673E+00
    -15.651  0.0000E+00  0.8673E+00
    -15.646  0.0000E+00  0.8673E+00
    -15.641  0.0000E+00  0.8673E+00
    -15.636  0.0000E+00  0.8673E+00
    -15.631  0.0000E+00  0.8673E+00
    -15.626  0.0000E+00  0.8673E+00
    -15.621  0.0000E+00  0.8673E+00
    -15.616  0.0000E+00  0.8673E+00
    -15.611  0.0000E+00  0.8673E+00
    -15.606  0.0000E+00  0.8673E+00
    -15.601  0.0000E+00  0.8673E+00
    -15.596  0.0000E+00  0.8673E+00
    -15.591  0.0000E+00  0.8673E+00
    -15.586  0.0000E+00  0.8673E+00
    -15.581  0.0000E+00  0.8673E+00
    -15.576  0.0000E+00  0.8673E+00
    -15.571  0.0000E+00  0.8673E+00
    -15.566  0.1965E-13  0.8673E+00
    -15.561  0.4482E-11  0.8673E+00
    -15.555  0.6217E-09  0.8673E+00
    -15.550  0.5262E-07  0.8673E+00
    -15.545  0.2720E-05  0.8673E+00
    -15.540  0.8602E-04  0.8673E+00
    -15.535  0.1667E-02  0.8674E+00
    -15.530  0.1982E-01  0.8675E+00
    -15.525  0.1448E+00  0.8682E+00
    -15.520  0.6514E+00  0.8714E+00
    -15.515  0.1806E+01  0.8805E+00
    -15.510  0.3090E+01  0.8960E+00
    -15.505  0.3263E+01  0.9124E+00
    -15.500  0.2127E+01  0.9230E+00
    -15.495  0.8559E+00  0.9273E+00
    -15.490  0.2123E+00  0.9284E+00
    -15.485  0.3242E-01  0.9286E+00
    -15.480  0.3045E-02  0.9286E+00
    -15.475  0.1755E-03  0.9286E+00
    -15.470  0.6201E-05  0.9286E+00
    -15.465  0.1341E-06  0.9286E+00
    -15.460  0.1771E-08  0.9286E+00
    -15.455  0.1428E-10  0.9286E+00
    -15.450  0.7048E-13  0.9286E+00
    -15.445  0.0000E+00  0.9286E+00
    -15.440  0.0000E+00  0.9286E+00
    -15.435  0.0000E+00  0.9286E+00
    -15.430  0.0000E+00  0.9286E+00
    -15.425  0.0000E+00  0.9286E+00
    -15.420  0.0000E+00  0.9286E+00
    -15.415  0.0000E+00  0.9286E+00
    -15.410  0.0000E+00  0.9286E+00
    -15.405  0.0000E+00  0.9286E+00
    -15.400  0.1152E-13  0.9286E+00
    -15.395  0.2687E-11  0.9286E+00
    -15.390  0.3913E-09  0.9286E+00
    -15.385  0.3476E-07  0.9286E+00
    -15.380  0.1886E-05  0.9286E+00
    -15.375  0.6260E-04  0.9286E+00
    -15.370  0.1273E-02  0.9286E+00
    -15.365  0.1587E-01  0.9287E+00
    -15.360  0.1217E+00  0.9293E+00
    -15.355  0.5741E+00  0.9321E+00
    -15.350  0.1669E+01  0.9405E+00
    -15.345  0.2995E+01  0.9555E+00
    -15.340  0.3316E+01  0.9722E+00
    -15.335  0.2267E+01  0.9835E+00
    -15.330  0.9563E+00  0.9883E+00
    -15.325  0.2488E+00  0.9896E+00
    -15.320  0.3985E-01  0.9898E+00
    -15.315  0.3927E-02  0.9898E+00
    -15.310  0.2862E-03  0.9898E+00
    -15.305  0.1148E-02  0.9898E+00
    -15.300  0.1632E-01  0.9899E+00
    -15.295  0.1436E+00  0.9906E+00
    -15.290  0.7771E+00  0.9945E+00
    -15.285  0.2591E+01  0.1007E+01
    -15.280  0.5330E+01  0.1034E+01
    -15.275  0.6766E+01  0.1068E+01
    -15.270  0.5303E+01  0.1095E+01
    -15.265  0.2565E+01  0.1108E+01
    -15.260  0.7654E+00  0.1111E+01
    -15.255  0.1407E+00  0.1112E+01
    -15.250  0.1591E-01  0.1112E+01
    -15.245  0.1105E-02  0.1112E+01
    -15.240  0.4708E-04  0.1112E+01
    -15.235  0.1228E-05  0.1112E+01
    -15.230  0.1958E-07  0.1112E+01
    -15.225  0.1906E-09  0.1112E+01
    -15.220  0.1130E-11  0.1112E+01
    -15.214  0.5422E-14  0.1112E+01
    -15.209  0.0000E+00  0.1112E+01
    -15.204  0.0000E+00  0.1112E+01
    -15.199  0.0000E+00  0.1112E+01
    -15.194  0.0000E+00  0.1112E+01
    -15.189  0.0000E+00  0.1112E+01
    -15.184  0.0000E+00  0.1112E+01
    -15.179  0.0000E+00  0.1112E+01
    -15.174  0.0000E+00  0.1112E+01
    -15.169  0.0000E+00  0.1112E+01
    -15.164  0.0000E+00  0.1112E+01
    -15.159  0.0000E+00  0.1112E+01
    -15.154  0.0000E+00  0.1112E+01
    -15.149  0.0000E+00  0.1112E+01
    -15.144  0.0000E+00  0.1112E+01
    -15.139  0.2440E-13  0.1112E+01
    -15.134  0.5704E-11  0.1112E+01
    -15.129  0.8260E-09  0.1112E+01
    -15.124  0.7297E-07  0.1112E+01
    -15.119  0.3937E-05  0.1112E+01
    -15.114  0.1299E-03  0.1112E+01
    -15.109  0.2627E-02  0.1112E+01
    -15.104  0.3258E-01  0.1112E+01
    -15.099  0.2484E+00  0.1114E+01
    -15.094  0.1165E+01  0.1120E+01
    -15.089  0.3370E+01  0.1136E+01
    -15.084  0.6012E+01  0.1167E+01
    -15.079  0.6621E+01  0.1200E+01
    -15.074  0.4501E+01  0.1222E+01
    -15.069  0.1889E+01  0.1232E+01
    -15.064  0.4886E+00  0.1234E+01
    -15.059  0.7783E-01  0.1235E+01
    -15.054  0.7625E-02  0.1235E+01
    -15.049  0.4587E-03  0.1235E+01
    -15.044  0.1691E-04  0.1235E+01
    -15.039  0.3816E-06  0.1235E+01
    -15.034  0.5262E-08  0.1235E+01
    -15.029  0.4429E-10  0.1235E+01
    -15.024  0.2277E-12  0.1235E+01
    -15.019  0.0000E+00  0.1235E+01
    -15.014  0.0000E+00  0.1235E+01
    -15.009  0.0000E+00  0.1235E+01
    -15.004  0.0000E+00  0.1235E+01
    -14.999  0.0000E+00  0.1235E+01
    -14.994  0.0000E+00  0.1235E+01
    -14.989  0.0000E+00  0.1235E+01
    -14.984  0.0000E+00  0.1235E+01
    -14.979  0.0000E+00  0.1235E+01
    -14.974  0.0000E+00  0.1235E+01
    -14.969  0.0000E+00  0.1235E+01
    -14.964  0.0000E+00  0.1235E+01
    -14.959  0.0000E+00  0.1235E+01
    -14.954  0.0000E+00  0.1235E+01
    -14.949  0.0000E+00  0.1235E+01
    -14.944  0.0000E+00  0.1235E+01
    -14.939  0.0000E+00  0.1235E+01
    -14.934  0.0000E+00  0.1235E+01
    -14.929  0.0000E+00  0.1235E+01
    -14.924  0.0000E+00  0.1235E+01
    -14.919  0.0000E+00  0.1235E+01
    -14.914  0.0000E+00  0.1235E+01
    -14.909  0.0000E+00  0.1235E+01
    -14.904  0.0000E+00  0.1235E+01
    -14.899  0.0000E+00  0.1235E+01
    -14.894  0.0000E+00  0.1235E+01
    -14.889  0.0000E+00  0.1235E+01
    -14.884  0.0000E+00  0.1235E+01
    -14.878  0.0000E+00  0.1235E+01
    -14.873  0.0000E+00  0.1235E+01
    -14.868  0.0000E+00  0.1235E+01
    -14.863  0.0000E+00  0.1235E+01
    -14.858  0.0000E+00  0.1235E+01
    -14.853  0.0000E+00  0.1235E+01
    -14.848  0.0000E+00  0.1235E+01
    -14.843  0.0000E+00  0.1235E+01
    -14.838  0.1627E-13  0.1235E+01
    -14.833  0.3772E-11  0.1235E+01
    -14.828  0.5319E-09  0.1235E+01
    -14.823  0.4576E-07  0.1235E+01
    -14.818  0.2405E-05  0.1235E+01
    -14.813  0.7729E-04  0.1235E+01
    -14.808  0.1522E-02  0.1235E+01
    -14.803  0.1839E-01  0.1235E+01
    -14.798  0.1366E+00  0.1235E+01
    -14.793  0.6245E+00  0.1239E+01
    -14.788  0.1760E+01  0.1247E+01
    -14.783  0.3059E+01  0.1263E+01
    -14.778  0.3283E+01  0.1279E+01
    -14.773  0.2175E+01  0.1290E+01
    -14.768  0.8891E+00  0.1295E+01
    -14.763  0.2241E+00  0.1296E+01
    -14.758  0.3478E-01  0.1296E+01
    -14.753  0.3320E-02  0.1296E+01
    -14.748  0.1945E-03  0.1296E+01
    -14.743  0.6986E-05  0.1296E+01
    -14.738  0.1535E-06  0.1296E+01
    -14.733  0.2062E-08  0.1296E+01
    -14.728  0.1690E-10  0.1296E+01
    -14.723  0.8404E-13  0.1296E+01
    -14.718  0.0000E+00  0.1296E+01
    -14.713  0.0000E+00  0.1296E+01
    -14.708  0.0000E+00  0.1296E+01
    -14.703  0.0000E+00  0.1296E+01