Automatically generated mesh
      24
Reciprocal lattice
    0.00000000000000    0.00000000000000    0.00000000000000             1
    0.07142857142857    0.00000000000000    0.00000000000000             6
    0.14285714285715    0.00000000000000    0.00000000000000             6
    0.21428571428572   -0.00000000000000    0.00000000000000             6
    0.28571428571428    0.00000000000000    0.00000000000000             6
    0.35714285714285    0.00000000000000    0.00000000000000             6
    0.42857142857143   -0.00000000000000    0.00000000000000             6
    0.50000000000000   -0.00000000000000    0.00000000000000             3
    0.07142857142857    0.07142857142857    0.00000000000000             6
    0.14285714285715    0.07142857142857    0.00000000000000            12
    0.21428571428572    0.07142857142857    0.00000000000000            12
    0.28571428571428    0.07142857142857    0.00000000000000            12
    0.35714285714285    0.07142857142857    0.00000000000000            12
    0.42857142857143    0.07142857142857    0.00000000000000            12
    0.14285714285715    0.14285714285715    0.00000000000000             6
    0.21428571428572    0.14285714285715    0.00000000000000            12
    0.28571428571428    0.14285714285715    0.00000000000000            12
    0.35714285714285    0.14285714285715    0.00000000000000            12
    0.42857142857143    0.14285714285715    0.00000000000000             6
    0.21428571428572    0.21428571428572    0.00000000000000             6
    0.28571428571428    0.21428571428572    0.00000000000000            12
    0.35714285714285    0.21428571428572    0.00000000000000            12
    0.28571428571428    0.28571428571428    0.00000000000000             6
    0.35714285714285    0.28571428571428    0.00000000000000             6
