       N       E                     dE             d eps       ncg     rms          rms(c)
DAV:   1     0.251009048845E+02    0.25101E+02   -0.28910E+03   768   0.274E+02
DAV:   2    -0.995031708368E+01   -0.35051E+02   -0.35051E+02  1216   0.659E+01
DAV:   3    -0.107704054651E+02   -0.82009E+00   -0.82009E+00  1008   0.137E+01
DAV:   4    -0.107858366553E+02   -0.15431E-01   -0.15431E-01  1328   0.157E+00
DAV:   5    -0.107859074974E+02   -0.70842E-04   -0.70842E-04  1024   0.944E-02
DAV:   6    -0.107859083840E+02   -0.88665E-06   -0.88679E-06  1408   0.843E-03
DAV:   7    -0.107859083857E+02   -0.16972E-08   -0.17597E-08  1168   0.395E-04
DAV:   8    -0.107859083857E+02    0.22737E-11   -0.24010E-10  1344   0.333E-05
DAV:   9    -0.107859083857E+02    0.15291E-10   -0.35862E-13  1104   0.180E-06
DAV:  10    -0.107859083857E+02    0.88107E-11    0.61212E-13  1088   0.288E-07
DAV:  11    -0.107859083857E+02    0.49454E-11    0.20575E-12   864   0.135E-07
DAV:  12    -0.107859083857E+02    0.25580E-11   -0.76392E-13   752   0.830E-08    0.249E+00
DAV:  13    -0.107597705782E+02    0.26138E-01   -0.53623E-03  1152   0.228E-01    0.221E+00
DAV:  14    -0.106840421052E+02    0.75728E-01   -0.28613E-01  1280   0.167E+00    0.303E-01
DAV:  15    -0.106784000218E+02    0.56421E-02   -0.32243E-02  1344   0.597E-01    0.116E-01
DAV:  16    -0.106785326631E+02   -0.13264E-03   -0.87628E-04  1056   0.135E-01    0.690E-02
DAV:  17    -0.106783709937E+02    0.16167E-03   -0.11143E-03  1280   0.103E-01    0.376E-02
DAV:  18    -0.106783496513E+02    0.21342E-04   -0.15342E-04  1168   0.429E-02    0.733E-03
DAV:  19    -0.106783500969E+02   -0.44553E-06   -0.98898E-06  1040   0.132E-02
   1 F= -.10678350E+02 E0= -.10678350E+02  d E =-.153493E-11
 Linear response reoptimize wavefunctions
DAV:   1    -0.106783511533E+02   -0.10564E-05   -0.34509E-06  1200   0.742E-03
DAV:   2    -0.106783511581E+02   -0.48327E-08   -0.48329E-08  1152   0.969E-04
DAV:   3    -0.106783511581E+02   -0.40359E-10   -0.40464E-10  1280   0.691E-05
 Linear response DOF=           2
 Linear response progress:
  Degree of freedom:   1/  2
       N       E                     dE             d eps       ncg     rms          rms(c)
RMM:   1    -0.395186131075E-01   -0.39519E-01    0.51208E-03  8283   0.121E+00
RMM:   2    -0.383590429951E-01    0.11596E-02   -0.27004E-03  5859   0.262E-01    0.814E-02
RMM:   3    -0.384442041277E-01   -0.85161E-04   -0.17576E-04  5007   0.631E-02    0.721E-02
RMM:   4    -0.387106261473E-01   -0.26642E-03   -0.81800E-05  5170   0.393E-02    0.131E-02
RMM:   5    -0.387307293042E-01   -0.20103E-04   -0.37930E-06  5478   0.939E-03    0.879E-03
RMM:   6    -0.386219711729E-01    0.10876E-03   -0.48973E-06  5274   0.798E-03    0.169E-03
RMM:   7    -0.386181949374E-01    0.37762E-05   -0.30811E-07  6089   0.197E-03    0.132E-03
RMM:   8    -0.386254654245E-01   -0.72705E-05   -0.10083E-07  5589   0.920E-04    0.296E-04
RMM:   9    -0.386195322278E-01    0.59332E-05   -0.27769E-08  6172   0.447E-04    0.209E-04
RMM:  10    -0.386202543197E-01   -0.72209E-06    0.51082E-09  6137   0.158E-04    0.648E-05
 Linear response progress:
  Degree of freedom:   2/  2
       N       E                     dE             d eps       ncg     rms          rms(c)
RMM:   1    -0.727766766481E-01   -0.72777E-01    0.36468E-03  1871   0.126E+00
RMM:   2    -0.711350854575E-01    0.16416E-02   -0.39500E-03  1358   0.284E-01    0.888E-02
RMM:   3    -0.710197728612E-01    0.11531E-03   -0.32698E-04  1214   0.795E-02    0.767E-02
RMM:   4    -0.703838203466E-01    0.63595E-03   -0.42437E-04  1249   0.638E-02    0.277E-02
RMM:   5    -0.703192796161E-01    0.64541E-04   -0.54823E-05  1305   0.248E-02    0.180E-02
RMM:   6    -0.703712305972E-01   -0.51951E-04   -0.92406E-06  1344   0.952E-03    0.118E-02
RMM:   7    -0.704264866205E-01   -0.55256E-04   -0.55300E-06  1427   0.852E-03    0.383E-03
RMM:   8    -0.704289598939E-01   -0.24733E-05   -0.23926E-07  1423   0.198E-03    0.357E-03
RMM:   9    -0.704257493283E-01    0.32106E-05   -0.58897E-08  1483   0.866E-04    0.340E-03
RMM:  10    -0.704480536056E-01   -0.22304E-04   -0.97115E-07  1447   0.344E-03    0.566E-04
RMM:  11    -0.704485809013E-01   -0.52730E-06   -0.25825E-08  1347   0.718E-04    0.489E-04
 Linear response finished
