PROCAR new format
# of k-points:   24         # of bands:   16         # of ions:    2

 k-point     1 :    0.00000000 0.00000000 0.00000000     weight = 0.00510204

band     1 # energy  -17.47254198 # occ.  2.00000000
 
ion      s      p      d    tot
    1  0.261  0.016  0.000  0.277
    2  0.261  0.016  0.000  0.277
tot    0.522  0.032  0.001  0.554
 
band     2 # energy   -9.75869049 # occ.  2.00000000
 
ion      s      p      d    tot
    1  0.212  0.052  0.003  0.268
    2  0.212  0.052  0.003  0.268
tot    0.424  0.105  0.007  0.535
 
band     3 # energy   -3.76619591 # occ.  2.00000000
 
ion      s      p      d    tot
    1  0.005  0.206  0.004  0.214
    2  0.005  0.206  0.004  0.214
tot    0.010  0.412  0.007  0.429
 
band     4 # energy   -3.49630207 # occ.  2.00000000
 
ion      s      p      d    tot
    1  0.000  0.310  0.034  0.344
    2  0.000  0.310  0.034  0.344
tot    0.000  0.620  0.068  0.688
 
band     5 # energy   -3.49630200 # occ.  2.00000000
 
ion      s      p      d    tot
    1  0.000  0.310  0.034  0.344
    2  0.000  0.310  0.034  0.344
tot    0.000  0.620  0.068  0.688
 
band     6 # energy    0.37435684 # occ.  0.00000000
 
ion      s      p      d    tot
    1  0.219  0.102  0.038  0.359
    2  0.219  0.102  0.038  0.359
tot    0.438  0.205  0.075  0.718
 
band     7 # energy    0.52770931 # occ.  0.00000000
 
ion      s      p      d    tot
    1  0.000  0.260  0.047  0.307
    2  0.000  0.260  0.047  0.307
tot    0.000  0.520  0.094  0.615
 
band     8 # energy    0.52770933 # occ.  0.00000000
 
ion      s      p      d    tot
    1  0.000  0.260  0.047  0.307
    2  0.000  0.260  0.047  0.307
tot    0.000  0.520  0.094  0.615
 
band     9 # energy    2.02460679 # occ.  0.00000000
 
ion      s      p      d    tot
    1  0.002  0.004  0.023  0.030
    2  0.002  0.004  0.023  0.030
tot    0.004  0.008  0.046  0.059
 
band    10 # energy    2.46208335 # occ.  0.00000000
 
ion      s      p      d    tot
    1  0.003  0.017  0.000  0.020
    2  0.003  0.017  0.000  0.020
tot    0.006  0.034  0.000  0.040
 
band    11 # energy    3.81395333 # occ.  0.00000000
 
ion      s      p      d    tot
    1  0.006  0.026  0.000  0.032
    2  0.006  0.026  0.000  0.032
tot    0.012  0.052  0.000  0.063
 
band    12 # energy    4.43942737 # occ.  0.00000000
 
ion      s      p      d    tot
    1  0.008  0.000  0.022  0.030
    2  0.008  0.000  0.022  0.030
tot    0.016  0.000  0.044  0.060
 
band    13 # energy    6.47871827 # occ.  0.00000000
 
ion      s      p      d    tot
    1  0.000  0.062  0.189  0.251
    2  0.000  0.062  0.189  0.251
tot    0.000  0.123  0.378  0.501
 
band    14 # energy    6.47871827 # occ.  0.00000000
 
ion      s      p      d    tot
    1  0.000  0.062  0.189  0.251
    2  0.000  0.062  0.189  0.251
tot    0.000  0.123  0.378  0.501
 
band    15 # energy    6.91617905 # occ.  0.00000000
 
ion      s      p      d    tot
    1  0.024  0.040  0.000  0.064
    2  0.024  0.040  0.000  0.064
tot    0.048  0.080  0.000  0.128
 
band    16 # energy    7.56576888 # occ.  0.00000000
 
ion      s      p      d    tot
    1  0.010  0.028  0.055  0.093
    2  0.010  0.028  0.055  0.093
tot    0.019  0.056  0.110  0.185
 

 k-point     2 :    0.07142857 0.00000000 0.00000000     weight = 0.03061224

band     1 # energy  -17.39049888 # occ.  2.00000000
 
ion      s      p      d    tot
    1  0.260  0.017  0.001  0.278
    2  0.260  0.017  0.001  0.278
tot    0.521  0.033  0.001  0.555
 
band     2 # energy   -9.70399297 # occ.  2.00000000
 
ion      s      p      d    tot
    1  0.216  0.051  0.004  0.271
    2  0.216  0.051  0.004  0.271
tot    0.433  0.102  0.007  0.542
 
band     3 # energy   -4.17745347 # occ.  2.00000000
 
ion      s      p      d    tot
    1  0.022  0.277  0.032  0.331
    2  0.022  0.277  0.032  0.331
tot    0.044  0.553  0.065  0.663
 
band     4 # energy   -3.71791161 # occ.  2.00000000
 
ion      s      p      d    tot
    1  0.005  0.208  0.004  0.217
    2  0.005  0.208  0.004  0.217
tot    0.011  0.416  0.008  0.434
 
band     5 # energy   -3.68252613 # occ.  2.00000000
 
ion      s      p      d    tot
    1  0.000  0.305  0.033  0.338
    2  0.000  0.305  0.033  0.338
tot    0.000  0.610  0.066  0.676
 
band     6 # energy    0.28010836 # occ.  0.00000000
 
ion      s      p      d    tot
    1  0.045  0.219  0.045  0.308
    2  0.045  0.219  0.045  0.308
tot    0.090  0.437  0.089  0.617
 
band     7 # energy    0.76519222 # occ.  0.00000000
 
ion      s      p      d    tot
    1  0.000  0.272  0.044  0.316
    2  0.000  0.272  0.044  0.316
tot    0.000  0.544  0.088  0.632
 
band     8 # energy    1.05271821 # occ.  0.00000000
 
ion      s      p      d    tot
    1  0.155  0.168  0.033  0.355
    2  0.155  0.168  0.033  0.355
tot    0.309  0.335  0.066  0.711
 
band     9 # energy    2.12879831 # occ.  0.00000000
 
ion      s      p      d    tot
    1  0.001  0.007  0.026  0.034
    2  0.001  0.007  0.026  0.034
tot    0.002  0.015  0.052  0.068
 
band    10 # energy    2.54660115 # occ.  0.00000000
 
ion      s      p      d    tot
    1  0.003  0.018  0.001  0.021
    2  0.003  0.018  0.001  0.021
tot    0.006  0.036  0.002  0.043
 
band    11 # energy    3.87476974 # occ.  0.00000000
 
ion      s      p      d    tot
    1  0.006  0.026  0.003  0.035
    2  0.006  0.026  0.003  0.035
tot    0.011  0.052  0.006  0.070
 
band    12 # energy    4.53152240 # occ.  0.00000000
 
ion      s      p      d    tot
    1  0.008  0.000  0.022  0.030
    2  0.008  0.000  0.022  0.030
tot    0.015  0.000  0.045  0.061
 
band    13 # energy    5.80438240 # occ.  0.00000000
 
ion      s      p      d    tot
    1  0.002  0.048  0.151  0.201
    2  0.002  0.048  0.151  0.201
tot    0.004  0.097  0.301  0.402
 
band    14 # energy    6.34359304 # occ.  0.00000000
 
ion      s      p      d    tot
    1  0.000  0.048  0.193  0.241
    2  0.000  0.048  0.193  0.241
tot    0.000  0.097  0.385  0.482
 
band    15 # energy    7.12545595 # occ.  0.00000000
 
ion      s      p      d    tot
    1  0.021  0.045  0.021  0.088
    2  0.021  0.045  0.021  0.088
tot    0.042  0.091  0.042  0.176
 
band    16 # energy    7.51883834 # occ.  0.00000000
 
ion      s      p      d    tot
    1  0.006  0.049  0.078  0.133
    2  0.006  0.049  0.078  0.133
tot    0.011  0.098  0.156  0.265
 

 k-point     3 :    0.14285714 0.00000000 0.00000000     weight = 0.03061224

band     1 # energy  -17.14559732 # occ.  2.00000000
 
ion      s      p      d    tot
    1  0.259  0.019  0.001  0.280
    2  0.259  0.019  0.001  0.280
tot    0.519  0.039  0.002  0.559
 
band     2 # energy   -9.56269027 # occ.  2.00000000
 
ion      s      p      d    tot
    1  0.233  0.046  0.004  0.283
    2  0.233  0.046  0.004  0.283
tot    0.467  0.091  0.008  0.566
 
band     3 # energy   -5.50471252 # occ.  2.00000000
 
ion      s      p      d    tot
    1  0.033  0.244  0.028  0.305
    2  0.033  0.244  0.028  0.305
tot    0.066  0.488  0.056  0.609
 
band     4 # energy   -4.11380408 # occ.  2.00000000
 
ion      s      p      d    tot
    1  0.000  0.296  0.031  0.327
    2  0.000  0.296  0.031  0.327
tot    0.000  0.593  0.061  0.654
 
band     5 # energy   -3.58891883 # occ.  2.00000000
 
ion      s      p      d    tot
    1  0.008  0.214  0.004  0.226
    2  0.008  0.214  0.004  0.226
tot    0.015  0.429  0.008  0.452
 
band     6 # energy   -0.25494983 # occ.  0.00000000
 
ion      s      p      d    tot
    1  0.055  0.193  0.043  0.291
    2  0.055  0.193  0.043  0.291
tot    0.110  0.386  0.086  0.582
 
band     7 # energy    1.29529293 # occ.  0.00000000
 
ion      s      p      d    tot
    1  0.000  0.297  0.036  0.333
    2  0.000  0.297  0.036  0.333
tot    0.000  0.595  0.072  0.666
 
band     8 # energy    2.07055136 # occ.  0.00000000
 
ion      s      p      d    tot
    1  0.110  0.163  0.011  0.283
    2  0.110  0.163  0.011  0.283
tot    0.219  0.326  0.021  0.566
 
band     9 # energy    2.45902557 # occ.  0.00000000
 
ion      s      p      d    tot
    1  0.005  0.045  0.036  0.085
    2  0.005  0.045  0.036  0.085
tot    0.009  0.089  0.073  0.171
 
band    10 # energy    2.82590737 # occ.  0.00000000
 
ion      s      p      d    tot
    1  0.007  0.035  0.006  0.048
    2  0.007  0.035  0.006  0.048
tot    0.014  0.070  0.013  0.097
 
band    11 # energy    4.01013634 # occ.  0.00000000
 
ion      s      p      d    tot
    1  0.008  0.031  0.025  0.064
    2  0.008  0.031  0.025  0.064
tot    0.017  0.062  0.050  0.129
 
band    12 # energy    4.80535171 # occ.  0.00000000
 
ion      s      p      d    tot
    1  0.008  0.001  0.024  0.032
    2  0.008  0.001  0.024  0.032
tot    0.015  0.001  0.048  0.064
 
band    13 # energy    5.04105051 # occ.  0.00000000
 
ion      s      p      d    tot
    1  0.008  0.026  0.123  0.156
    2  0.008  0.026  0.123  0.156
tot    0.016  0.052  0.245  0.312
 
band    14 # energy    6.20805049 # occ.  0.00000000
 
ion      s      p      d    tot
    1  0.000  0.022  0.204  0.226
    2  0.000  0.022  0.204  0.226
tot    0.000  0.045  0.407  0.452
 
band    15 # energy    6.86339015 # occ.  0.00000000
 
ion      s      p      d    tot
    1  0.010  0.065  0.106  0.181
    2  0.010  0.065  0.106  0.181
tot    0.019  0.130  0.211  0.361
 
band    16 # energy    7.63719639 # occ.  0.00000000
 
ion      s      p      d    tot
    1  0.010  0.056  0.034  0.099
    2  0.010  0.056  0.034  0.099
tot    0.019  0.111  0.067  0.198
 

 k-point     4 :    0.21428571-0.00000000 0.00000000     weight = 0.03061224

band     1 # energy  -16.74193545 # occ.  2.00000000
 
ion      s      p      d    tot
    1  0.258  0.024  0.001  0.283
    2  0.258  0.024  0.001  0.283
tot    0.516  0.048  0.003  0.566
 
band     2 # energy   -9.45479975 # occ.  2.00000000
 
ion      s      p      d    tot
    1  0.270  0.035  0.006  0.312
    2  0.270  0.035  0.006  0.312
tot    0.541  0.070  0.012  0.623
 
band     3 # energy   -6.78926422 # occ.  2.00000000
 
ion      s      p      d    tot
    1  0.014  0.230  0.021  0.265
    2  0.014  0.230  0.021  0.265
tot    0.027  0.461  0.041  0.530
 
band     4 # energy   -4.60121416 # occ.  2.00000000
 
ion      s      p      d    tot
    1  0.000  0.289  0.027  0.317
    2  0.000  0.289  0.027  0.317
tot    0.000  0.579  0.054  0.633
 
band     5 # energy   -3.44204357 # occ.  2.00000000
 
ion      s      p      d    tot
    1  0.014  0.226  0.003  0.243
    2  0.014  0.226  0.003  0.243
tot    0.028  0.451  0.007  0.486
 
band     6 # energy   -0.86394502 # occ.  0.00000000
 
ion      s      p      d    tot
    1  0.067  0.164  0.042  0.272
    2  0.067  0.164  0.042  0.272
tot    0.133  0.327  0.084  0.544
 
band     7 # energy    1.77700656 # occ.  0.00000000
 
ion      s      p      d    tot
    1  0.000  0.316  0.027  0.343
    2  0.000  0.316  0.027  0.343
tot    0.000  0.632  0.054  0.685
 
band     8 # energy    2.04082606 # occ.  0.00000000
 
ion      s      p      d    tot
    1  0.042  0.139  0.056  0.237
    2  0.042  0.139  0.056  0.237
tot    0.083  0.279  0.111  0.473
 
band     9 # energy    2.82373863 # occ.  0.00000000
 
ion      s      p      d    tot
    1  0.012  0.003  0.017  0.032
    2  0.012  0.003  0.017  0.032
tot    0.024  0.006  0.035  0.064
 
band    10 # energy    3.35285273 # occ.  0.00000000
 
ion      s      p      d    tot
    1  0.004  0.043  0.004  0.051
    2  0.004  0.043  0.004  0.051
tot    0.007  0.087  0.008  0.102
 
band    11 # energy    4.46975579 # occ.  0.00000000
 
ion      s      p      d    tot
    1  0.014  0.080  0.016  0.111
    2  0.014  0.080  0.016  0.111
tot    0.028  0.161  0.032  0.222
 
band    12 # energy    5.21190970 # occ.  0.00000000
 
ion      s      p      d    tot
    1  0.022  0.022  0.025  0.069
    2  0.022  0.022  0.025  0.069
tot    0.044  0.044  0.050  0.138
 
band    13 # energy    5.39668577 # occ.  0.00000000
 
ion      s      p      d    tot
    1  0.017  0.051  0.101  0.169
    2  0.017  0.051  0.101  0.169
tot    0.033  0.102  0.202  0.337
 
band    14 # energy    6.23512697 # occ.  0.00000000
 
ion      s      p      d    tot
    1  0.018  0.045  0.121  0.183
    2  0.018  0.045  0.121  0.183
tot    0.035  0.090  0.242  0.366
 
band    15 # energy    6.45573927 # occ.  0.00000000
 
ion      s      p      d    tot
    1  0.000  0.003  0.218  0.221
    2  0.000  0.003  0.218  0.221
tot    0.000  0.007  0.436  0.443
 
band    16 # energy    8.04519393 # occ.  0.00000000
 
ion      s      p      d    tot
    1  0.012  0.052  0.021  0.085
    2  0.012  0.052  0.021  0.085
tot    0.023  0.104  0.042  0.169
 

 k-point     5 :    0.28571429 0.00000000 0.00000000     weight = 0.03061224

band     1 # energy  -16.18890160 # occ.  2.00000000
 
ion      s      p      d    tot
    1  0.257  0.029  0.002  0.288
    2  0.257  0.029  0.002  0.288
tot    0.513  0.059  0.004  0.576
 
band     2 # energy   -9.79434788 # occ.  2.00000000
 
ion      s      p      d    tot
    1  0.285  0.046  0.011  0.342
    2  0.285  0.046  0.011  0.342
tot    0.571  0.091  0.022  0.684
 
band     3 # energy   -7.45613851 # occ.  2.00000000
 
ion      s      p      d    tot
    1  0.011  0.205  0.011  0.227
    2  0.011  0.205  0.011  0.227
tot    0.023  0.410  0.021  0.454
 
band     4 # energy   -5.03493150 # occ.  2.00000000
 
ion      s      p      d    tot
    1  0.000  0.286  0.024  0.309
    2  0.000  0.286  0.024  0.309
tot    0.000  0.571  0.047  0.619
 
band     5 # energy   -3.44119133 # occ.  2.00000000
 
ion      s      p      d    tot
    1  0.031  0.236  0.002  0.268
    2  0.031  0.236  0.002  0.268
tot    0.061  0.471  0.004  0.536
 
band     6 # energy   -1.31900106 # occ.  0.00000000
 
ion      s      p      d    tot
    1  0.065  0.140  0.044  0.249
    2  0.065  0.140  0.044  0.249
tot    0.131  0.280  0.089  0.499
 
band     7 # energy    1.23047878 # occ.  0.00000000
 
ion      s      p      d    tot
    1  0.019  0.108  0.074  0.200
    2  0.019  0.108  0.074  0.200
tot    0.038  0.215  0.147  0.401
 
band     8 # energy    2.00257047 # occ.  0.00000000
 
ion      s      p      d    tot
    1  0.000  0.311  0.026  0.337
    2  0.000  0.311  0.026  0.337
tot    0.000  0.623  0.051  0.674
 
band     9 # energy    3.46276558 # occ.  0.00000000
 
ion      s      p      d    tot
    1  0.014  0.007  0.017  0.037
    2  0.014  0.007  0.017  0.037
tot    0.028  0.013  0.034  0.075
 
band    10 # energy    3.87128822 # occ.  0.00000000
 
ion      s      p      d    tot
    1  0.002  0.050  0.010  0.063
    2  0.002  0.050  0.010  0.063
tot    0.005  0.100  0.021  0.126
 
band    11 # energy    4.72570393 # occ.  0.00000000
 
ion      s      p      d    tot
    1  0.004  0.067  0.044  0.116
    2  0.004  0.067  0.044  0.116
tot    0.009  0.134  0.089  0.232
 
band    12 # energy    5.68958208 # occ.  0.00000000
 
ion      s      p      d    tot
    1  0.003  0.026  0.039  0.068
    2  0.003  0.026  0.039  0.068
tot    0.006  0.052  0.077  0.136
 
band    13 # energy    6.05858704 # occ.  0.00000000
 
ion      s      p      d    tot
    1  0.007  0.013  0.021  0.042
    2  0.007  0.013  0.021  0.042
tot    0.014  0.027  0.042  0.084
 
band    14 # energy    6.84545693 # occ.  0.00000000
 
ion      s      p      d    tot
    1  0.044  0.120  0.128  0.293
    2  0.044  0.120  0.128  0.293
tot    0.088  0.241  0.256  0.585
 
band    15 # energy    7.26899270 # occ.  0.00000000
 
ion      s      p      d    tot
    1  0.000  0.006  0.229  0.235
    2  0.000  0.006  0.229  0.235
tot    0.000  0.012  0.458  0.471
 
band    16 # energy    8.45510105 # occ.  0.00000000
 
ion      s      p      d    tot
    1  0.027  0.048  0.025  0.100
    2  0.027  0.048  0.025  0.100
tot    0.054  0.095  0.051  0.200
 

 k-point     6 :    0.35714286 0.00000000 0.00000000     weight = 0.03061224

band     1 # energy  -15.50979534 # occ.  2.00000000
 
ion      s      p      d    tot
    1  0.257  0.035  0.003  0.295
    2  0.257  0.035  0.003  0.295
tot    0.514  0.070  0.007  0.591
 
band     2 # energy  -10.75522754 # occ.  2.00000000
 
ion      s      p      d    tot
    1  0.246  0.072  0.012  0.330
    2  0.246  0.072  0.012  0.330
tot    0.492  0.144  0.023  0.659
 
band     3 # energy   -7.28040932 # occ.  2.00000000
 
ion      s      p      d    tot
    1  0.061  0.170  0.005  0.236
    2  0.061  0.170  0.005  0.236
tot    0.123  0.340  0.010  0.473
 
band     4 # energy   -5.36600273 # occ.  2.00000000
 
ion      s      p      d    tot
    1  0.000  0.283  0.021  0.304
    2  0.000  0.283  0.021  0.304
tot    0.000  0.567  0.042  0.609
 
band     5 # energy   -3.79226011 # occ.  2.00000000
 
ion      s      p      d    tot
    1  0.051  0.226  0.002  0.279
    2  0.051  0.226  0.002  0.279
tot    0.102  0.453  0.003  0.558
 
band     6 # energy   -1.44798308 # occ.  0.00000000
 
ion      s      p      d    tot
    1  0.054  0.130  0.052  0.237
    2  0.054  0.130  0.052  0.237
tot    0.109  0.261  0.105  0.474
 
band     7 # energy    0.56022208 # occ.  0.00000000
 
ion      s      p      d    tot
    1  0.010  0.113  0.068  0.191
    2  0.010  0.113  0.068  0.191
tot    0.021  0.225  0.137  0.383
 
band     8 # energy    2.02456696 # occ.  0.00000000
 
ion      s      p      d    tot
    1  0.000  0.296  0.029  0.325
    2  0.000  0.296  0.029  0.325
tot    0.000  0.593  0.058  0.651
 
band     9 # energy    3.79474498 # occ.  0.00000000
 
ion      s      p      d    tot
    1  0.005  0.078  0.076  0.159
    2  0.005  0.078  0.076  0.159
tot    0.009  0.156  0.153  0.318
 
band    10 # energy    4.31831077 # occ.  0.00000000
 
ion      s      p      d    tot
    1  0.013  0.007  0.012  0.032
    2  0.013  0.007  0.012  0.032
tot    0.025  0.015  0.024  0.064
 
band    11 # energy    5.03070186 # occ.  0.00000000
 
ion      s      p      d    tot
    1  0.000  0.014  0.017  0.031
    2  0.000  0.014  0.017  0.031
tot    0.000  0.028  0.035  0.063
 
band    12 # energy    6.29108733 # occ.  0.00000000
 
ion      s      p      d    tot
    1  0.003  0.025  0.020  0.047
    2  0.003  0.025  0.020  0.047
tot    0.006  0.049  0.040  0.095
 
band    13 # energy    6.81061560 # occ.  0.00000000
 
ion      s      p      d    tot
    1  0.010  0.005  0.014  0.029
    2  0.010  0.005  0.014  0.029
tot    0.020  0.009  0.029  0.058
 
band    14 # energy    7.90161133 # occ.  0.00000000
 
ion      s      p      d    tot
    1  0.010  0.072  0.071  0.153
    2  0.010  0.072  0.071  0.153
tot    0.019  0.145  0.142  0.306
 
band    15 # energy    8.51888787 # occ.  0.00000000
 
ion      s      p      d    tot
    1  0.000  0.016  0.243  0.260
    2  0.000  0.016  0.243  0.260
tot    0.000  0.033  0.486  0.519
 
band    16 # energy    8.90352055 # occ.  0.00000000
 
ion      s      p      d    tot
    1  0.054  0.111  0.063  0.229
    2  0.054  0.111  0.063  0.229
tot    0.108  0.222  0.127  0.457
 

 k-point     7 :    0.42857143-0.00000000 0.00000000     weight = 0.03061224

band     1 # energy  -14.78247329 # occ.  2.00000000
 
ion      s      p      d    tot
    1  0.263  0.038  0.005  0.306
    2  0.263  0.038  0.005  0.306
tot    0.526  0.076  0.010  0.613
 
band     2 # energy  -11.78775105 # occ.  2.00000000
 
ion      s      p      d    tot
    1  0.219  0.081  0.009  0.309
    2  0.219  0.081  0.009  0.309
tot    0.438  0.162  0.018  0.619
 
band     3 # energy   -6.79218081 # occ.  2.00000000
 
ion      s      p      d    tot
    1  0.097  0.159  0.003  0.258
    2  0.097  0.159  0.003  0.258
tot    0.193  0.317  0.005  0.516
 
band     4 # energy   -5.57128353 # occ.  2.00000000
 
ion      s      p      d    tot
    1  0.000  0.282  0.019  0.301
    2  0.000  0.282  0.019  0.301
tot    0.000  0.565  0.038  0.603
 
band     5 # energy   -4.37420767 # occ.  2.00000000
 
ion      s      p      d    tot
    1  0.054  0.209  0.003  0.266
    2  0.054  0.209  0.003  0.266
tot    0.109  0.418  0.006  0.532
 
band     6 # energy   -1.39435255 # occ.  0.00000000
 
ion      s      p      d    tot
    1  0.052  0.117  0.067  0.236
    2  0.052  0.117  0.067  0.236
tot    0.104  0.235  0.134  0.472
 
band     7 # energy    0.23896000 # occ.  0.00000000
 
ion      s      p      d    tot
    1  0.004  0.148  0.051  0.203
    2  0.004  0.148  0.051  0.203
tot    0.008  0.296  0.103  0.406
 
band     8 # energy    1.98263518 # occ.  0.00000000
 
ion      s      p      d    tot
    1  0.000  0.285  0.032  0.317
    2  0.000  0.285  0.032  0.317
tot    0.000  0.570  0.064  0.635
 
band     9 # energy    3.29945980 # occ.  0.00000000
 
ion      s      p      d    tot
    1  0.002  0.050  0.092  0.144
    2  0.002  0.050  0.092  0.144
tot    0.004  0.100  0.184  0.287
 
band    10 # energy    5.31043492 # occ.  0.00000000
 
ion      s      p      d    tot
    1  0.013  0.007  0.015  0.036
    2  0.013  0.007  0.015  0.036
tot    0.027  0.015  0.031  0.072
 
band    11 # energy    5.91218686 # occ.  0.00000000
 
ion      s      p      d    tot
    1  0.001  0.016  0.009  0.026
    2  0.001  0.016  0.009  0.026
tot    0.003  0.033  0.017  0.053
 
band    12 # energy    6.95499910 # occ.  0.00000000
 
ion      s      p      d    tot
    1  0.012  0.021  0.023  0.057
    2  0.012  0.021  0.023  0.057
tot    0.025  0.041  0.047  0.113
 
band    13 # energy    7.69431684 # occ.  0.00000000
 
ion      s      p      d    tot
    1  0.011  0.013  0.027  0.051
    2  0.011  0.013  0.027  0.051
tot    0.022  0.027  0.054  0.102
 
band    14 # energy    7.84582295 # occ.  0.00000000
 
ion      s      p      d    tot
    1  0.011  0.012  0.021  0.043
    2  0.011  0.012  0.021  0.043
tot    0.022  0.023  0.041  0.087
 
band    15 # energy    8.11022071 # occ.  0.00000000
 
ion      s      p      d    tot
    1  0.000  0.039  0.011  0.051
    2  0.000  0.039  0.011  0.051
tot    0.000  0.079  0.022  0.101
 
band    16 # energy    8.80774677 # occ.  0.00000000
 
ion      s      p      d    tot
    1  0.004  0.005  0.017  0.025
    2  0.004  0.005  0.017  0.025
tot    0.007  0.010  0.033  0.051
 

 k-point     8 :    0.50000000-0.00000000 0.00000000     weight = 0.01530612

band     1 # energy  -14.36203903 # occ.  2.00000000
 
ion      s      p      d    tot
    1  0.273  0.037  0.007  0.316
    2  0.273  0.037  0.007  0.316
tot    0.545  0.074  0.013  0.632
 
band     2 # energy  -12.32334720 # occ.  2.00000000
 
ion      s      p      d    tot
    1  0.204  0.085  0.007  0.296
    2  0.204  0.085  0.007  0.296
tot    0.407  0.170  0.015  0.592
 
band     3 # energy   -6.49151422 # occ.  2.00000000
 
ion      s      p      d    tot
    1  0.115  0.156  0.001  0.273
    2  0.115  0.156  0.001  0.273
tot    0.230  0.313  0.003  0.545
 
band     4 # energy   -5.64082940 # occ.  2.00000000
 
ion      s      p      d    tot
    1  0.000  0.282  0.018  0.301
    2  0.000  0.282  0.018  0.301
tot    0.000  0.564  0.037  0.601
 
band     5 # energy   -4.71538406 # occ.  2.00000000
 
ion      s      p      d    tot
    1  0.046  0.202  0.004  0.252
    2  0.046  0.202  0.004  0.252
tot    0.092  0.404  0.009  0.504
 
band     6 # energy   -1.36673663 # occ.  0.00000000
 
ion      s      p      d    tot
    1  0.053  0.107  0.075  0.235
    2  0.053  0.107  0.075  0.235
tot    0.106  0.213  0.150  0.470
 
band     7 # energy    0.17801475 # occ.  0.00000000
 
ion      s      p      d    tot
    1  0.001  0.173  0.041  0.215
    2  0.001  0.173  0.041  0.215
tot    0.002  0.346  0.082  0.430
 
band     8 # energy    1.96032403 # occ.  0.00000000
 
ion      s      p      d    tot
    1  0.000  0.281  0.033  0.315
    2  0.000  0.281  0.033  0.315
tot    0.000  0.563  0.067  0.629
 
band     9 # energy    3.06857178 # occ.  0.00000000
 
ion      s      p      d    tot
    1  0.001  0.034  0.095  0.129
    2  0.001  0.034  0.095  0.129
tot    0.001  0.067  0.190  0.259
 
band    10 # energy    6.39090692 # occ.  0.00000000
 
ion      s      p      d    tot
    1  0.023  0.014  0.023  0.059
    2  0.023  0.014  0.023  0.059
tot    0.046  0.027  0.045  0.118
 
band    11 # energy    6.40303184 # occ.  0.00000000
 
ion      s      p      d    tot
    1  0.012  0.006  0.023  0.041
    2  0.012  0.006  0.023  0.041
tot    0.024  0.013  0.046  0.083
 
band    12 # energy    6.85109915 # occ.  0.00000000
 
ion      s      p      d    tot
    1  0.000  0.031  0.006  0.037
    2  0.000  0.031  0.006  0.037
tot    0.000  0.063  0.012  0.074
 
band    13 # energy    7.21834185 # occ.  0.00000000
 
ion      s      p      d    tot
    1  0.000  0.015  0.007  0.022
    2  0.000  0.015  0.007  0.022
tot    0.000  0.031  0.014  0.044
 
band    14 # energy    7.71145300 # occ.  0.00000000
 
ion      s      p      d    tot
    1  0.008  0.007  0.021  0.037
    2  0.008  0.007  0.021  0.037
tot    0.017  0.015  0.043  0.074
 
band    15 # energy    8.48809854 # occ.  0.00000000
 
ion      s      p      d    tot
    1  0.003  0.041  0.014  0.058
    2  0.003  0.041  0.014  0.058
tot    0.005  0.083  0.028  0.116
 
band    16 # energy    8.94303762 # occ.  0.00000000
 
ion      s      p      d    tot
    1  0.006  0.003  0.020  0.029
    2  0.006  0.003  0.020  0.029
tot    0.012  0.007  0.040  0.058
 

 k-point     9 :    0.07142857 0.07142857 0.00000000     weight = 0.03061224

band     1 # energy  -17.22701712 # occ.  2.00000000
 
ion      s      p      d    tot
    1  0.260  0.019  0.001  0.279
    2  0.260  0.019  0.001  0.279
tot    0.519  0.037  0.001  0.558
 
band     2 # energy   -9.60511090 # occ.  2.00000000
 
ion      s      p      d    tot
    1  0.227  0.048  0.004  0.279
    2  0.227  0.048  0.004  0.279
tot    0.454  0.095  0.008  0.557
 
band     3 # energy   -5.08187862 # occ.  2.00000000
 
ion      s      p      d    tot
    1  0.034  0.252  0.029  0.315
    2  0.034  0.252  0.029  0.315
tot    0.068  0.504  0.059  0.630
 
band     4 # energy   -4.08411392 # occ.  2.00000000
 
ion      s      p      d    tot
    1  0.001  0.292  0.031  0.324
    2  0.001  0.292  0.031  0.324
tot    0.002  0.583  0.063  0.649
 
band     5 # energy   -3.62892067 # occ.  2.00000000
 
ion      s      p      d    tot
    1  0.007  0.212  0.004  0.223
    2  0.007  0.212  0.004  0.223
tot    0.014  0.424  0.008  0.446
 
band     6 # energy    0.30727991 # occ.  0.00000000
 
ion      s      p      d    tot
    1  0.020  0.243  0.040  0.303
    2  0.020  0.243  0.040  0.303
tot    0.040  0.485  0.080  0.605
 
band     7 # energy    0.65977235 # occ.  0.00000000
 
ion      s      p      d    tot
    1  0.058  0.223  0.042  0.323
    2  0.058  0.223  0.042  0.323
tot    0.116  0.446  0.085  0.647
 
band     8 # energy    1.97716394 # occ.  0.00000000
 
ion      s      p      d    tot
    1  0.099  0.191  0.013  0.303
    2  0.099  0.191  0.013  0.303
tot    0.198  0.382  0.026  0.606
 
band     9 # energy    2.37507812 # occ.  0.00000000
 
ion      s      p      d    tot
    1  0.005  0.053  0.038  0.096
    2  0.005  0.053  0.038  0.096
tot    0.009  0.107  0.076  0.192
 
band    10 # energy    2.70673333 # occ.  0.00000000
 
ion      s      p      d    tot
    1  0.003  0.020  0.003  0.026
    2  0.003  0.020  0.003  0.026
tot    0.005  0.039  0.007  0.051
 
band    11 # energy    3.95328999 # occ.  0.00000000
 
ion      s      p      d    tot
    1  0.005  0.026  0.017  0.049
    2  0.005  0.026  0.017  0.049
tot    0.011  0.053  0.034  0.098
 
band    12 # energy    4.71500378 # occ.  0.00000000
 
ion      s      p      d    tot
    1  0.007  0.000  0.024  0.031
    2  0.007  0.000  0.024  0.031
tot    0.014  0.001  0.048  0.063
 
band    13 # energy    5.19334538 # occ.  0.00000000
 
ion      s      p      d    tot
    1  0.001  0.037  0.127  0.164
    2  0.001  0.037  0.127  0.164
tot    0.001  0.073  0.254  0.329
 
band    14 # energy    6.06315039 # occ.  0.00000000
 
ion      s      p      d    tot
    1  0.006  0.019  0.196  0.222
    2  0.006  0.019  0.196  0.222
tot    0.013  0.039  0.392  0.443
 
band    15 # energy    7.36938563 # occ.  0.00000000
 
ion      s      p      d    tot
    1  0.017  0.048  0.018  0.083
    2  0.017  0.048  0.018  0.083
tot    0.034  0.096  0.036  0.165
 
band    16 # energy    7.39677109 # occ.  0.00000000
 
ion      s      p      d    tot
    1  0.001  0.079  0.118  0.198
    2  0.001  0.079  0.118  0.198
tot    0.003  0.157  0.236  0.396
 

 k-point    10 :    0.14285714 0.07142857 0.00000000     weight = 0.06122449

band     1 # energy  -16.90254112 # occ.  2.00000000
 
ion      s      p      d    tot
    1  0.258  0.022  0.001  0.282
    2  0.258  0.022  0.001  0.282
tot    0.517  0.044  0.002  0.563
 
band     2 # energy   -9.46805244 # occ.  2.00000000
 
ion      s      p      d    tot
    1  0.255  0.039  0.005  0.299
    2  0.255  0.039  0.005  0.299
tot    0.510  0.078  0.010  0.598
 
band     3 # energy   -6.27143334 # occ.  2.00000000
 
ion      s      p      d    tot
    1  0.025  0.236  0.024  0.285
    2  0.025  0.236  0.024  0.285
tot    0.051  0.471  0.048  0.570
 
band     4 # energy   -4.68472250 # occ.  2.00000000
 
ion      s      p      d    tot
    1  0.004  0.276  0.028  0.309
    2  0.004  0.276  0.028  0.309
tot    0.007  0.553  0.057  0.617
 
band     5 # energy   -3.48623782 # occ.  2.00000000
 
ion      s      p      d    tot
    1  0.011  0.221  0.004  0.236
    2  0.011  0.221  0.004  0.236
tot    0.021  0.442  0.008  0.471
 
band     6 # energy   -0.14789103 # occ.  0.00000000
 
ion      s      p      d    tot
    1  0.048  0.207  0.038  0.293
    2  0.048  0.207  0.038  0.293
tot    0.097  0.413  0.076  0.586
 
band     7 # energy    1.15542373 # occ.  0.00000000
 
ion      s      p      d    tot
    1  0.031  0.263  0.034  0.328
    2  0.031  0.263  0.034  0.328
tot    0.061  0.526  0.068  0.655
 
band     8 # energy    2.47642948 # occ.  0.00000000
 
ion      s      p      d    tot
    1  0.057  0.157  0.018  0.231
    2  0.057  0.157  0.018  0.231
tot    0.113  0.313  0.036  0.462
 
band     9 # energy    2.70715512 # occ.  0.00000000
 
ion      s      p      d    tot