<?xml version="1.0" encoding="ISO-8859-1"?>
<modeling>
 <generator>
  <i name="program" type="string">vasp </i>
  <i name="version" type="string">6.4.2  </i>
  <i name="subversion" type="string">20Jul23 (build Nov 14 2023 12:59:38) complex                          parallel </i>
  <i name="platform" type="string">LinuxIFC </i>
  <i name="date" type="string">2023 12 29 </i>
  <i name="time" type="string">16:08:41 </i>
 </generator>
 <incar>
  <i type="string" name="PREC">Accurate</i>
  <i type="string" name="ALGO">Normal</i>
  <i type="logical" name="ADDGRID"> T  </i>
  <i type="int" name="ISPIN">     1</i>
  <i name="AMIX">      0.10000000</i>
  <i name="BMIX">      0.00010000</i>
  <i type="int" name="ICHARG">     2</i>
  <i type="int" name="NELM">   200</i>
  <i type="int" name="NELMDL">   -12</i>
  <i type="int" name="NELMIN">     6</i>
  <i type="int" name="IBRION">     8</i>
  <i name="EDIFF">      0.00000100</i>
  <i name="EDIFFG">     -0.01000000</i>
  <i type="int" name="NSW">     1</i>
  <i name="ENCUT">    286.92000000</i>
  <i name="POTIM">      0.01000000</i>
  <i type="int" name="NEDOS">  6001</i>
  <i type="logical" name="LREAL"> F  </i>
  <i type="logical" name="LPLANE"> T  </i>
  <i type="int" name="ISMEAR">     0</i>
  <i name="SIGMA">      0.01000000</i>
  <i type="int" name="NWRITE">     3</i>
  <i type="logical" name="LWAVE"> F  </i>
  <i type="logical" name="LCHARG"> F  </i>
  <i type="logical" name="LVTOT"> F  </i>
  <i type="int" name="LORBIT">    10</i>
  <i type="logical" name="LELF"> F  </i>
  <i type="logical" name="LASPH"> T  </i>
  <i type="logical" name="LEPSILON"> F  </i>
  <i type="int" name="IVDW">     0</i>
 </incar>
 <primitive_cell>
  <structure name="primitive_cell" >
   <crystal>
    <varray name="basis" >
     <v>       3.28234349       0.00000000       0.00000000 </v>
     <v>      -1.64117175       2.84259285       0.00000000 </v>
     <v>       0.00000000       0.00000000      16.00000000 </v>
    </varray>
    <i name="volume">    149.28585836 </i>
    <varray name="rec_basis" >
     <v>       0.30466038       0.17589575       0.00000000 </v>
     <v>       0.00000000       0.35179150       0.00000000 </v>
     <v>       0.00000000       0.00000000       0.06250000 </v>
    </varray>
   </crystal>
   <varray name="positions" >
    <v>       0.66666667       0.33333333       0.46118284 </v>
    <v>       0.33333333       0.66666667       0.53881716 </v>
   </varray>
  </structure>
  <varray name="primitive_index" >
   <v type="int" >        1 </v>
   <v type="int" >        2 </v>
  </varray>
 </primitive_cell>
 <kpoints>
  <generation param="Gamma">
   <v type="int" name="divisions">      14       14        1 </v>
   <v name="usershift">      0.00000000       0.00000000       0.00000000 </v>
   <v name="genvec1">      0.07142857       0.00000000       0.00000000 </v>
   <v name="genvec2">      0.00000000       0.07142857       0.00000000 </v>
   <v name="genvec3">      0.00000000       0.00000000       1.00000000 </v>
   <v name="shift">      0.00000000       0.00000000       0.00000000 </v>
  </generation>
  <varray name="kpointlist" >
   <v>       0.00000000       0.00000000       0.00000000 </v>
   <v>       0.07142857       0.00000000       0.00000000 </v>
   <v>       0.14285714       0.00000000       0.00000000 </v>
   <v>       0.21428571      -0.00000000       0.00000000 </v>
   <v>       0.28571429       0.00000000       0.00000000 </v>
   <v>       0.35714286       0.00000000       0.00000000 </v>
   <v>       0.42857143      -0.00000000       0.00000000 </v>
   <v>       0.50000000      -0.00000000       0.00000000 </v>
   <v>       0.07142857       0.07142857       0.00000000 </v>
   <v>       0.14285714       0.07142857       0.00000000 </v>
   <v>       0.21428571       0.07142857       0.00000000 </v>
   <v>       0.28571429       0.07142857       0.00000000 </v>
   <v>       0.35714286       0.07142857       0.00000000 </v>
   <v>       0.42857143       0.07142857       0.00000000 </v>
   <v>       0.14285714       0.14285714       0.00000000 </v>
   <v>       0.21428571       0.14285714       0.00000000 </v>
   <v>       0.28571429       0.14285714       0.00000000 </v>
   <v>       0.35714286       0.14285714       0.00000000 </v>
   <v>       0.42857143       0.14285714       0.00000000 </v>
   <v>       0.21428571       0.21428571       0.00000000 </v>
   <v>       0.28571429       0.21428571       0.00000000 </v>
   <v>       0.35714286       0.21428571       0.00000000 </v>
   <v>       0.28571429       0.28571429       0.00000000 </v>
   <v>       0.35714286       0.28571429       0.00000000 </v>
  </varray>
  <varray name="weights" >
   <v>       0.00510204 </v>
   <v>       0.03061224 </v>
   <v>       0.03061224 </v>
   <v>       0.03061224 </v>
   <v>       0.03061224 </v>
   <v>       0.03061224 </v>
   <v>       0.03061224 </v>
   <v>       0.01530612 </v>
   <v>       0.03061224 </v>
   <v>       0.06122449 </v>
   <v>       0.06122449 </v>
   <v>       0.06122449 </v>
   <v>       0.06122449 </v>
   <v>       0.06122449 </v>
   <v>       0.03061224 </v>
   <v>       0.06122449 </v>
   <v>       0.06122449 </v>
   <v>       0.06122449 </v>
   <v>       0.03061224 </v>
   <v>       0.03061224 </v>
   <v>       0.06122449 </v>
   <v>       0.06122449 </v>
   <v>       0.03061224 </v>
   <v>       0.03061224 </v>
  </varray>
 </kpoints>
 <parameters>
  <separator name="general" >
   <i type="string" name="SYSTEM">unknown system</i>
   <i type="logical" name="LCOMPAT"> F  </i>
  </separator>
  <separator name="electronic" >
   <i type="string" name="PREC">accura</i>
   <i name="ENMAX">    286.92000000</i>
   <i name="ENAUG">    499.73200000</i>
   <i name="EDIFF">      0.00000100</i>
   <i type="int" name="IALGO">    38</i>
   <i type="int" name="IWAVPR">    11</i>
   <i type="int" name="NBANDS">    16</i>
   <i type="int" name="NBANDSLOW">    -1</i>
   <i type="int" name="NBANDSHIGH">    -1</i>
   <i name="NELECT">     10.00000000</i>
   <i type="int" name="TURBO">     0</i>
   <i type="int" name="IRESTART">     0</i>
   <i type="int" name="NREBOOT">     0</i>
   <i type="int" name="NMIN">     0</i>
   <i name="EREF">      0.00000000</i>
   <separator name="electronic smearing" >
    <i type="int" name="ISMEAR">     0</i>
    <i name="SIGMA">      0.01000000</i>
    <i name="KSPACING">      0.50000000</i>
    <i type="logical" name="KGAMMA"> T  </i>
    <i type="logical" name="KBLOWUP"> T  </i>
   </separator>
   <separator name="electronic projectors" >
    <i type="logical" name="LREAL"> F  </i>
    <v name="ROPT">      0.00000000</v>
    <i type="int" name="LMAXPAW">  -100</i>
    <i type="int" name="LMAXMIX">     2</i>
    <i type="logical" name="NLSPLINE"> F  </i>
   </separator>
   <separator name="electronic startup" >
    <i type="int" name="ISTART">     0</i>
    <i type="int" name="ICHARG">     2</i>
    <i type="int" name="INIWAV">     1</i>
   </separator>
   <separator name="electronic spin" >
    <i type="int" name="ISPIN">     1</i>
    <i type="logical" name="LNONCOLLINEAR"> F  </i>
    <v name="MAGMOM">      1.00000000      1.00000000</v>
    <i name="NUPDOWN">     -1.00000000</i>
    <i type="logical" name="LSORBIT"> F  </i>
    <v name="SAXIS">      0.00000000      0.00000000      1.00000000</v>
    <i type="logical" name="LSPIRAL"> F  </i>
    <v name="QSPIRAL">      0.00000000      0.00000000      0.00000000</v>
    <i type="logical" name="LZEROZ"> F  </i>
   </separator>
   <separator name="electronic exchange-correlation" >
    <i type="logical" name="LASPH"> T  </i>
    <i type="logical" name="LMETAGGA"> F  </i>
   </separator>
   <separator name="electronic convergence" >
    <i type="int" name="NELM">   200</i>
    <i type="int" name="NELMDL">   -12</i>
    <i type="int" name="NELMIN">     6</i>
    <i name="ENINI">    286.92000000</i>
    <separator name="electronic convergence detail" >
     <i type="logical" name="LDIAG"> T  </i>
     <i type="logical" name="LSUBROT"> F  </i>
     <i name="WEIMIN">      0.00100000</i>
     <i name="EBREAK">      0.00000002</i>
     <i name="DEPER">      0.30000000</i>
     <i type="int" name="NRMM">     4</i>
     <i name="TIME">      0.40000000</i>
    </separator>
   </separator>
   <separator name="electronic mixer" >
    <i name="AMIX">      0.10000000</i>
    <i name="BMIX">      0.00010000</i>
    <i name="AMIN">      0.10000000</i>
    <i name="AMIX_MAG">      0.40000000</i>
    <i name="BMIX_MAG">      0.00010000</i>
    <separator name="electronic mixer details" >
     <i type="int" name="IMIX">     4</i>
     <i type="logical" name="MIXFIRST"> F  </i>
     <i type="int" name="MAXMIX">   -45</i>
     <i name="WC">    100.00000000</i>
     <i type="int" name="INIMIX">     1</i>
     <i type="int" name="MIXPRE">     1</i>
     <i type="int" name="MREMOVE">     5</i>
    </separator>
   </separator>
   <separator name="electronic dipolcorrection" >
    <i type="logical" name="LDIPOL"> F  </i>
    <i type="logical" name="LMONO"> F  </i>
    <i type="int" name="IDIPOL">     0</i>
    <i name="EPSILON">      1.00000000</i>
    <v name="DIPOL">   -100.00000000   -100.00000000   -100.00000000</v>
    <i name="EFIELD">      0.00000000</i>
   </separator>
  </separator>
  <separator name="grids" >
   <i type="int" name="NGX">    18</i>
   <i type="int" name="NGY">    18</i>
   <i type="int" name="NGZ">    90</i>
   <i type="int" name="NGXF">    36</i>
   <i type="int" name="NGYF">    36</i>
   <i type="int" name="NGZF">   180</i>
   <i type="logical" name="ADDGRID"> T  </i>
  </separator>
  <separator name="ionic" >
   <i type="int" name="NSW">     1</i>
   <i type="int" name="IBRION">     8</i>
   <i type="int" name="MDALGO">     0</i>
   <i type="int" name="ISIF">     2</i>
   <i name="PSTRESS">      0.00000000</i>
   <i name="EDIFFG">     -0.01000000</i>
   <i type="int" name="NFREE">     0</i>
   <i name="POTIM">      0.01000000</i>
   <i name="SMASS">     -3.00000000</i>
   <i name="SCALEE">      1.00000000</i>
  </separator>
  <separator name="ionic md" >
   <i name="TEBEG">      0.00010000</i>
   <i name="TEEND">      0.00010000</i>
   <i type="int" name="NBLOCK">     1</i>
   <i type="int" name="KBLOCK">     1</i>
   <i type="int" name="NPACO">   256</i>
   <i name="APACO">     10.00000000</i>
  </separator>
  <separator name="symmetry" >
   <i type="int" name="ISYM">     2</i>
   <i name="SYMPREC">      0.00001000</i>
  </separator>
  <separator name="dos" >
   <i type="int" name="LORBIT">    10</i>
   <v name="RWIGS">     -1.00000000</v>
   <i type="int" name="NEDOS">  6001</i>
   <i name="EMIN">     10.00000000</i>
   <i name="EMAX">    -10.00000000</i>
   <i name="EFERMI">      0.00000000</i>
  </separator>
  <separator name="writing" >
   <i type="int" name="NWRITE">     3</i>
   <i type="logical" name="LWAVE"> F  </i>
   <i type="logical" name="LDOWNSAMPLE"> F  </i>
   <i type="logical" name="LCHARG"> F  </i>
   <i type="logical" name="LPARD"> F  </i>
   <i type="logical" name="LVTOT"> F  </i>
   <i type="logical" name="LVHAR"> F  </i>
   <i type="logical" name="LELF"> F  </i>
   <i type="logical" name="LOPTICS"> F  </i>
   <v name="STM">      0.00000000      0.00000000      0.00000000      0.00000000      0.00000000      0.00000000      0.00000000</v>
  </separator>
  <separator name="performance" >
   <i type="int" name="NPAR">    16</i>
   <i type="int" name="NSIM">     4</i>
   <i type="int" name="NBLK">    -1</i>
   <i type="logical" name="LPLANE"> T  </i>
   <i type="logical" name="LSCALAPACK"> T  </i>
   <i type="logical" name="LSCAAWARE"> F  </i>
   <i type="logical" name="LSCALU"> F  </i>
   <i type="logical" name="LASYNC"> F  </i>
   <i type="logical" name="LORBITALREAL"> F  </i>
  </separator>
  <separator name="miscellaneous" >
   <i type="int" name="IDIOT">     3</i>
   <i type="int" name="PHON_NSTRUCT">    -1</i>
   <i type="logical" name="LMUSIC"> F  </i>
   <v name="POMASS">     30.97400000</v>
   <v name="DARWINR">      0.00000000</v>
   <v name="DARWINV">      1.00000000</v>
   <i type="logical" name="LCORR"> T  </i>
  </separator>
  <i type="logical" name="GGA_COMPAT"> T  </i>
  <i type="logical" name="LBERRY"> F  </i>
  <i type="int" name="ICORELEVEL">     0</i>
  <i type="logical" name="LDAU"> F  </i>
  <i type="int" name="I_CONSTRAINED_M">     0</i>
  <separator name="electronic exchange-correlation" >
   <i type="string" name="GGA">--</i>
   <i type="int" name="VOSKOWN">     0</i>
   <i type="logical" name="LHFCALC"> F  </i>
   <i type="string" name="PRECFOCK"></i>
   <i type="logical" name="LSYMGRAD"> F  </i>
   <i type="logical" name="LHFONE"> F  </i>
   <i type="logical" name="LRHFCALC"> F  </i>
   <i type="logical" name="LTHOMAS"> F  </i>
   <i type="logical" name="LMODELHF"> F  </i>
   <i type="logical" name="LFOCKACE"> F  </i>
   <i name="ENCUT4O">     -1.00000000</i>
   <i type="int" name="EXXOEP">     0</i>
   <i type="int" name="FOURORBIT">     0</i>
   <i name="AEXX">      0.00000000</i>
   <i name="HFALPHA">      0.00000000</i>
   <i name="MCALPHA">      0.00000000</i>
   <i name="ALDAX">      1.00000000</i>
   <i name="AGGAX">      1.00000000</i>
   <i name="ALDAC">      1.00000000</i>
   <i name="AGGAC">      1.00000000</i>
   <i type="int" name="NKREDX">     1</i>
   <i type="int" name="NKREDY">     1</i>
   <i type="int" name="NKREDZ">     1</i>
   <i type="logical" name="SHIFTRED"> F  </i>
   <i type="logical" name="ODDONLY"> F  </i>
   <i type="logical" name="EVENONLY"> F  </i>
   <i type="int" name="LMAXFOCK">     0</i>
   <i type="int" name="NMAXFOCKAE">     0</i>
   <i type="logical" name="LFOCKAEDFT"> F  </i>
   <i name="HFSCREEN">      0.00000000</i>
   <i name="HFSCREENC">      0.00000000</i>
   <i type="int" name="NBANDSGWLOW">     0</i>
  </separator>
  <separator name="vdW DFT" >
   <i type="logical" name="LUSE_VDW"> F  </i>
   <i type="int" name="IVDW_NL">     1</i>
   <i type="logical" name="LSPIN_VDW"> F  </i>
   <i name="Zab_VDW">     -0.84910000</i>
   <i name="PARAM1">      0.12340000</i>
   <i name="PARAM2">      1.00000000</i>
   <i name="PARAM3">      0.00000000</i>
  </separator>
  <separator name="model GW" >
   <i type="int" name="MODEL_GW">     0</i>
   <i name="MODEL_EPS0">     44.78575751</i>
   <i name="MODEL_ALPHA">      1.00000000</i>
  </separator>
  <separator name="linear response parameters" >
   <i type="logical" name="LEPSILON"> F  </i>
   <i type="logical" name="LRPA"> F  </i>
   <i type="logical" name="LNABLA"> F  </i>
   <i type="logical" name="LVEL"> F  </i>
   <i name="CSHIFT">      0.10000000</i>
   <i name="OMEGAMAX">     -1.00000000</i>
   <i name="DEG_THRESHOLD">      0.00200000</i>
   <i name="RTIME">     -0.10000000</i>
   <i name="WPLASMAI">      0.00000000</i>
   <v name="DFIELD">      0.00000000      0.00000000      0.00000000</v>
   <v name="WPLASMA">      0.00000000      0.00000000      0.00000000      0.00000000      0.00000000      0.00000000      0.00000000      0.00000000      0.00000000</v>
  </separator>
  <separator name="orbital magnetization" >
   <i type="logical" name="NUCIND"> F  </i>
   <v name="MAGPOS">      0.00000000      0.00000000      0.00000000</v>
   <i type="logical" name="LNICSALL"> T  </i>
   <i type="logical" name="ORBITALMAG"> F  </i>
   <i type="logical" name="LMAGBLOCH"> F  </i>
   <i type="logical" name="LCHIMAG"> F  </i>
   <i type="logical" name="LGAUGE"> T  </i>
   <i type="int" name="MAGATOM">     0</i>
   <v name="MAGDIPOL">      0.00000000      0.00000000      0.00000000</v>
   <v name="AVECCONST">      0.00000000      0.00000000      0.00000000</v>
  </separator>
  <separator name="response functions" >
   <i type="logical" name="LALL_IN_ONE"> F  </i>
   <i type="int" name="IALL_IN_ONE">    -1</i>
   <i type="int" name="NBANDS_WAVE">    -1</i>
   <i type="logical" name="LFINITE_TEMPERATURE"> F  </i>
   <i type="logical" name="LADDER"> F  </i>
   <i type="logical" name="LRPAFORCE"> F  </i>
   <i type="logical" name="LFXC"> F  </i>
   <i type="logical" name="LHARTREE"> T  </i>
   <i type="int" name="IBSE">     0</i>
   <v type="int" name="KPOINT">    -1     0     0     0</v>
   <i type="logical" name="LTCTC"> F  </i>
   <i type="logical" name="LTCTE"> F  </i>
   <i type="logical" name="LTETE"> F  </i>
   <i type="logical" name="LTRIPLET"> F  </i>
   <i type="logical" name="LFXCEPS"> F  </i>
   <i type="logical" name="LFXHEG"> F  </i>
   <i type="int" name="NATURALO">     2</i>
   <i type="logical" name="LHOLEGF"> F  </i>
   <i type="logical" name="L2ORDER"> F  </i>
   <i type="logical" name="LDMP1"> F  </i>
   <i type="logical" name="LMP2LT"> F  </i>
   <i type="logical" name="LSMP2LT"> F  </i>
   <i type="logical" name="LGWLF"> F  </i>
   <i name="ENCUTGW">     -1.60000002</i>
   <i name="ENCUTGWSOFT">     -1.60000002</i>
   <i name="ENCUTLF">     -1.00000000</i>
   <i type="logical" name="LESF_SPLINES"> F  </i>
   <i type="int" name="LMAXMP2">    -1</i>
   <i name="SCISSOR">      0.00000000</i>
   <i type="int" name="NOMEGA">     0</i>
   <i type="int" name="NOMEGAR">     0</i>
   <i type="int" name="NBANDSGW">    -1</i>
   <i type="int" name="NBANDSO">    -1</i>
   <i type="int" name="NBANDSV">    -1</i>
   <i type="int" name="NELMGW">     1</i>
   <i type="int" name="NELMHF">     1</i>
   <i type="int" name="DIM">     3</i>
   <i type="int" name="IESPILON">     4</i>
   <i type="int" name="ANTIRES">     0</i>
   <i name="OMEGAMAX">    -30.00000000</i>
   <i name="OMEGAMIN">    -30.00000000</i>
   <i name="OMEGATL">   -200.00000000</i>
   <i type="int" name="OMEGAGRID">     0</i>
   <i name="CSHIFT">     -0.10000000</i>
   <i type="logical" name="LSELFENERGY"> F  </i>
   <i type="logical" name="LSPECTRAL"> F  </i>
   <i type="logical" name="LSPECTRALGW"> F  </i>
   <i type="logical" name="LSINGLES"> F  </i>
   <i type="logical" name="LFERMIGW"> F  </i>
   <i type="logical" name="ODDONLYGW"> F  </i>
   <i type="logical" name="EVENONLYGW"> F  </i>
   <i type="int" name="NKREDLFX">     1</i>
   <i type="int" name="NKREDLFY">     1</i>
   <i type="int" name="NKREDLFZ">     1</i>
   <i type="int" name="MAXMEM">  2800</i>
   <i type="int" name="TELESCOPE">     0</i>
   <i type="int" name="NTAUPAR">    -1</i>
   <i type="int" name="NOMEGAPAR">    -1</i>
   <i name="DAMP_NEWTON">      0.80000001</i>
   <i name="LAMBDA">      1.00000000</i>
  </separator>
  <separator name="External order field" >
   <i name="OFIELD_KAPPA">      0.00000000</i>
   <v name="OFIELD_K">      0.00000000      0.00000000      0.00000000</v>
   <i name="OFIELD_Q6_NEAR">      0.00000000</i>
   <i name="OFIELD_Q6_FAR">      0.00000000</i>
   <i name="OFIELD_A">      0.00000000</i>
  </separator>
  <separator name="optional k-points parameters" >
   <i type="int" name="KPOINTS_OPT_MODE">     1</i>
   <i type="logical" name="LKPOINTS_OPT"> F  </i>
  </separator>
 </parameters>
 <atominfo>
  <atoms>       2 </atoms>
  <types>       1 </types>
  <array name="atoms" >
   <dimension dim="1">ion</dimension>
   <field type="string">element</field>
   <field type="int">atomtype</field>
   <set>
    <rc><c>P </c><c>   1</c></rc>
    <rc><c>P </c><c>   1</c></rc>
   </set>
  </array>
  <array name="atomtypes" >
   <dimension dim="1">type</dimension>
   <field type="int">atomspertype</field>
   <field type="string">element</field>
   <field>mass</field>
   <field>valence</field>
   <field type="string">pseudopotential</field>
   <set>
    <rc><c>   2</c><c>P </c><c>     30.97400000</c><c>      5.00000000</c><c>  PAW_PBE P_GW 19Mar2012                </c></rc>
   </set>
  </array>
 </atominfo>
 <structure name="initialpos" >
  <crystal>
   <varray name="basis" >
    <v>       3.28234349       0.00000000       0.00000000 </v>
    <v>      -1.64117175       2.84259285       0.00000000 </v>
    <v>       0.00000000       0.00000000      16.00000000 </v>
   </varray>
   <i name="volume">    149.28585836 </i>
   <varray name="rec_basis" >
    <v>       0.30466038       0.17589575       0.00000000 </v>
    <v>       0.00000000       0.35179150       0.00000000 </v>
    <v>       0.00000000       0.00000000       0.06250000 </v>
   </varray>
  </crystal>
  <varray name="positions" >
   <v>       0.66666667       0.33333333       0.46118284 </v>
   <v>       0.33333333       0.66666667       0.53881716 </v>
  </varray>
 </structure>
 <calculation>
  <scstep>
   <time name="dav">    0.13    0.14</time>
   <time name="total">    0.29    0.31</time>
   <energy>
    <i name="alphaZ">      3.71007814 </i>
    <i name="ewald">    534.42243236 </i>
    <i name="hartreedc">   -833.34816100 </i>
    <i name="XCdc">     -7.57089016 </i>
    <i name="pawpsdc">    293.95507915 </i>
    <i name="pawaedc">   -263.19716017 </i>
    <i name="eentropy">     -0.00000007 </i>
    <i name="bandstr">    -54.94615435 </i>
    <i name="atom">    352.07568098 </i>
    <i name="e_fr_energy">     25.10090488 </i>
    <i name="e_wo_entrp">     25.10090496 </i>
    <i name="e_0_energy">     25.10090492 </i>
   </energy>
  </scstep>
  <scstep>
   <time name="dav">    0.22    0.22</time>
   <time name="total">    0.22    0.22</time>
   <energy>
    <i name="e_fr_energy">     -9.95031708 </i>
    <i name="e_wo_entrp">     -9.95031708 </i>
    <i name="e_0_energy">     -9.95031708 </i>
   </energy>
  </scstep>
  <scstep>
   <time name="dav">    0.17    0.17</time>
   <time name="total">    0.17    0.17</time>
   <energy>
    <i name="e_fr_energy">    -10.77040547 </i>
    <i name="e_wo_entrp">    -10.77040547 </i>
    <i name="e_0_energy">    -10.77040547 </i>
   </energy>
  </scstep>
  <scstep>
   <time name="dav">    0.23    0.24</time>
   <time name="total">    0.24    0.24</time>
   <energy>
    <i name="e_fr_energy">    -10.78583666 </i>
    <i name="e_wo_entrp">    -10.78583666 </i>
    <i name="e_0_energy">    -10.78583666 </i>
   </energy>
  </scstep>
  <scstep>
   <time name="dav">    0.17    0.17</time>
   <time name="total">    0.17    0.17</time>
   <energy>
    <i name="e_fr_energy">    -10.78590750 </i>
    <i name="e_wo_entrp">    -10.78590750 </i>
    <i name="e_0_energy">    -10.78590750 </i>
   </energy>
  </scstep>
  <scstep>
   <time name="dav">    0.26    0.26</time>
   <time name="total">    0.26    0.26</time>
   <energy>
    <i name="e_fr_energy">    -10.78590838 </i>
    <i name="e_wo_entrp">    -10.78590838 </i>
    <i name="e_0_energy">    -10.78590838 </i>
   </energy>
  </scstep>
  <scstep>
   <time name="dav">    0.20    0.20</time>
   <time name="total">    0.20    0.20</time>
   <energy>
    <i name="e_fr_energy">    -10.78590839 </i>
    <i name="e_wo_entrp">    -10.78590839 </i>
    <i name="e_0_energy">    -10.78590839 </i>
   </energy>
  </scstep>
  <scstep>
   <time name="dav">    0.24    0.24</time>
   <time name="total">    0.24    0.24</time>
   <energy>
    <i name="e_fr_energy">    -10.78590839 </i>
    <i name="e_wo_entrp">    -10.78590839 </i>
    <i name="e_0_energy">    -10.78590839 </i>
   </energy>
  </scstep>
  <scstep>
   <time name="dav">    0.19    0.19</time>
   <time name="total">    0.19    0.19</time>
   <energy>
    <i name="e_fr_energy">    -10.78590839 </i>
    <i name="e_wo_entrp">    -10.78590839 </i>
    <i name="e_0_energy">    -10.78590839 </i>
   </energy>
  </scstep>
  <scstep>
   <time name="dav">    0.19    0.19</time>
   <time name="total">    0.19    0.20</time>
   <energy>
    <i name="e_fr_energy">    -10.78590839 </i>
    <i name="e_wo_entrp">    -10.78590839 </i>
    <i name="e_0_energy">    -10.78590839 </i>
   </energy>
  </scstep>
  <scstep>
   <time name="dav">    0.16    0.16</time>
   <time name="total">    0.16    0.16</time>
   <energy>
    <i name="e_fr_energy">    -10.78590839 </i>
    <i name="e_wo_entrp">    -10.78590839 </i>
    <i name="e_0_energy">    -10.78590839 </i>
   </energy>
  </scstep>
  <scstep>
   <time name="dav">    0.14    0.14</time>
   <time name="total">    0.16    0.16</time>
   <energy>
    <i name="e_fr_energy">    -10.78590839 </i>
    <i name="e_wo_entrp">    -10.78590839 </i>
    <i name="e_0_energy">    -10.78590839 </i>
   </energy>
  </scstep>
  <scstep>
   <time name="dav">    0.19    0.19</time>
   <time name="total">    0.35    0.35</time>
   <energy>
    <i name="e_fr_energy">    -10.75977058 </i>
    <i name="e_wo_entrp">    -10.75977058 </i>
    <i name="e_0_energy">    -10.75977058 </i>
   </energy>
  </scstep>
  <scstep>
   <time name="dav">    0.22    0.22</time>
   <time name="total">    0.37    0.37</time>
   <energy>
    <i name="e_fr_energy">    -10.68404211 </i>
    <i name="e_wo_entrp">    -10.68404211 </i>
    <i name="e_0_energy">    -10.68404211 </i>
   </energy>
  </scstep>
  <scstep>
   <time name="dav">    0.23    0.23</time>
   <time name="total">    0.39    0.39</time>
   <energy>
    <i name="e_fr_energy">    -10.67840002 </i>
    <i name="e_wo_entrp">    -10.67840002 </i>
    <i name="e_0_energy">    -10.67840002 </i>
   </energy>
  </scstep>
  <scstep>
   <time name="dav">    0.18    0.18</time>
   <time name="total">    0.33    0.33</time>
   <energy>
    <i name="e_fr_energy">    -10.67853266 </i>
    <i name="e_wo_entrp">    -10.67853266 </i>
    <i name="e_0_energy">    -10.67853266 </i>
   </energy>
  </scstep>
  <scstep>
   <time name="dav">    0.22    0.22</time>
   <time name="total">    0.38    0.38</time>
   <energy>
    <i name="e_fr_energy">    -10.67837099 </i>
    <i name="e_wo_entrp">    -10.67837099 </i>
    <i name="e_0_energy">    -10.67837099 </i>
   </energy>
  </scstep>
  <scstep>
   <time name="dav">    0.20    0.20</time>
   <time name="total">    0.35    0.35</time>
   <energy>
    <i name="e_fr_energy">    -10.67834965 </i>
    <i name="e_wo_entrp">    -10.67834965 </i>
    <i name="e_0_energy">    -10.67834965 </i>
   </energy>
  </scstep>
  <scstep>
   <time name="dav">    0.17    0.17</time>
   <time name="total">    0.31    0.31</time>
   <energy>
    <i name="alphaZ">      3.71007814 </i>
    <i name="ewald">    534.42243236 </i>
    <i name="hartreedc">   -838.77092116 </i>
    <i name="XCdc">     -7.05495235 </i>
    <i name="pawpsdc">    350.96058564 </i>
    <i name="pawaedc">   -320.39727386 </i>
    <i name="eentropy">     -0.00000000 </i>
    <i name="bandstr">    -85.62397984 </i>
    <i name="atom">    352.07568098 </i>
    <i name="e_fr_energy">    -10.67835010 </i>
    <i name="e_wo_entrp">    -10.67835010 </i>
    <i name="e_0_energy">    -10.67835010 </i>
   </energy>
  </scstep>
  <structure>
   <crystal>
    <varray name="basis" >
     <v>       3.28234349       0.00000000       0.00000000 </v>
     <v>      -1.64117175       2.84259285       0.00000000 </v>
     <v>       0.00000000       0.00000000      16.00000000 </v>
    </varray>
    <i name="volume">    149.28585836 </i>
    <varray name="rec_basis" >
     <v>       0.30466038       0.17589575       0.00000000 </v>
     <v>       0.00000000       0.35179150       0.00000000 </v>
     <v>       0.00000000       0.00000000       0.06250000 </v>
    </varray>
   </crystal>
   <varray name="positions" >
    <v>       0.66666667       0.33333333       0.46118284 </v>
    <v>       0.33333333       0.66666667       0.53881716 </v>
   </varray>
  </structure>
  <varray name="forces" >
   <v>      -0.00000000      -0.00000000      -0.00775195 </v>
   <v>       0.00000000       0.00000000       0.00775195 </v>
  </varray>
  <varray name="stress" >
   <v>      -0.71119711       0.00000000      -0.00000000 </v>
   <v>       0.00000000      -0.71119711       0.00000000 </v>
   <v>       0.00000000      -0.00000000      -0.84720233 </v>
  </varray>
  <energy>
   <i name="e_fr_energy">    -10.67835010 </i>
   <i name="e_wo_entrp">    -10.67835010 </i>
   <i name="e_0_energy">    -10.67835010 </i>
  </energy>
  <kpoints>
   <generation param="Gamma">
    <v type="int" name="divisions">      14       14        1 </v>
    <v name="usershift">      0.00000000       0.00000000       0.00000000 </v>
    <v name="genvec1">      0.07142857       0.00000000       0.00000000 </v>
    <v name="genvec2">      0.00000000       0.07142857       0.00000000 </v>
    <v name="genvec3">      0.00000000       0.00000000       1.00000000 </v>
    <v name="shift">      0.00000000       0.00000000       0.00000000 </v>
   </generation>
   <varray name="kpointlist" >
    <v>       0.00000000       0.00000000       0.00000000 </v>
    <v>       0.07142857       0.00000000       0.00000000 </v>
    <v>       0.00000000       0.07142857       0.00000000 </v>
    <v>      -0.07142857       0.07142857       0.00000000 </v>
    <v>       0.14285714       0.00000000       0.00000000 </v>
    <v>       0.00000000       0.14285714       0.00000000 </v>
    <v>      -0.14285714       0.14285714       0.00000000 </v>
    <v>       0.21428571      -0.00000000       0.00000000 </v>
    <v>       0.00000000       0.21428571       0.00000000 </v>
    <v>      -0.21428571       0.21428571       0.00000000 </v>
    <v>       0.28571429       0.00000000       0.00000000 </v>
    <v>       0.00000000       0.28571429       0.00000000 </v>
    <v>      -0.28571429       0.28571429       0.00000000 </v>
    <v>       0.35714286       0.00000000       0.00000000 </v>
    <v>       0.00000000       0.35714286       0.00000000 </v>
    <v>      -0.35714286       0.35714286       0.00000000 </v>
    <v>       0.42857143      -0.00000000       0.00000000 </v>
    <v>       0.00000000       0.42857143       0.00000000 </v>
    <v>      -0.42857143       0.42857143       0.00000000 </v>
    <v>       0.50000000      -0.00000000       0.00000000 </v>
    <v>       0.00000000       0.50000000       0.00000000 </v>
    <v>       0.50000000       0.50000000       0.00000000 </v>
    <v>       0.07142857       0.07142857       0.00000000 </v>
    <v>      -0.07142857       0.14285714       0.00000000 </v>
    <v>      -0.14285714       0.07142857       0.00000000 </v>
    <v>       0.14285714       0.07142857       0.00000000 </v>
    <v>      -0.07142857       0.21428571       0.00000000 </v>
    <v>      -0.21428571       0.14285714       0.00000000 </v>
    <v>      -0.14285714       0.21428571       0.00000000 </v>
    <v>       0.07142857       0.14285714       0.00000000 </v>
    <v>       0.21428571      -0.07142857       0.00000000 </v>
    <v>       0.21428571       0.07142857       0.00000000 </v>
    <v>      -0.07142857       0.28571429       0.00000000 </v>
    <v>      -0.28571429       0.21428571       0.00000000 </v>
    <v>      -0.21428571       0.28571429       0.00000000 </v>
    <v>       0.07142857       0.21428571       0.00000000 </v>
    <v>       0.28571429      -0.07142857       0.00000000 </v>
    <v>       0.28571429       0.07142857       0.00000000 </v>
    <v>      -0.07142857       0.35714286       0.00000000 </v>
    <v>      -0.35714286       0.28571429       0.00000000 </v>
    <v>      -0.28571429       0.35714286       0.00000000 </v>
    <v>       0.07142857       0.28571429       0.00000000 </v>
    <v>       0.35714286      -0.07142857       0.00000000 </v>
    <v>       0.35714286       0.07142857       0.00000000 </v>
    <v>      -0.07142857       0.42857143       0.00000000 </v>
    <v>      -0.42857143       0.35714286       0.00000000 </v>
    <v>      -0.35714286       0.42857143       0.00000000 </v>
    <v>       0.07142857       0.35714286       0.00000000 </v>
    <v>       0.42857143      -0.07142857       0.00000000 </v>
    <v>       0.42857143       0.07142857       0.00000000 </v>
    <v>      -0.07142857       0.50000000       0.00000000 </v>
    <v>       0.50000000       0.42857143       0.00000000 </v>
    <v>      -0.42857143       0.50000000       0.00000000 </v>
    <v>       0.07142857       0.42857143       0.00000000 </v>
    <v>       0.50000000      -0.07142857       0.00000000 </v>
    <v>       0.14285714       0.14285714       0.00000000 </v>
    <v>      -0.14285714       0.28571429       0.00000000 </v>
    <v>      -0.28571429       0.14285714       0.00000000 </v>
    <v>       0.21428571       0.14285714       0.00000000 </v>
    <v>      -0.14285714       0.35714286       0.00000000 </v>
    <v>      -0.35714286       0.21428571       0.00000000 </v>
    <v>      -0.21428571       0.35714286       0.00000000 </v>
    <v>       0.14285714       0.21428571       0.00000000 </v>
    <v>       0.35714286      -0.14285714       0.00000000 </v>
    <v>       0.28571429       0.14285714       0.00000000 </v>
    <v>      -0.14285714       0.42857143       0.00000000 </v>
    <v>      -0.42857143       0.28571429       0.00000000 </v>
    <v>      -0.28571429       0.42857143       0.00000000 </v>
    <v>       0.14285714       0.28571429       0.00000000 </v>
    <v>       0.42857143      -0.14285714       0.00000000 </v>
    <v>       0.35714286       0.14285714       0.00000000 </v>
    <v>      -0.14285714       0.50000000       0.00000000 </v>
    <v>       0.50000000       0.35714286       0.00000000 </v>
    <v>      -0.35714286       0.50000000       0.00000000 </v>
    <v>       0.14285714       0.35714286       0.00000000 </v>
    <v>       0.50000000      -0.14285714       0.00000000 </v>
    <v>       0.42857143       0.14285714       0.00000000 </v>
    <v>      -0.14285714      -0.42857143       0.00000000 </v>
    <v>       0.42857143       0.42857143       0.00000000 </v>
    <v>       0.21428571       0.21428571       0.00000000 </v>
    <v>      -0.21428571       0.42857143       0.00000000 </v>
    <v>      -0.42857143       0.21428571       0.00000000 </v>
    <v>       0.28571429       0.21428571       0.00000000 </v>
    <v>      -0.21428571       0.50000000       0.00000000 </v>
    <v>       0.50000000       0.28571429       0.00000000 </v>
    <v>      -0.28571429       0.50000000       0.00000000 </v>
    <v>       0.21428571       0.28571429       0.00000000 </v>
    <v>       0.50000000      -0.21428571       0.00000000 </v>
    <v>       0.35714286       0.21428571       0.00000000 </v>
    <v>      -0.21428571      -0.42857143       0.00000000 </v>
    <v>       0.42857143       0.35714286       0.00000000 </v>
    <v>      -0.35714286      -0.42857143       0.00000000 </v>
    <v>       0.21428571       0.35714286       0.00000000 </v>
    <v>      -0.42857143      -0.21428571       0.00000000 </v>
    <v>       0.28571429       0.28571429       0.00000000 </v>
    <v>      -0.28571429      -0.42857143       0.00000000 </v>
    <v>       0.42857143       0.28571429       0.00000000 </v>
    <v>       0.35714286       0.28571429       0.00000000 </v>
    <v>      -0.28571429      -0.35714286       0.00000000 </v>
    <v>       0.35714286       0.35714286       0.00000000 </v>
   </varray>
   <varray name="weights" >
    <v>       0.00510204 </v>
    <v>       0.01020408 </v>
    <v>       0.01020408 </v>
    <v>       0.01020408 </v>
    <v>       0.01020408 </v>
    <v>       0.01020408 </v>
    <v>       0.01020408 </v>
    <v>       0.01020408 </v>
    <v>       0.01020408 </v>
    <v>       0.01020408 </v>
    <v>       0.01020408 </v>
    <v>       0.01020408 </v>
    <v>       0.01020408 </v>
    <v>       0.01020408 </v>
    <v>       0.01020408 </v>
    <v>       0.01020408 </v>
    <v>       0.01020408 </v>
    <v>       0.01020408 </v>
    <v>       0.01020408 </v>
    <v>       0.00510204 </v>
    <v>       0.00510204 </v>
    <v>       0.00510204 </v>
    <v>       0.01020408 </v>
    <v>       0.01020408 </v>
    <v>       0.01020408 </v>
    <v>       0.01020408 </v>
    <v>       0.01020408 </v>
    <v>       0.01020408 </v>
    <v>       0.01020408 </v>
    <v>       0.01020408 </v>
    <v>       0.01020408 </v>
    <v>       0.01020408 </v>
    <v>       0.01020408 </v>
    <v>       0.01020408 </v>
    <v>       0.01020408 </v>
    <v>       0.01020408 </v>
    <v>       0.01020408 </v>
    <v>       0.01020408 </v>
    <v>       0.01020408 </v>
    <v>       0.01020408 </v>
    <v>       0.01020408 </v>
    <v>       0.01020408 </v>
    <v>       0.01020408 </v>
    <v>       0.01020408 </v>
    <v>       0.01020408 </v>
    <v>       0.01020408 </v>
    <v>       0.01020408 </v>
    <v>       0.01020408 </v>
    <v>       0.01020408 </v>
    <v>       0.01020408 </v>
    <v>       0.01020408 </v>
    <v>       0.01020408 </v>
    <v>       0.01020408 </v>
    <v>       0.01020408 </v>
    <v>       0.01020408 </v>
    <v>       0.01020408 </v>
    <v>       0.01020408 </v>
    <v>       0.01020408 </v>
    <v>       0.01020408 </v>
    <v>       0.01020408 </v>
    <v>       0.01020408 </v>
    <v>       0.01020408 </v>
    <v>       0.01020408 </v>
    <v>       0.01020408 </v>
    <v>       0.01020408 </v>
    <v>       0.01020408 </v>
    <v>       0.01020408 </v>
    <v>       0.01020408 </v>
    <v>       0.01020408 </v>
    <v>       0.01020408 </v>
    <v>       0.01020408 </v>
    <v>       0.01020408 </v>
    <v>       0.01020408 </v>
    <v>       0.01020408 </v>
    <v>       0.01020408 </v>
    <v>       0.01020408 </v>
    <v>       0.01020408 </v>
    <v>       0.01020408 </v>
    <v>       0.01020408 </v>
    <v>       0.01020408 </v>
    <v>       0.01020408 </v>
    <v>       0.01020408 </v>
    <v>       0.01020408 </v>
    <v>       0.01020408 </v>
    <v>       0.01020408 </v>
    <v>       0.01020408 </v>
    <v>       0.01020408 </v>
    <v>       0.01020408 </v>
    <v>       0.01020408 </v>
    <v>       0.01020408 </v>
    <v>       0.01020408 </v>
    <v>       0.01020408 </v>
    <v>       0.01020408 </v>
    <v>       0.01020408 </v>
    <v>       0.01020408 </v>
    <v>       0.01020408 </v>
    <v>       0.01020408 </v>
    <v>       0.01020408 </v>
    <v>       0.01020408 </v>
    <v>       0.01020408 </v>
   </varray>
  </kpoints>
  <scstep>
   <time name="total">    1.29    1.29</time>
   <energy>
    <i name="e_fr_energy">    -98.79653277 </i>
    <i name="e_wo_entrp">    -98.79653277 </i>
    <i name="e_0_energy">    -98.79653277 </i>
   </energy>
  </scstep>
  <scstep>
   <time name="total">    1.31    1.31</time>
   <energy>
    <i name="e_fr_energy">    -95.89760749 </i>
    <i name="e_wo_entrp">    -95.89760749 </i>
    <i name="e_0_energy">    -95.89760749 </i>
   </energy>
  </scstep>
  <scstep>
   <time name="total">    1.19    1.19</time>
   <energy>
    <i name="e_fr_energy">    -96.11051032 </i>
    <i name="e_wo_entrp">    -96.11051032 </i>
    <i name="e_0_energy">    -96.11051032 </i>
   </energy>
  </scstep>
  <scstep>
   <time name="total">    1.21    1.22</time>
   <energy>
    <i name="e_fr_energy">    -96.77656537 </i>
    <i name="e_wo_entrp">    -96.77656537 </i>
    <i name="e_0_energy">    -96.77656537 </i>
   </energy>
  </scstep>
  <scstep>
   <time name="total">    1.28    1.29</time>
   <energy>
    <i name="e_fr_energy">    -96.82682326 </i>
    <i name="e_wo_entrp">    -96.82682326 </i>
    <i name="e_0_energy">    -96.82682326 </i>
   </energy>
  </scstep>
  <scstep>
   <time name="total">    1.35    1.39</time>
   <energy>
    <i name="e_fr_energy">    -96.55492793 </i>
    <i name="e_wo_entrp">    -96.55492793 </i>
    <i name="e_0_energy">    -96.55492793 </i>
   </energy>
  </scstep>
  <scstep>
   <time name="total">    1.37    1.37</time>
   <energy>
    <i name="e_fr_energy">    -96.54548734 </i>
    <i name="e_wo_entrp">    -96.54548734 </i>
    <i name="e_0_energy">    -96.54548734 </i>
   </energy>
  </scstep>
  <scstep>
   <time name="total">    1.37    1.37</time>
   <energy>
    <i name="e_fr_energy">    -96.56366356 </i>
    <i name="e_wo_entrp">    -96.56366356 </i>
    <i name="e_0_energy">    -96.56366356 </i>
   </energy>
  </scstep>
  <scstep>
   <time name="total">    1.38    1.39</time>
   <energy>
    <i name="e_fr_energy">    -96.54883057 </i>
    <i name="e_wo_entrp">    -96.54883057 </i>
    <i name="e_0_energy">    -96.54883057 </i>
   </energy>
  </scstep>
  <scstep>
   <time name="total">    1.38    1.38</time>
   <energy>
    <i name="e_fr_energy">    -96.55063580 </i>
    <i name="e_wo_entrp">    -96.55063580 </i>
    <i name="e_0_energy">    -96.55063580 </i>
   </energy>
  </scstep>
  <kpoints>
   <generation param="Gamma">
    <v type="int" name="divisions">      14       14        1 </v>
    <v name="usershift">      0.00000000       0.00000000       0.00000000 </v>
    <v name="genvec1">      0.07142857       0.00000000       0.00000000 </v>
    <v name="genvec2">      0.00000000       0.07142857       0.00000000 </v>
    <v name="genvec3">      0.00000000       0.00000000       1.00000000 </v>
    <v name="shift">      0.00000000       0.00000000       0.00000000 </v>
   </generation>
   <varray name="kpointlist" >
    <v>       0.00000000       0.00000000       0.00000000 </v>
    <v>       0.07142857       0.00000000       0.00000000 </v>
    <v>       0.14285714       0.00000000       0.00000000 </v>
    <v>       0.21428571      -0.00000000       0.00000000 </v>
    <v>       0.28571429       0.00000000       0.00000000 </v>
    <v>       0.35714286       0.00000000       0.00000000 </v>
    <v>       0.42857143      -0.00000000       0.00000000 </v>
    <v>       0.50000000      -0.00000000       0.00000000 </v>
    <v>       0.07142857       0.07142857       0.00000000 </v>
    <v>       0.14285714       0.07142857       0.00000000 </v>
    <v>       0.21428571       0.07142857       0.00000000 </v>
    <v>       0.28571429       0.07142857       0.00000000 </v>
    <v>       0.35714286       0.07142857       0.00000000 </v>
    <v>       0.42857143       0.07142857       0.00000000 </v>
    <v>       0.14285714       0.14285714       0.00000000 </v>
    <v>       0.21428571       0.14285714       0.00000000 </v>
    <v>       0.28571429       0.14285714       0.00000000 </v>
    <v>       0.35714286       0.14285714       0.00000000 </v>
    <v>       0.42857143       0.14285714       0.00000000 </v>
    <v>       0.21428571       0.21428571       0.00000000 </v>
    <v>       0.28571429       0.21428571       0.00000000 </v>
    <v>       0.35714286       0.21428571       0.00000000 </v>
    <v>       0.28571429       0.28571429       0.00000000 </v>
    <v>       0.35714286       0.28571429       0.00000000 </v>
   </varray>
   <varray name="weights" >
    <v>       0.00510204 </v>
    <v>       0.03061224 </v>
    <v>       0.03061224 </v>
    <v>       0.03061224 </v>
    <v>       0.03061224 </v>
    <v>       0.03061224 </v>
    <v>       0.03061224 </v>
    <v>       0.01530612 </v>
    <v>       0.03061224 </v>
    <v>       0.06122449 </v>
    <v>       0.06122449 </v>
    <v>       0.06122449 </v>
    <v>       0.06122449 </v>
    <v>       0.06122449 </v>
    <v>       0.03061224 </v>
    <v>       0.06122449 </v>
    <v>       0.06122449 </v>
    <v>       0.06122449 </v>
    <v>       0.03061224 </v>
    <v>       0.03061224 </v>
    <v>       0.06122449 </v>
    <v>       0.06122449 </v>
    <v>       0.03061224 </v>
    <v>       0.03061224 </v>
   </varray>
  </kpoints>
  <scstep>
   <time name="total">    0.71    0.71</time>
   <energy>
    <i name="e_fr_energy">   -181.94169162 </i>
    <i name="e_wo_entrp">   -181.94169162 </i>
    <i name="e_0_energy">   -181.94169162 </i>
   </energy>
  </scstep>
  <scstep>
   <time name="total">    0.73    0.73</time>
   <energy>
    <i name="e_fr_energy">   -177.83771364 </i>
    <i name="e_wo_entrp">   -177.83771364 </i>
    <i name="e_0_energy">   -177.83771364 </i>
   </energy>
  </scstep>
  <scstep>
   <time name="total">    0.72    0.72</time>
   <energy>
    <i name="e_fr_energy">   -177.54943215 </i>
    <i name="e_wo_entrp">   -177.54943215 </i>
    <i name="e_0_energy">   -177.54943215 </i>
   </energy>
  </scstep>
  <scstep>
   <time name="total">    0.73    0.73</time>
   <energy>
    <i name="e_fr_energy">   -175.95955087 </i>
    <i name="e_wo_entrp">   -175.95955087 </i>
    <i name="e_0_energy">   -175.95955087 </i>
   </energy>
  </scstep>
  <scstep>
   <time name="total">    0.73    0.73</time>
   <energy>
    <i name="e_fr_energy">   -175.79819904 </i>
    <i name="e_wo_entrp">   -175.79819904 </i>
    <i name="e_0_energy">   -175.79819904 </i>
   </energy>
  </scstep>
  <scstep>
   <time name="total">    0.75    0.75</time>
   <energy>
    <i name="e_fr_energy">   -175.92807649 </i>
    <i name="e_wo_entrp">   -175.92807649 </i>
    <i name="e_0_energy">   -175.92807649 </i>
   </energy>
  </scstep>
  <scstep>
   <time name="total">    0.76    0.76</time>
   <energy>
    <i name="e_fr_energy">   -176.06621655 </i>
    <i name="e_wo_entrp">   -176.06621655 </i>
    <i name="e_0_energy">   -176.06621655 </i>
   </energy>
  </scstep>
  <scstep>
   <time name="total">    0.77    0.77</time>
   <energy>
    <i name="e_fr_energy">   -176.07239973 </i>
    <i name="e_wo_entrp">   -176.07239973 </i>
    <i name="e_0_energy">   -176.07239973 </i>
   </energy>
  </scstep>
  <scstep>
   <time name="total">    0.81    0.81</time>
   <energy>
    <i name="e_fr_energy">   -176.06437332 </i>
    <i name="e_wo_entrp">   -176.06437332 </i>
    <i name="e_0_energy">   -176.06437332 </i>
   </energy>
  </scstep>
  <scstep>
   <time name="total">    0.82    0.82</time>
   <energy>
    <i name="e_fr_energy">   -176.12013401 </i>
    <i name="e_wo_entrp">   -176.12013401 </i>
    <i name="e_0_energy">   -176.12013401 </i>
   </energy>
  </scstep>
  <scstep>
   <time name="total">    0.84    0.84</time>
   <energy>
    <i name="e_fr_energy">   -176.12145225 </i>
    <i name="e_wo_entrp">   -176.12145225 </i>
    <i name="e_0_energy">   -176.12145225 </i>
   </energy>
  </scstep>
  <kpoints>
   <generation param="Gamma">
    <v type="int" name="divisions">      14       14        1 </v>
    <v name="usershift">      0.00000000       0.00000000       0.00000000 </v>
    <v name="genvec1">      0.07142857       0.00000000       0.00000000 </v>
    <v name="genvec2">      0.00000000       0.07142857       0.00000000 </v>
    <v name="genvec3">      0.00000000       0.00000000       1.00000000 </v>
    <v name="shift">      0.00000000       0.00000000       0.00000000 </v>
   </generation>
   <varray name="kpointlist" >
    <v>       0.00000000       0.00000000       0.00000000 </v>
    <v>       0.07142857       0.00000000       0.00000000 </v>
    <v>       0.14285714       0.00000000       0.00000000 </v>
    <v>       0.21428571      -0.00000000       0.00000000 </v>
    <v>       0.28571429       0.00000000       0.00000000 </v>
    <v>       0.35714286       0.00000000       0.00000000 </v>
    <v>       0.42857143      -0.00000000       0.00000000 </v>
    <v>       0.50000000      -0.00000000       0.00000000 </v>
    <v>       0.07142857       0.07142857       0.00000000 </v>
    <v>       0.14285714       0.07142857       0.00000000 </v>
    <v>       0.21428571       0.07142857       0.00000000 </v>
    <v>       0.28571429       0.07142857       0.00000000 </v>
    <v>       0.35714286       0.07142857       0.00000000 </v>
    <v>       0.42857143       0.07142857       0.00000000 </v>
    <v>       0.14285714       0.14285714       0.00000000 </v>
    <v>       0.21428571       0.14285714       0.00000000 </v>
    <v>       0.28571429       0.14285714       0.00000000 </v>
    <v>       0.35714286       0.14285714       0.00000000 </v>
    <v>       0.42857143       0.14285714       0.00000000 </v>
    <v>       0.21428571       0.21428571       0.00000000 </v>
    <v>       0.28571429       0.21428571       0.00000000 </v>
    <v>       0.35714286       0.21428571       0.00000000 </v>
    <v>       0.28571429       0.28571429       0.00000000 </v>
    <v>       0.35714286       0.28571429       0.00000000 </v>
   </varray>
   <varray name="weights" >
    <v>       0.00510204 </v>
    <v>       0.03061224 </v>
    <v>       0.03061224 </v>
    <v>       0.03061224 </v>
    <v>       0.03061224 </v>
    <v>       0.03061224 </v>
    <v>       0.03061224 </v>
    <v>       0.01530612 </v>
    <v>       0.03061224 </v>
    <v>       0.06122449 </v>
    <v>       0.06122449 </v>
    <v>       0.06122449 </v>
    <v>       0.06122449 </v>
    <v>       0.06122449 </v>
    <v>       0.03061224 </v>
    <v>       0.06122449 </v>
    <v>       0.06122449 </v>
    <v>       0.06122449 </v>
    <v>       0.03061224 </v>
    <v>       0.03061224 </v>
    <v>       0.06122449 </v>
    <v>       0.06122449 </v>
    <v>       0.03061224 </v>
    <v>       0.03061224 </v>
   </varray>
  </kpoints>
  <dynmat>
   <i name="unit" type="string">THz^2 </i>
   <varray name="hessian" >
    <v>     -80.65173478      -0.00000000      -0.00000000      80.65173478       0.00000000       0.00000000 </v>
    <v>      -0.00000000     -80.65173478      -0.00000000       0.00000000      80.65173478       0.00000000 </v>
    <v>      -0.00000000      -0.00000000    -127.66119397       0.00000000       0.00000000     127.66119397 </v>
    <v>      80.65173478       0.00000000       0.00000000     -80.65173478      -0.00000000      -0.00000000 </v>
    <v>       0.00000000      80.65173478       0.00000000      -0.00000000     -80.65173478      -0.00000000 </v>
    <v>       0.00000000       0.00000000     127.66119397      -0.00000000      -0.00000000    -127.66119397 </v>
   </varray>
   <v name="eigenvalues"> -2.55322388E+002 -1.61303470E+002 -1.61303470E+002 -5.44500943E-014 -4.18021407E-014  2.23786121E-016</v>
   <varray name="eigenvectors" >
    <v>   3.62442515E-022  2.96156009E-022  7.07106781E-001 -3.62442515E-022 -3.75731659E-017 -7.07106781E-001</v>
    <v>   5.00003735E-001  4.99996265E-001  4.67893415E-017 -5.00003735E-001 -4.99996265E-001  7.13220361E-017</v>
    <v>   4.99996265E-001 -5.00003735E-001  1.03084336E-017 -4.99996265E-001  5.00003735E-001 -1.42242610E-017</v>
    <v>  -1.80632841E-002 -1.32354899E-001  6.94374466E-001 -1.80632841E-002 -1.32354899E-001  6.94374466E-001</v>
    <v>   7.05406947E-001  4.13834128E-002  2.62383834E-002  7.05406947E-001  4.13834128E-002  2.62383834E-002</v>
    <v>   4.55495049E-002 -6.93375507E-001 -1.30979574E-001  4.55495049E-002 -6.93375507E-001 -1.30979574E-001</v>
   </varray>
  </dynmat>
  <time name="totalsc">   35.08   36.05</time>
  <eigenvalues>
   <array>
    <dimension dim="1">band</dimension>
    <dimension dim="2">kpoint</dimension>
    <dimension dim="3">spin</dimension>
    <field>eigene</field>
    <field>occ</field>
    <set>
     <set comment="spin 1">
      <set comment="kpoint 1">
       <r>  -17.4725    1.0000 </r>
       <r>   -9.7587    1.0000 </r>
       <r>   -3.7662    1.0000 </r>
       <r>   -3.4963    1.0000 </r>
       <r>   -3.4963    1.0000 </r>
       <r>    0.3744    0.0000 </r>
       <r>    0.5277    0.0000 </r>
       <r>    0.5277    0.0000 </r>
       <r>    2.0246    0.0000 </r>
       <r>    2.4621    0.0000 </r>
       <r>    3.8140    0.0000 </r>
       <r>    4.4394    0.0000 </r>
       <r>    6.4787    0.0000 </r>
       <r>    6.4787    0.0000 </r>
       <r>    6.9162    0.0000 </r>
       <r>    7.5658    0.0000 </r>
      </set>
      <set comment="kpoint 2">
       <r>  -17.3905    1.0000 </r>
       <r>   -9.7040    1.0000 </r>
       <r>   -4.1775    1.0000 </r>
       <r>   -3.7179    1.0000 </r>
       <r>   -3.6825    1.0000 </r>
       <r>    0.2801    0.0000 </r>
       <r>    0.7652    0.0000 </r>
       <r>    1.0527    0.0000 </r>
       <r>    2.1288    0.0000 </r>
       <r>    2.5466    0.0000 </r>
       <r>    3.8748    0.0000 </r>
       <r>    4.5315    0.0000 </r>
       <r>    5.8044    0.0000 </r>
       <r>    6.3436    0.0000 </r>
       <r>    7.1255    0.0000 </r>
       <r>    7.5188    0.0000 </r>
      </set>
      <set comment="kpoint 3">
       <r>  -17.1456    1.0000 </r>
       <r>   -9.5627    1.0000 </r>
       <r>   -5.5047    1.0000 </r>
       <r>   -4.1138    1.0000 </r>
       <r>   -3.5889    1.0000 </r>
       <r>   -0.2549    0.0000 </r>
       <r>    1.2953    0.0000 </r>
       <r>    2.0706    0.0000 </r>
       <r>    2.4590    0.0000 </r>
       <r>    2.8259    0.0000 </r>
       <r>    4.0101    0.0000 </r>
       <r>    4.8054    0.0000 </r>
       <r>    5.0411    0.0000 </r>
       <r>    6.2081    0.0000 </r>
       <r>    6.8634    0.0000 </r>
       <r>    7.6372    0.0000 </r>
      </set>
      <set comment="kpoint 4">
       <r>  -16.7419    1.0000 </r>
       <r>   -9.4548    1.0000 </r>
       <r>   -6.7893    1.0000 </r>
       <r>   -4.6012    1.0000 </r>
       <r>   -3.4420    1.0000 </r>
       <r>   -0.8639    0.0000 </r>
       <r>    1.7770    0.0000 </r>
       <r>    2.0408    0.0000 </r>
       <r>    2.8237    0.0000 </r>
       <r>    3.3529    0.0000 </r>
       <r>    4.4698    0.0000 </r>
       <r>    5.2119    0.0000 </r>
       <r>    5.3967    0.0000 </r>
       <r>    6.2351    0.0000 </r>
       <r>    6.4557    0.0000 </r>
       <r>    8.0452    0.0000 </r>
      </set>
      <set comment="kpoint 5">
       <r>  -16.1889    1.0000 </r>
       <r>   -9.7943    1.0000 </r>
       <r>   -7.4561    1.0000 </r>
       <r>   -5.0349    1.0000 </r>
       <r>   -3.4412    1.0000 </r>
       <r>   -1.3190    0.0000 </r>
       <r>    1.2305    0.0000 </r>
       <r>    2.0026    0.0000 </r>
       <r>    3.4628    0.0000 </r>
       <r>    3.8713    0.0000 </r>
       <r>    4.7257    0.0000 </r>
       <r>    5.6896    0.0000 </r>
       <r>    6.0586    0.0000 </r>
       <r>    6.8455    0.0000 </r>
       <r>    7.2690    0.0000 </r>
       <r>    8.4551    0.0000 </r>
      </set>
      <set comment="kpoint 6">
       <r>  -15.5098    1.0000 </r>
       <r>  -10.7552    1.0000 </r>
       <r>   -7.2804    1.0000 </r>
       <r>   -5.3660    1.0000 </r>
       <r>   -3.7923    1.0000 </r>
       <r>   -1.4480    0.0000 </r>
       <r>    0.5602    0.0000 </r>
       <r>    2.0246    0.0000 </r>
       <r>    3.7947    0.0000 </r>
       <r>    4.3183    0.0000 </r>
       <r>    5.0307    0.0000 </r>
       <r>    6.2911    0.0000 </r>
       <r>    6.8106    0.0000 </r>
       <r>    7.9016    0.0000 </r>
       <r>    8.5189    0.0000 </r>
       <r>    8.9035    0.0000 </r>
      </set>
      <set comment="kpoint 7">
       <r>  -14.7825    1.0000 </r>
       <r>  -11.7878    1.0000 </r>
       <r>   -6.7922    1.0000 </r>
       <r>   -5.5713    1.0000 </r>
       <r>   -4.3742    1.0000 </r>
       <r>   -1.3944    0.0000 </r>
       <r>    0.2390    0.0000 </r>
       <r>    1.9826    0.0000 </r>
       <r>    3.2995    0.0000 </r>
       <r>    5.3104    0.0000 </r>
       <r>    5.9122    0.0000 </r>
       <r>    6.9550    0.0000 </r>
       <r>    7.6943    0.0000 </r>
       <r>    7.8458    0.0000 </r>
       <r>    8.1102    0.0000 </r>
       <r>    8.8077    0.0000 </r>
      </set>
      <set comment="kpoint 8">
       <r>  -14.3620    1.0000 </r>
       <r>  -12.3233    1.0000 </r>
       <r>   -6.4915    1.0000 </r>
       <r>   -5.6408    1.0000 </r>
       <r>   -4.7154    1.0000 </r>
       <r>   -1.3667    0.0000 </r>
       <r>    0.1780    0.0000 </r>
       <r>    1.9603    0.0000 </r>
       <r>    3.0686    0.0000 </r>
       <r>    6.3909    0.0000 </r>
       <r>    6.4030    0.0000 </r>
       <r>    6.8511    0.0000 </r>
       <r>    7.2183    0.0000 </r>
       <r>    7.7115    0.0000 </r>
       <r>    8.4881    0.0000 </r>
       <r>    8.9430    0.0000 </r>
      </set>
      <set comment="kpoint 9">
       <r>  -17.2270    1.0000 </r>
       <r>   -9.6051    1.0000 </r>
       <r>   -5.0819    1.0000 </r>
       <r>   -4.0841    1.0000 </r>
       <r>   -3.6289    1.0000 </r>
       <r>    0.3073    0.0000 </r>
       <r>    0.6598    0.0000 </r>
       <r>    1.9772    0.0000 </r>
       <r>    2.3751    0.0000 </r>
       <r>    2.7067    0.0000 </r>
       <r>    3.9533    0.0000 </r>
       <r>    4.7150    0.0000 </r>
       <r>    5.1933    0.0000 </r>
       <r>    6.0632    0.0000 </r>
       <r>    7.3694    0.0000 </r>
       <r>    7.3968    0.0000 </r>
      </set>
      <set comment="kpoint 10">
       <r>  -16.9025    1.0000 </r>
       <r>   -9.4681    1.0000 </r>
       <r>   -6.2714    1.0000 </r>
       <r>   -4.6847    1.0000 </r>
       <r>   -3.4862    1.0000 </r>
       <r>   -0.1479    0.0000 </r>
       <r>    1.1554    0.0000 </r>
       <r>    2.4764    0.0000 </r>
       <r>    2.7072    0.0000 </r>
       <r>    3.0924    0.0000 </r>
       <r>    4.0132    0.0000 </r>
       <r>    4.9423    0.0000 </r>
       <r>    5.0799    0.0000 </r>
       <r>    6.1944    0.0000 </r>
       <r>    7.0262    0.0000 </r>
       <r>    7.7821    0.0000 </r>
      </set>
      <set comment="kpoint 11">
       <r>  -16.4233    1.0000 </r>
       <r>   -9.5416    1.0000 </r>
       <r>   -7.2213    1.0000 </r>
       <r>   -5.2368    1.0000 </r>
       <r>   -3.3902    1.0000 </r>
       <r>   -0.6778    0.0000 </r>
       <r>    1.5647    0.0000 </r>
       <r>    1.8659    0.0000 </r>
       <r>    3.1893    0.0000 </r>
       <r>    3.6422    0.0000 </r>
       <r>    4.4654    0.0000 </r>
       <r>    5.3861    0.0000 </r>
       <r>    5.6066    0.0000 </r>
       <r>    6.2362    0.0000 </r>
       <r>    7.5448    0.0000 </r>
       <r>    8.2317    0.0000 </r>
      </set>
      <set comment="kpoint 12">
       <r>  -15.8036    1.0000 </r>
       <r>  -10.2454    1.0000 </r>
       <r>   -7.3884    1.0000 </r>
       <r>   -5.6616    1.0000 </r>
       <r>   -3.5389    1.0000 </r>
       <r>   -0.9793    0.0000 </r>
       <r>    1.0313    0.0000 </r>
       <r>    1.7029    0.0000 </r>
       <r>    3.8835    0.0000 </r>
       <r>    4.1176    0.0000 </r>
       <r>    4.8100    0.0000 </r>
       <r>    5.9957    0.0000 </r>
       <r>    6.4070    0.0000 </r>
       <r>    6.5166    0.0000 </r>
       <r>    8.5320    0.0000 </r>
       <r>    9.0449    0.0000 </r>
      </set>
      <set comment="kpoint 13">
       <r>  -15.0831    1.0000 </r>
       <r>  -11.2911    1.0000 </r>
       <r>   -7.0302    1.0000 </r>
       <r>   -5.9108    1.0000 </r>
       <r>   -4.0300    1.0000 </r>
       <r>   -0.9579    0.0000 </r>
       <r>    0.4407    0.0000 </r>
       <r>    1.7311    0.0000 </r>
       <r>    3.6742    0.0000 </r>
       <r>    4.8725    0.0000 </r>
       <r>    5.5040    0.0000 </r>
       <r>    6.7089    0.0000 </r>
       <r>    7.3504    0.0000 </r>
       <r>    7.4697    0.0000 </r>
       <r>    8.6192    0.0000 </r>
       <r>    8.7189    0.0000 </r>
      </set>
      <set comment="kpoint 14">
       <r>  -14.4249    1.0000 </r>
       <r>  -12.1614    1.0000 </r>
       <r>   -6.6894    1.0000 </r>
       <r>   -5.9073    1.0000 </r>
       <r>   -4.5894    1.0000 </r>
       <r>   -0.8264    0.0000 </r>
       <r>    0.1358    0.0000 </r>
       <r>    1.7899    0.0000 </r>
       <r>    3.2109    0.0000 </r>
       <r>    5.9459    0.0000 </r>
       <r>    6.4697    0.0000 </r>
       <r>    7.1185    0.0000 </r>
       <r>    7.4169    0.0000 </r>
       <r>    7.8337    0.0000 </r>
       <r>    8.3858    0.0000 </r>
       <r>    8.4581    0.0000 </r>
      </set>
      <set comment="kpoint 15">
       <r>  -16.5019    1.0000 </r>
       <r>   -9.4727    1.0000 </r>
       <r>   -6.9836    1.0000 </r>
       <r>   -5.5447    1.0000 </r>
       <r>   -3.3822    1.0000 </r>
       <r>    0.1206    0.0000 </r>
       <r>    0.9599    0.0000 </r>
       <r>    2.6062    0.0000 </r>
       <r>    3.1017    0.0000 </r>
       <r>    3.1368    0.0000 </r>
       <r>    3.9318    0.0000 </r>
       <r>    5.1915    0.0000 </r>
       <r>    5.5039    0.0000 </r>
       <r>    6.4912    0.0000 </r>
       <r>    7.7645    0.0000 </r>
       <r>    7.9650    0.0000 </r>
      </set>
      <set comment="kpoint 16">
       <r>  -15.9529    1.0000 </r>
       <r>   -9.9132    1.0000 </r>
       <r>   -7.2758    1.0000 </r>
       <r>   -6.2518    1.0000 </r>
       <r>   -3.4084    1.0000 </r>
       <r>   -0.1056    0.0000 </r>
       <r>    0.9855    0.0000 </r>
       <r>    2.0600    0.0000 </r>
       <r>    3.5783    0.0000 </r>
       <r>    3.8130    0.0000 </r>
       <r>    4.4714    0.0000 </r>
       <r>    5.6971    0.0000 </r>
       <r>    5.8211    0.0000 </r>
       <r>    6.3954    0.0000 </r>
       <r>    8.0742    0.0000 </r>
       <r>    9.2467    0.0000 </r>
      </set>
      <set comment="kpoint 17">
       <r>  -15.2772    1.0000 </r>
       <r>  -10.8122    1.0000 </r>
       <r>   -7.1709    1.0000 </r>
       <r>   -6.5790    1.0000 </r>
       <r>   -3.7227    1.0000 </r>
       <r>   -0.2802    0.0000 </r>
       <r>    0.8158    0.0000 </r>
       <r>    1.6226    0.0000 </r>
       <r>    4.0382    0.0000 </r>
       <r>    4.6405    0.0000 </r>
       <r>    5.2479    0.0000 </r>
       <r>    5.8492    0.0000 </r>
       <r>    6.4867    0.0000 </r>
       <r>    7.1026    0.0000 </r>
       <r>    8.0497    0.0000 </r>
       <r>    9.4023    0.0000 </r>
      </set>
      <set comment="kpoint 18">
       <r>  -14.5460    1.0000 </r>
       <r>  -11.7851    1.0000 </r>
       <r>   -7.2534    1.0000 </r>
       <r>   -6.2535    1.0000 </r>
       <r>   -4.2852    1.0000 </r>
       <r>   -0.2616    0.0000 </r>
       <r>    0.5617    0.0000 </r>
       <r>    1.5552    0.0000 </r>
       <r>    3.6418    0.0000 </r>
       <r>    5.6138    0.0000 </r>
       <r>    6.1565    0.0000 </r>
       <r>    6.7908    0.0000 </r>
       <r>    7.2051    0.0000 </r>
       <r>    8.0107    0.0000 </r>
       <r>    8.2369    0.0000 </r>
       <r>    8.4413    0.0000 </r>
      </set>
      <set comment="kpoint 19">
       <r>  -14.1096    1.0000 </r>
       <r>  -12.3153    1.0000 </r>
       <r>   -7.3225    1.0000 </r>
       <r>   -5.9197    1.0000 </r>
       <r>   -4.6674    1.0000 </r>
       <r>   -0.2164    0.0000 </r>
       <r>    0.4427    0.0000 </r>
       <r>    1.6111    0.0000 </r>
       <r>    3.3589    0.0000 </r>
       <r>    6.5859    0.0000 </r>
       <r>    6.8640    0.0000 </r>
       <r>    7.0016    0.0000 </r>
       <r>    7.1280    0.0000 </r>
       <r>    7.7659    0.0000 </r>
       <r>    8.0442    0.0000 </r>
       <r>    9.1791    0.0000 </r>
      </set>
      <set comment="kpoint 20">
       <r>  -15.3438    1.0000 </r>
       <r>  -10.5938    1.0000 </r>
       <r>   -7.1641    1.0000 </r>
       <r>   -6.9474    1.0000 </r>
       <r>   -3.6042    1.0000 </r>
       <r>    0.2172    0.0000 </r>
       <r>    0.3578    0.0000 </r>
       <r>    2.6600    0.0000 </r>
       <r>    3.5078    0.0000 </r>
       <r>    4.5078    0.0000 </r>
       <r>    5.0951    0.0000 </r>
       <r>    5.4318    0.0000 </r>
       <r>    6.3032    0.0000 </r>
       <r>    7.0352    0.0000 </r>
       <r>    7.6286    0.0000 </r>
       <r>    9.8813    0.0000 </r>
      </set>
      <set comment="kpoint 21">
       <r>  -14.6287    1.0000 </r>
       <r>  -11.4477    1.0000 </r>
       <r>   -7.7751    1.0000 </r>
       <r>   -6.4056    1.0000 </r>
       <r>   -4.0308    1.0000 </r>
       <r>   -0.3697    0.0000 </r>
       <r>    0.8178    0.0000 </r>
       <r>    2.4486    0.0000 </r>
       <r>    4.0504    0.0000 </r>
       <r>    5.4107    0.0000 </r>
       <r>    5.4844    0.0000 </r>
       <r>    5.8631    0.0000 </r>
       <r>    6.6946    0.0000 </r>
       <r>    7.8149    0.0000 </r>
       <r>    7.9410    0.0000 </r>
       <r>    9.2614    0.0000 </r>
      </set>
      <set comment="kpoint 22">
       <r>  -13.9413    1.0000 </r>
       <r>  -12.2365    1.0000 </r>
       <r>   -8.0726    1.0000 </r>
       <r>   -5.8315    1.0000 </r>
       <r>   -4.5600    1.0000 </r>
       <r>   -0.6760    0.0000 </r>
       <r>    1.3881    0.0000 </r>
       <r>    1.9714    0.0000 </r>
       <r>    3.9142    0.0000 </r>
       <r>    5.9256    0.0000 </r>
       <r>    6.5703    0.0000 </r>
       <r>    6.8133    0.0000 </r>
       <r>    7.5042    0.0000 </r>
       <r>    7.8467    0.0000 </r>
       <r>    8.3812    0.0000 </r>
       <r>    8.8061    0.0000 </r>
      </set>
      <set comment="kpoint 23">
       <r>  -13.9013    1.0000 </r>
       <r>  -12.1459    1.0000 </r>
       <r>   -8.3882    1.0000 </r>
       <r>   -5.8153    1.0000 </r>
       <r>   -4.4655    1.0000 </r>
       <r>   -0.8938    0.0000 </r>
       <r>    1.4052    0.0000 </r>
       <r>    2.6405    0.0000 </r>
       <r>    4.6455    0.0000 </r>
       <r>    5.4387    0.0000 </r>
       <r>    5.8777    0.0000 </r>
       <r>    6.4721    0.0000 </r>
       <r>    7.2526    0.0000 </r>
       <r>    8.4225    0.0000 </r>
       <r>    8.7916    0.0000 </r>
       <r>    8.8812    0.0000 </r>
      </set>
      <set comment="kpoint 24">
       <r>  -13.3601    1.0000 </r>
       <r>  -12.6751    1.0000 </r>
       <r>   -8.6042    1.0000 </r>
       <r>   -5.3656    1.0000 </r>
       <r>   -4.8499    1.0000 </r>
       <r>   -1.1029    0.0000 </r>
       <r>    1.9233    0.0000 </r>
       <r>    2.2709    0.0000 </r>
       <r>    4.7955    0.0000 </r>
       <r>    5.5736    0.0000 </r>
       <r>    6.7708    0.0000 </r>
       <r>    7.1867    0.0000 </r>
       <r>    7.5530    0.0000 </r>
       <r>    7.7550    0.0000 </r>
       <r>    8.3751    0.0000 </r>
       <r>    8.4803    0.0000 </r>
      </set>
     </set>
    </set>
   </array>
  </eigenvalues>
  <separator name="orbital magnetization" >
   <v name="MAGDIPOLOUT">      0.00000000      0.00000000      0.00000000</v>
  </separator>
  <dos>
   <i name="efermi">     -3.33927766 </i>
   <total>
    <array>
     <dimension dim="1">gridpoints</dimension>
     <dimension dim="2">spin</dimension>
     <field>energy</field>
     <field>total</field>
     <field>integrated</field>
     <set>
      <set comment="spin 1">
       <r>   -18.8402     0.0000     0.0000 </r>
       <r>   -18.8352     0.0000     0.0000 </r>
       <r>   -18.8302     0.0000     0.0000 </r>
       <r>   -18.8252     0.0000     0.0000 </r>
       <r>   -18.8202     0.0000     0.0000 </r>
       <r>   -18.8152     0.0000     0.0000 </r>
       <r>   -18.8101     0.0000     0.0000 </r>
       <r>   -18.8051     0.0000     0.0000 </r>
       <r>   -18.8001     0.0000     0.0000 </r>
       <r>   -18.7951     0.0000     0.0000 </r>
       <r>   -18.7901     0.0000     0.0000 </r>
       <r>   -18.7851     0.0000     0.0000 </r>
       <r>   -18.7801     0.0000     0.0000 </r>
       <r>   -18.7750     0.0000     0.0000 </r>
       <r>   -18.7700     0.0000     0.0000 </r>
       <r>   -18.7650     0.0000     0.0000 </r>
       <r>   -18.7600     0.0000     0.0000 </r>
       <r>   -18.7550     0.0000     0.0000 </r>
       <r>   -18.7500     0.0000     0.0000 </r>
       <r>   -18.7449     0.0000     0.0000 </r>
       <r>   -18.7399     0.0000     0.0000 </r>
       <r>   -18.7349     0.0000     0.0000 </r>
       <r>   -18.7299     0.0000     0.0000 </r>
       <r>   -18.7249     0.0000     0.0000 </r>
       <r>   -18.7199     0.0000     0.0000 </r>
       <r>   -18.7149     0.0000     0.0000 </r>
       <r>   -18.7098     0.0000     0.0000 </r>
       <r>   -18.7048     0.0000     0.0000 </r>
       <r>   -18.6998     0.0000     0.0000 </r>
       <r>   -18.6948     0.0000     0.0000 </r>
       <r>   -18.6898     0.0000     0.0000 </r>
       <r>   -18.6848     0.0000     0.0000 </r>
       <r>   -18.6798     0.0000     0.0000 </r>
       <r>   -18.6747     0.0000     0.0000 </r>
       <r>   -18.6697     0.0000     0.0000 </r>
       <r>   -18.6647     0.0000     0.0000 </r>
       <r>   -18.6597     0.0000     0.0000 </r>
       <r>   -18.6547     0.0000     0.0000 </r>
       <r>   -18.6497     0.0000     0.0000 </r>
       <r>   -18.6447     0.0000     0.0000 </r>
       <r>   -18.6396     0.0000     0.0000 </r>
       <r>   -18.6346     0.0000     0.0000 </r>
       <r>   -18.6296     0.0000     0.0000 </r>
       <r>   -18.6246     0.0000     0.0000 </r>
       <r>   -18.6196     0.0000     0.0000 </r>
       <r>   -18.6146     0.0000     0.0000 </r>
       <r>   -18.6095     0.0000     0.0000 </r>
       <r>   -18.6045     0.0000     0.0000 </r>
       <r>   -18.5995     0.0000     0.0000 </r>
       <r>   -18.5945     0.0000     0.0000 </r>
       <r>   -18.5895     0.0000     0.0000 </r>
       <r>   -18.5845     0.0000     0.0000 </r>
       <r>   -18.5795     0.0000     0.0000 </r>
       <r>   -18.5744     0.0000     0.0000 </r>
       <r>   -18.5694     0.0000     0.0000 </r>
       <r>   -18.5644     0.0000     0.0000 </r>
       <r>   -18.5594     0.0000     0.0000 </r>
       <r>   -18.5544     0.0000     0.0000 </r>
       <r>   -18.5494     0.0000     0.0000 </r>
       <r>   -18.5444     0.0000     0.0000 </r>
       <r>   -18.5393     0.0000     0.0000 </r>
       <r>   -18.5343     0.0000     0.0000 </r>
       <r>   -18.5293     0.0000     0.0000 </r>
       <r>   -18.5243     0.0000     0.0000 </r>
       <r>   -18.5193     0.0000     0.0000 </r>
       <r>   -18.5143     0.0000     0.0000 </r>
       <r>   -18.5093     0.0000     0.0000 </r>
       <r>   -18.5042     0.0000     0.0000 </r>
       <r>   -18.4992     0.0000     0.0000 </r>
       <r>   -18.4942     0.0000     0.0000 </r>
       <r>   -18.4892     0.0000     0.0000 </r>
       <r>   -18.4842     0.0000     0.0000 </r>
       <r>   -18.4792     0.0000     0.0000 </r>
       <r>   -18.4741     0.0000     0.0000 </r>
       <r>   -18.4691     0.0000     0.0000 </r>
       <r>   -18.4641     0.0000     0.0000 </r>
       <r>   -18.4591     0.0000     0.0000 </r>
       <r>   -18.4541     0.0000     0.0000 </r>
       <r>   -18.4491     0.0000     0.0000 </r>
       <r>   -18.4441     0.0000     0.0000 </r>
       <r>   -18.4390     0.0000     0.0000 </r>
       <r>   -18.4340     0.0000     0.0000 </r>
       <r>   -18.4290     0.0000     0.0000 </r>
       <r>   -18.4240     0.0000     0.0000 </r>
       <r>   -18.4190     0.0000     0.0000 </r>
       <r>   -18.4140     0.0000     0.0000 </r>
       <r>   -18.4090     0.0000     0.0000 </r>
       <r>   -18.4039     0.0000     0.0000 </r>
       <r>   -18.3989     0.0000     0.0000 </r>
       <r>   -18.3939     0.0000     0.0000 </r>
       <r>   -18.3889     0.0000     0.0000 </r>
       <r>   -18.3839     0.0000     0.0000 </r>
       <r>   -18.3789     0.0000     0.0000 </r>
       <r>   -18.3738     0.0000     0.0000 </r>
       <r>   -18.3688     0.0000     0.0000 </r>
       <r>   -18.3638     0.0000     0.0000 </r>
       <r>   -18.3588     0.0000     0.0000 </r>
       <r>   -18.3538     0.0000     0.0000 </r>
       <r>   -18.3488     0.0000     0.0000 </r>
       <r>   -18.3438     0.0000     0.0000 </r>
       <r>   -18.3387     0.0000     0.0000 </r>
       <r>   -18.3337     0.0000     0.0000 </r>
       <r>   -18.3287     0.0000     0.0000 </r>
       <r>   -18.3237     0.0000     0.0000 </r>
       <r>   -18.3187     0.0000     0.0000 </r>
       <r>   -18.3137     0.0000     0.0000 </r>
       <r>   -18.3087     0.0000     0.0000 </r>
       <r>   -18.3036     0.0000     0.0000 </r>
       <r>   -18.2986     0.0000     0.0000 </r>
       <r>   -18.2936     0.0000     0.0000 </r>
       <r>   -18.2886     0.0000     0.0000 </r>
       <r>   -18.2836     0.0000     0.0000 </r>
       <r>   -18.2786     0.0000     0.0000 </r>
       <r>   -18.2736     0.0000     0.0000 </r>
       <r>   -18.2685     0.0000     0.0000 </r>
       <r>   -18.2635     0.0000     0.0000 </r>
       <r>   -18.2585     0.0000     0.0000 </r>
       <r>   -18.2535     0.0000     0.0000 </r>
       <r>   -18.2485     0.0000     0.0000 </r>
       <r>   -18.2435     0.0000     0.0000 </r>
       <r>   -18.2384     0.0000     0.0000 </r>
       <r>   -18.2334     0.0000     0.0000 </r>
       <r>   -18.2284     0.0000     0.0000 </r>
       <r>   -18.2234     0.0000     0.0000 </r>
       <r>   -18.2184     0.0000     0.0000 </r>
       <r>   -18.2134     0.0000     0.0000 </r>
       <r>   -18.2084     0.0000     0.0000 </r>
       <r>   -18.2033     0.0000     0.0000 </r>
       <r>   -18.1983     0.0000     0.0000 </r>
       <r>   -18.1933     0.0000     0.0000 </r>
       <r>   -18.1883     0.0000     0.0000 </r>
       <r>   -18.1833     0.0000     0.0000 </r>
       <r>   -18.1783     0.0000     0.0000 </r>
       <r>   -18.1733     0.0000     0.0000 </r>
       <r>   -18.1682     0.0000     0.0000 </r>
       <r>   -18.1632     0.0000     0.0000 </r>
       <r>   -18.1582     0.0000     0.0000 </r>
       <r>   -18.1532     0.0000     0.0000 </r>
       <r>   -18.1482     0.0000     0.0000 </r>
       <r>   -18.1432     0.0000     0.0000 </r>
       <r>   -18.1382     0.0000     0.0000 </r>
       <r>   -18.1331     0.0000     0.0000 </r>
       <r>   -18.1281     0.0000     0.0000 </r>
       <r>   -18.1231     0.0000     0.0000 </r>
       <r>   -18.1181     0.0000     0.0000 </r>
       <r>   -18.1131     0.0000     0.0000 </r>
       <r>   -18.1081     0.0000     0.0000 </r>
       <r>   -18.1030     0.0000     0.0000 </r>
       <r>   -18.0980     0.0000     0.0000 </r>
       <r>   -18.0930     0.0000     0.0000 </r>
       <r>   -18.0880     0.0000     0.0000 </r>
       <r>   -18.0830     0.0000     0.0000 </r>
       <r>   -18.0780     0.0000     0.0000 </r>
       <r>   -18.0730     0.0000     0.0000 </r>
       <r>   -18.0679     0.0000     0.0000 </r>
       <r>   -18.0629     0.0000     0.0000 </r>
       <r>   -18.0579     0.0000     0.0000 </r>
       <r>   -18.0529     0.0000     0.0000 </r>
       <r>   -18.0479     0.0000     0.0000 </r>
       <r>   -18.0429     0.0000     0.0000 </r>
       <r>   -18.0379     0.0000     0.0000 </r>
       <r>   -18.0328     0.0000     0.0000 </r>
       <r>   -18.0278     0.0000     0.0000 </r>
       <r>   -18.0228     0.0000     0.0000 </r>
       <r>   -18.0178     0.0000     0.0000 </r>
       <r>   -18.0128     0.0000     0.0000 </r>
       <r>   -18.0078     0.0000     0.0000 </r>
       <r>   -18.0027     0.0000     0.0000 </r>
       <r>   -17.9977     0.0000     0.0000 </r>
       <r>   -17.9927     0.0000     0.0000 </r>
       <r>   -17.9877     0.0000     0.0000 </r>
       <r>   -17.9827     0.0000     0.0000 </r>
       <r>   -17.9777     0.0000     0.0000 </r>
       <r>   -17.9727     0.0000     0.0000 </r>
       <r>   -17.9676     0.0000     0.0000 </r>
       <r>   -17.9626     0.0000     0.0000 </r>
       <r>   -17.9576     0.0000     0.0000 </r>
       <r>   -17.9526     0.0000     0.0000 </r>
       <r>   -17.9476     0.0000     0.0000 </r>
       <r>   -17.9426     0.0000     0.0000 </r>
       <r>   -17.9376     0.0000     0.0000 </r>
       <r>   -17.9325     0.0000     0.0000 </r>
       <r>   -17.9275     0.0000     0.0000 </r>
       <r>   -17.9225     0.0000     0.0000 </r>
       <r>   -17.9175     0.0000     0.0000 </r>
       <r>   -17.9125     0.0000     0.0000 </r>
       <r>   -17.9075     0.0000     0.0000 </r>
       <r>   -17.9025     0.0000     0.0000 </r>
       <r>   -17.8974     0.0000     0.0000 </r>
       <r>   -17.8924     0.0000     0.0000 </r>
       <r>   -17.8874     0.0000     0.0000 </r>
       <r>   -17.8824     0.0000     0.0000 </r>
       <r>   -17.8774     0.0000     0.0000 </r>
       <r>   -17.8724     0.0000     0.0000 </r>
       <r>   -17.8673     0.0000     0.0000 </r>
       <r>   -17.8623     0.0000     0.0000 </r>
       <r>   -17.8573     0.0000     0.0000 </r>
       <r>   -17.8523     0.0000     0.0000 </r>
       <r>   -17.8473     0.0000     0.0000 </r>
       <r>   -17.8423     0.0000     0.0000 </r>
       <r>   -17.8373     0.0000     0.0000 </r>
       <r>   -17.8322     0.0000     0.0000 </r>
       <r>   -17.8272     0.0000     0.0000 </r>
       <r>   -17.8222     0.0000     0.0000 </r>
       <r>   -17.8172     0.0000     0.0000 </r>
       <r>   -17.8122     0.0000     0.0000 </r>
       <r>   -17.8072     0.0000     0.0000 </r>
       <r>   -17.8022     0.0000     0.0000 </r>
       <r>   -17.7971     0.0000     0.0000 </r>
       <r>   -17.7921     0.0000     0.0000 </r>
       <r>   -17.7871     0.0000     0.0000 </r>
       <r>   -17.7821     0.0000     0.0000 </r>
       <r>   -17.7771     0.0000     0.0000 </r>
       <r>   -17.7721     0.0000     0.0000 </r>
       <r>   -17.7671     0.0000     0.0000 </r>
       <r>   -17.7620     0.0000     0.0000 </r>
       <r>   -17.7570     0.0000     0.0000 </r>
       <r>   -17.7520     0.0000     0.0000 </r>
       <r>   -17.7470     0.0000     0.0000 </r>
       <r>   -17.7420     0.0000     0.0000 </r>
       <r>   -17.7370     0.0000     0.0000 </r>
       <r>   -17.7319     0.0000     0.0000 </r>
       <r>   -17.7269     0.0000     0.0000 </r>
       <r>   -17.7219     0.0000     0.0000 </r>
       <r>   -17.7169     0.0000     0.0000 </r>
       <r>   -17.7119     0.0000     0.0000 </r>
       <r>   -17.7069     0.0000     0.0000 </r>
       <r>   -17.7019     0.0000     0.0000 </r>
       <r>   -17.6968     0.0000     0.0000 </r>
       <r>   -17.6918     0.0000     0.0000 </r>
       <r>   -17.6868     0.0000     0.0000 </r>
       <r>   -17.6818     0.0000     0.0000 </r>
       <r>   -17.6768     0.0000     0.0000 </r>
       <r>   -17.6718     0.0000     0.0000 </r>
       <r>   -17.6668     0.0000     0.0000 </r>
       <r>   -17.6617     0.0000     0.0000 </r>
       <r>   -17.6567     0.0000     0.0000 </r>
       <r>   -17.6517     0.0000     0.0000 </r>
       <r>   -17.6467     0.0000     0.0000 </r>
       <r>   -17.6417     0.0000     0.0000 </r>
       <r>   -17.6367     0.0000     0.0000 </r>
       <r>   -17.6316     0.0000     0.0000 </r>
       <r>   -17.6266     0.0000     0.0000 </r>
       <r>   -17.6216     0.0000     0.0000 </r>
       <r>   -17.6166     0.0000     0.0000 </r>
       <r>   -17.6116     0.0000     0.0000 </r>
       <r>   -17.6066     0.0000     0.0000 </r>
       <r>   -17.6016     0.0000     0.0000 </r>
       <r>   -17.5965     0.0000     0.0000 </r>
       <r>   -17.5915     0.0000     0.0000 </r>
       <r>   -17.5865     0.0000     0.0000 </r>
       <r>   -17.5815     0.0000     0.0000 </r>
       <r>   -17.5765     0.0000     0.0000 </r>
       <r>   -17.5715     0.0000     0.0000 </r>
       <r>   -17.5665     0.0000     0.0000 </r>
       <r>   -17.5614     0.0000     0.0000 </r>
       <r>   -17.5564     0.0000     0.0000 </r>
       <r>   -17.5514     0.0000     0.0000 </r>
       <r>   -17.5464     0.0000     0.0000 </r>
       <r>   -17.5414     0.0000     0.0000 </r>
       <r>   -17.5364     0.0000     0.0000 </r>
       <r>   -17.5314     0.0000     0.0000 </r>
       <r>   -17.5263     0.0000     0.0000 </r>
       <r>   -17.5213     0.0000     0.0000 </r>
       <r>   -17.5163     0.0000     0.0000 </r>
       <r>   -17.5113     0.0000     0.0000 </r>
       <r>   -17.5063     0.0000     0.0000 </r>
       <r>   -17.5013     0.0000     0.0000 </r>
       <r>   -17.4962     0.0008     0.0000 </r>
       <r>   -17.4912     0.0075     0.0000 </r>
       <r>   -17.4862     0.0457     0.0003 </r>
       <r>   -17.4812     0.1704     0.0011 </r>
       <r>   -17.4762     0.3921     0.0031 </r>
       <r>   -17.4712     0.5569     0.0059 </r>
       <r>   -17.4662     0.4882     0.0083 </r>
       <r>   -17.4611     0.2642     0.0097 </r>
       <r>   -17.4561     0.0882     0.0101 </r>
       <r>   -17.4511     0.0182     0.0102 </r>
       <r>   -17.4461     0.0023     0.0102 </r>
       <r>   -17.4411     0.0002     0.0102 </r>
       <r>   -17.4361     0.0000     0.0102 </r>
       <r>   -17.4311     0.0000     0.0102 </r>
       <r>   -17.4260     0.0000     0.0102 </r>
       <r>   -17.4210     0.0001     0.0102 </r>
       <r>   -17.4160     0.0018     0.0102 </r>
       <r>   -17.4110     0.0210     0.0103 </r>
       <r>   -17.4060     0.1515     0.0111 </r>
       <r>   -17.4010     0.6729     0.0145 </r>
       <r>   -17.3960     1.8426     0.0237 </r>
       <r>   -17.3909     3.1132     0.0393 </r>
[...]
       </set>
       <set comment="band 13">
        <r>  0.0055  0.0033  0.0385 </r>
        <r>  0.0055  0.0033  0.0385 </r>
       </set>
       <set comment="band 14">
        <r>  0.0133  0.0709  0.1316 </r>
        <r>  0.0133  0.0709  0.1316 </r>
       </set>
       <set comment="band 15">
        <r>  0.0304  0.0856  0.1620 </r>
        <r>  0.0304  0.0856  0.1620 </r>
       </set>
       <set comment="band 16">
        <r>  0.0093  0.0557  0.0482 </r>
        <r>  0.0093  0.0557  0.0482 </r>
       </set>
      </set>
      <set comment="kpoint 16">
       <set comment="band 1">
        <r>  0.2561  0.0316  0.0026 </r>
        <r>  0.2561  0.0316  0.0026 </r>
       </set>
       <set comment="band 2">
        <r>  0.2930  0.0463  0.0116 </r>
        <r>  0.2930  0.0463  0.0116 </r>
       </set>
       <set comment="band 3">
        <r>  0.0133  0.2044  0.0102 </r>
        <r>  0.0133  0.2044  0.0102 </r>
       </set>
       <set comment="band 4">
        <r>  0.0105  0.2395  0.0221 </r>
        <r>  0.0105  0.2395  0.0221 </r>
       </set>
       <set comment="band 5">
        <r>  0.0292  0.2418  0.0023 </r>
        <r>  0.0292  0.2418  0.0023 </r>
       </set>
       <set comment="band 6">
        <r>  0.0402  0.1867  0.0323 </r>
        <r>  0.0402  0.1867  0.0323 </r>
       </set>
       <set comment="band 7">
        <r>  0.0136  0.2405  0.0299 </r>
        <r>  0.0136  0.2405  0.0299 </r>
       </set>
       <set comment="band 8">
        <r>  0.0350  0.1465  0.0742 </r>
        <r>  0.0350  0.1465  0.0742 </r>
       </set>
       <set comment="band 9">
        <r>  0.0180  0.0833  0.0684 </r>
        <r>  0.0180  0.0833  0.0684 </r>
       </set>
       <set comment="band 10">
        <r>  0.0015  0.0261  0.0328 </r>
        <r>  0.0015  0.0261  0.0328 </r>
       </set>
       <set comment="band 11">
        <r>  0.0010  0.0156  0.0288 </r>
        <r>  0.0010  0.0156  0.0288 </r>
       </set>
       <set comment="band 12">
        <r>  0.0019  0.0306  0.0789 </r>
        <r>  0.0019  0.0306  0.0789 </r>
       </set>
       <set comment="band 13">
        <r>  0.0003  0.0308  0.0712 </r>
        <r>  0.0003  0.0308  0.0712 </r>
       </set>
       <set comment="band 14">
        <r>  0.0122  0.0240  0.0278 </r>
        <r>  0.0122  0.0240  0.0278 </r>
       </set>
       <set comment="band 15">
        <r>  0.0031  0.0492  0.0916 </r>
        <r>  0.0031  0.0492  0.0916 </r>
       </set>
       <set comment="band 16">
        <r>  0.0401  0.1180  0.1275 </r>
        <r>  0.0401  0.1180  0.1275 </r>
       </set>
      </set>
      <set comment="kpoint 17">
       <set comment="band 1">
        <r>  0.2566  0.0372  0.0038 </r>
        <r>  0.2566  0.0372  0.0038 </r>
       </set>
       <set comment="band 2">
        <r>  0.2606  0.0662  0.0118 </r>
        <r>  0.2606  0.0662  0.0118 </r>
       </set>
       <set comment="band 3">
        <r>  0.0559  0.1826  0.0089 </r>
        <r>  0.0559  0.1826  0.0089 </r>
       </set>
       <set comment="band 4">
        <r>  0.0094  0.2285  0.0169 </r>
        <r>  0.0094  0.2285  0.0169 </r>
       </set>
       <set comment="band 5">
        <r>  0.0443  0.2366  0.0022 </r>
        <r>  0.0443  0.2366  0.0022 </r>
       </set>
       <set comment="band 6">
        <r>  0.0277  0.1750  0.0355 </r>
        <r>  0.0277  0.1750  0.0355 </r>
       </set>
       <set comment="band 7">
        <r>  0.0117  0.2100  0.0420 </r>
        <r>  0.0117  0.2100  0.0420 </r>
       </set>
       <set comment="band 8">
        <r>  0.0298  0.1442  0.0701 </r>
        <r>  0.0298  0.1442  0.0701 </r>
       </set>
       <set comment="band 9">
        <r>  0.0075  0.1142  0.0802 </r>
        <r>  0.0075  0.1142  0.0802 </r>
       </set>
       <set comment="band 10">
        <r>  0.0062  0.0186  0.0142 </r>
        <r>  0.0062  0.0186  0.0142 </r>
       </set>
       <set comment="band 11">
        <r>  0.0001  0.0177  0.0153 </r>
        <r>  0.0001  0.0177  0.0153 </r>
       </set>
       <set comment="band 12">
        <r>  0.0078  0.0490  0.1542 </r>
        <r>  0.0078  0.0490  0.1542 </r>
       </set>
       <set comment="band 13">
        <r>  0.0020  0.0369  0.0207 </r>
        <r>  0.0020  0.0369  0.0207 </r>
       </set>
       <set comment="band 14">
        <r>  0.0088  0.0064  0.0142 </r>
        <r>  0.0088  0.0064  0.0142 </r>
       </set>
       <set comment="band 15">
        <r>  0.0000  0.0330  0.0996 </r>
        <r>  0.0000  0.0330  0.0996 </r>
       </set>
       <set comment="band 16">
        <r>  0.0201  0.0377  0.0428 </r>
        <r>  0.0201  0.0377  0.0428 </r>
       </set>
      </set>
      <set comment="kpoint 18">
       <set comment="band 1">
        <r>  0.2616  0.0409  0.0056 </r>
        <r>  0.2616  0.0409  0.0056 </r>
       </set>
       <set comment="band 2">
        <r>  0.2360  0.0739  0.0097 </r>
        <r>  0.2360  0.0739  0.0097 </r>
       </set>
       <set comment="band 3">
        <r>  0.0533  0.1983  0.0137 </r>
        <r>  0.0533  0.1983  0.0137 </r>
       </set>
       <set comment="band 4">
        <r>  0.0397  0.2034  0.0091 </r>
        <r>  0.0397  0.2034  0.0091 </r>
       </set>
       <set comment="band 5">
        <r>  0.0518  0.2181  0.0035 </r>
        <r>  0.0518  0.2181  0.0035 </r>
       </set>
       <set comment="band 6">
        <r>  0.0108  0.1827  0.0366 </r>
        <r>  0.0108  0.1827  0.0366 </r>
       </set>
       <set comment="band 7">
        <r>  0.0306  0.1798  0.0591 </r>
        <r>  0.0306  0.1798  0.0591 </r>
       </set>
       <set comment="band 8">
        <r>  0.0181  0.1772  0.0495 </r>
        <r>  0.0181  0.1772  0.0495 </r>
       </set>
       <set comment="band 9">
        <r>  0.0007  0.0627  0.0998 </r>
        <r>  0.0007  0.0627  0.0998 </r>
       </set>
       <set comment="band 10">
        <r>  0.0103  0.0112  0.0145 </r>
        <r>  0.0103  0.0112  0.0145 </r>
       </set>
       <set comment="band 11">
        <r>  0.0002  0.0266  0.0102 </r>
        <r>  0.0002  0.0266  0.0102 </r>
       </set>
       <set comment="band 12">
        <r>  0.0061  0.0946  0.1237 </r>
        <r>  0.0061  0.0946  0.1237 </r>
       </set>
       <set comment="band 13">
        <r>  0.0009  0.0487  0.0347 </r>
        <r>  0.0009  0.0487  0.0347 </r>
       </set>
       <set comment="band 14">
        <r>  0.0052  0.0069  0.0333 </r>
        <r>  0.0052  0.0069  0.0333 </r>
       </set>
       <set comment="band 15">
        <r>  0.0084  0.0278  0.0095 </r>
        <r>  0.0084  0.0278  0.0095 </r>
       </set>
       <set comment="band 16">
        <r>  0.0012  0.0182  0.0688 </r>
        <r>  0.0012  0.0182  0.0688 </r>
       </set>
      </set>
      <set comment="kpoint 19">
       <set comment="band 1">
        <r>  0.2708  0.0401  0.0069 </r>
        <r>  0.2708  0.0401  0.0069 </r>
       </set>
       <set comment="band 2">
        <r>  0.2211  0.0776  0.0080 </r>
        <r>  0.2211  0.0776  0.0080 </r>
       </set>
       <set comment="band 3">
        <r>  0.0507  0.2016  0.0143 </r>
        <r>  0.0507  0.2016  0.0143 </r>
       </set>
       <set comment="band 4">
        <r>  0.0541  0.2026  0.0075 </r>
        <r>  0.0541  0.2026  0.0075 </r>
       </set>
       <set comment="band 5">
        <r>  0.0506  0.2053  0.0043 </r>
        <r>  0.0506  0.2053  0.0043 </r>
       </set>
       <set comment="band 6">
        <r>  0.0002  0.1899  0.0357 </r>
        <r>  0.0002  0.1899  0.0357 </r>
       </set>
       <set comment="band 7">
        <r>  0.0436  0.1681  0.0661 </r>
        <r>  0.0436  0.1681  0.0661 </r>
       </set>
       <set comment="band 8">
        <r>  0.0131  0.2022  0.0380 </r>
        <r>  0.0131  0.2022  0.0380 </r>
       </set>
       <set comment="band 9">
        <r>  0.0000  0.0301  0.1070 </r>
        <r>  0.0000  0.0301  0.1070 </r>
       </set>
       <set comment="band 10">
        <r>  0.0136  0.0249  0.0446 </r>
        <r>  0.0136  0.0249  0.0446 </r>
       </set>
       <set comment="band 11">
        <r>  0.0084  0.0302  0.0159 </r>
        <r>  0.0084  0.0302  0.0159 </r>
       </set>
       <set comment="band 12">
        <r>  0.0000  0.0509  0.0511 </r>
        <r>  0.0000  0.0509  0.0511 </r>
       </set>
       <set comment="band 13">
        <r>  0.0001  0.0583  0.0098 </r>
        <r>  0.0001  0.0583  0.0098 </r>
       </set>
       <set comment="band 14">
        <r>  0.0006  0.0082  0.0390 </r>
        <r>  0.0006  0.0082  0.0390 </r>
       </set>
       <set comment="band 15">
        <r>  0.0010  0.0513  0.0337 </r>
        <r>  0.0010  0.0513  0.0337 </r>
       </set>
       <set comment="band 16">
        <r>  0.0007  0.0044  0.0582 </r>
        <r>  0.0007  0.0044  0.0582 </r>
       </set>
      </set>
      <set comment="kpoint 20">
       <set comment="band 1">
        <r>  0.2559  0.0370  0.0037 </r>
        <r>  0.2559  0.0370  0.0037 </r>
       </set>
       <set comment="band 2">
        <r>  0.2777  0.0589  0.0122 </r>
        <r>  0.2777  0.0589  0.0122 </r>
       </set>
       <set comment="band 3">
        <r>  0.0128  0.2228  0.0190 </r>
        <r>  0.0128  0.2228  0.0190 </r>
       </set>
       <set comment="band 4">
        <r>  0.0373  0.1885  0.0071 </r>
        <r>  0.0373  0.1885  0.0071 </r>
       </set>
       <set comment="band 5">
        <r>  0.0417  0.2416  0.0022 </r>
        <r>  0.0417  0.2416  0.0022 </r>
       </set>
       <set comment="band 6">
        <r>  0.0069  0.2087  0.0323 </r>
        <r>  0.0069  0.2087  0.0323 </r>
       </set>
       <set comment="band 7">
        <r>  0.0301  0.1683  0.0347 </r>
        <r>  0.0301  0.1683  0.0347 </r>
       </set>
       <set comment="band 8">
        <r>  0.0504  0.2416  0.0409 </r>
        <r>  0.0504  0.2416  0.0409 </r>
       </set>
       <set comment="band 9">
        <r>  0.0003  0.0526  0.1363 </r>
        <r>  0.0003  0.0526  0.1363 </r>
       </set>
       <set comment="band 10">
        <r>  0.0055  0.0047  0.0279 </r>
        <r>  0.0055  0.0047  0.0279 </r>
       </set>
       <set comment="band 11">
        <r>  0.0002  0.0169  0.0133 </r>
        <r>  0.0002  0.0169  0.0133 </r>
       </set>
       <set comment="band 12">
        <r>  0.0026  0.0389  0.1339 </r>
        <r>  0.0026  0.0389  0.1339 </r>
       </set>
       <set comment="band 13">
        <r>  0.0006  0.0385  0.0228 </r>
        <r>  0.0006  0.0385  0.0228 </r>
       </set>
       <set comment="band 14">
        <r>  0.0092  0.0088  0.0120 </r>
        <r>  0.0092  0.0088  0.0120 </r>
       </set>
       <set comment="band 15">
        <r>  0.0000  0.0175  0.0928 </r>
        <r>  0.0000  0.0175  0.0928 </r>
       </set>
       <set comment="band 16">
        <r>  0.0057  0.0336  0.0289 </r>
        <r>  0.0057  0.0336  0.0289 </r>
       </set>
      </set>
      <set comment="kpoint 21">
       <set comment="band 1">
        <r>  0.2579  0.0421  0.0051 </r>
        <r>  0.2579  0.0421  0.0051 </r>
       </set>
       <set comment="band 2">
        <r>  0.2617  0.0643  0.0110 </r>
        <r>  0.2617  0.0643  0.0110 </r>
       </set>
       <set comment="band 3">
        <r>  0.0170  0.2123  0.0163 </r>
        <r>  0.0170  0.2123  0.0163 </r>
       </set>
       <set comment="band 4">
        <r>  0.0543  0.1857  0.0061 </r>
        <r>  0.0543  0.1857  0.0061 </r>
       </set>
       <set comment="band 5">
        <r>  0.0528  0.2294  0.0029 </r>
        <r>  0.0528  0.2294  0.0029 </r>
       </set>
       <set comment="band 6">
        <r>  0.0039  0.1887  0.0329 </r>
        <r>  0.0039  0.1887  0.0329 </r>
       </set>
       <set comment="band 7">
        <r>  0.0234  0.1685  0.0389 </r>
        <r>  0.0234  0.1685  0.0389 </r>
       </set>
       <set comment="band 8">
        <r>  0.0369  0.2135  0.0522 </r>
        <r>  0.0369  0.2135  0.0522 </r>
       </set>
       <set comment="band 9">
        <r>  0.0020  0.0778  0.1234 </r>
        <r>  0.0020  0.0778  0.1234 </r>
       </set>
       <set comment="band 10">
        <r>  0.0008  0.0346  0.1243 </r>
        <r>  0.0008  0.0346  0.1243 </r>
       </set>
       <set comment="band 11">
        <r>  0.0145  0.0287  0.0373 </r>
        <r>  0.0145  0.0287  0.0373 </r>
       </set>
       <set comment="band 12">
        <r>  0.0001  0.0373  0.0222 </r>
        <r>  0.0001  0.0373  0.0222 </r>
       </set>
       <set comment="band 13">
        <r>  0.0001  0.0299  0.0504 </r>
        <r>  0.0001  0.0299  0.0504 </r>
       </set>
       <set comment="band 14">
        <r>  0.0013  0.0050  0.0427 </r>
        <r>  0.0013  0.0050  0.0427 </r>
       </set>
       <set comment="band 15">
        <r>  0.0076  0.0078  0.0158 </r>
        <r>  0.0076  0.0078  0.0158 </r>
       </set>
       <set comment="band 16">
        <r>  0.0048  0.0270  0.0169 </r>
        <r>  0.0048  0.0270  0.0169 </r>
       </set>
      </set>
      <set comment="kpoint 22">
       <set comment="band 1">
        <r>  0.2653  0.0444  0.0069 </r>
        <r>  0.2653  0.0444  0.0069 </r>
       </set>
       <set comment="band 2">
        <r>  0.2463  0.0667  0.0091 </r>
        <r>  0.2463  0.0667  0.0091 </r>
       </set>
       <set comment="band 3">
        <r>  0.0209  0.2070  0.0149 </r>
        <r>  0.0209  0.2070  0.0149 </r>
       </set>
       <set comment="band 4">
        <r>  0.0638  0.1922  0.0055 </r>
        <r>  0.0638  0.1922  0.0055 </r>
       </set>
       <set comment="band 5">
        <r>  0.0569  0.2123  0.0040 </r>
        <r>  0.0569  0.2123  0.0040 </r>
       </set>
       <set comment="band 6">
        <r>  0.0014  0.1834  0.0327 </r>
        <r>  0.0014  0.1834  0.0327 </r>
       </set>
       <set comment="band 7">
        <r>  0.0230  0.1811  0.0429 </r>
        <r>  0.0230  0.1811  0.0429 </r>
       </set>
       <set comment="band 8">
        <r>  0.0296  0.2001  0.0492 </r>
        <r>  0.0296  0.2001  0.0492 </r>
       </set>
       <set comment="band 9">
        <r>  0.0010  0.0371  0.1304 </r>
        <r>  0.0010  0.0371  0.1304 </r>
       </set>
       <set comment="band 10">
        <r>  0.0065  0.0609  0.0985 </r>
        <r>  0.0065  0.0609  0.0985 </r>
       </set>
       <set comment="band 11">
        <r>  0.0055  0.0131  0.0195 </r>
        <r>  0.0055  0.0131  0.0195 </r>
       </set>
       <set comment="band 12">
        <r>  0.0025  0.0982  0.0628 </r>
        <r>  0.0025  0.0982  0.0628 </r>
       </set>
       <set comment="band 13">
        <r>  0.0014  0.0287  0.0442 </r>
        <r>  0.0014  0.0287  0.0442 </r>
       </set>
       <set comment="band 14">
        <r>  0.0060  0.0161  0.0143 </r>
        <r>  0.0060  0.0161  0.0143 </r>
       </set>
       <set comment="band 15">
        <r>  0.0019  0.0342  0.0566 </r>
        <r>  0.0019  0.0342  0.0566 </r>
       </set>
       <set comment="band 16">
        <r>  0.0002  0.0159  0.0314 </r>
        <r>  0.0002  0.0159  0.0314 </r>
       </set>
      </set>
      <set comment="kpoint 23">
       <set comment="band 1">
        <r>  0.2611  0.0468  0.0067 </r>
        <r>  0.2611  0.0468  0.0067 </r>
       </set>
       <set comment="band 2">
        <r>  0.2634  0.0596  0.0099 </r>
        <r>  0.2634  0.0596  0.0099 </r>
       </set>
       <set comment="band 3">
        <r>  0.0062  0.2100  0.0145 </r>
        <r>  0.0062  0.2100  0.0145 </r>
       </set>
       <set comment="band 4">
        <r>  0.0646  0.1897  0.0051 </r>
        <r>  0.0646  0.1897  0.0051 </r>
       </set>
       <set comment="band 5">
        <r>  0.0606  0.2179  0.0036 </r>
        <r>  0.0606  0.2179  0.0036 </r>
       </set>
       <set comment="band 6">
        <r>  0.0015  0.1765  0.0319 </r>
        <r>  0.0015  0.1765  0.0319 </r>
       </set>
       <set comment="band 7">
        <r>  0.0192  0.1682  0.0414 </r>
        <r>  0.0192  0.1682  0.0414 </r>
       </set>
       <set comment="band 8">
        <r>  0.0289  0.2276  0.0344 </r>
        <r>  0.0289  0.2276  0.0344 </r>
       </set>
       <set comment="band 9">
        <r>  0.0014  0.0599  0.1631 </r>
        <r>  0.0014  0.0599  0.1631 </r>
       </set>
       <set comment="band 10">
        <r>  0.0122  0.0727  0.1354 </r>
        <r>  0.0122  0.0727  0.1354 </r>
       </set>
       <set comment="band 11">
        <r>  0.0014  0.0583  0.0657 </r>
        <r>  0.0014  0.0583  0.0657 </r>
       </set>
       <set comment="band 12">
        <r>  0.0072  0.0118  0.0136 </r>
        <r>  0.0072  0.0118  0.0136 </r>
       </set>
       <set comment="band 13">
        <r>  0.0004  0.0029  0.0179 </r>
        <r>  0.0004  0.0029  0.0179 </r>
       </set>
       <set comment="band 14">
        <r>  0.0000  0.0629  0.0511 </r>
        <r>  0.0000  0.0629  0.0511 </r>
       </set>
       <set comment="band 15">
        <r>  0.0091  0.0433  0.0295 </r>
        <r>  0.0091  0.0433  0.0295 </r>
       </set>
       <set comment="band 16">
        <r>  0.0063  0.0043  0.0218 </r>
        <r>  0.0063  0.0043  0.0218 </r>
       </set>
      </set>
      <set comment="kpoint 24">
       <set comment="band 1">
        <r>  0.2662  0.0489  0.0079 </r>
        <r>  0.2662  0.0489  0.0079 </r>
       </set>
       <set comment="band 2">
        <r>  0.2600  0.0573  0.0089 </r>
        <r>  0.2600  0.0573  0.0089 </r>
       </set>
       <set comment="band 3">
        <r>  0.0033  0.2089  0.0137 </r>
        <r>  0.0033  0.2089  0.0137 </r>
       </set>
       <set comment="band 4">
        <r>  0.0675  0.1981  0.0047 </r>
        <r>  0.0675  0.1981  0.0047 </r>
       </set>
       <set comment="band 5">
        <r>  0.0634  0.2077  0.0042 </r>
        <r>  0.0634  0.2077  0.0042 </r>
       </set>
       <set comment="band 6">
        <r>  0.0004  0.1714  0.0315 </r>
        <r>  0.0004  0.1714  0.0315 </r>
       </set>
       <set comment="band 7">
        <r>  0.0180  0.1803  0.0416 </r>
        <r>  0.0180  0.1803  0.0416 </r>
       </set>
       <set comment="band 8">
        <r>  0.0241  0.2011  0.0397 </r>
        <r>  0.0241  0.2011  0.0397 </r>
       </set>
       <set comment="band 9">
        <r>  0.0017  0.0488  0.1590 </r>
        <r>  0.0017  0.0488  0.1590 </r>
       </set>
       <set comment="band 10">
        <r>  0.0082  0.0659  0.0938 </r>
        <r>  0.0082  0.0659  0.0938 </r>
       </set>
       <set comment="band 11">
        <r>  0.0081  0.1487  0.0990 </r>
        <r>  0.0081  0.1487  0.0990 </r>
       </set>
       <set comment="band 12">
        <r>  0.0042  0.0655  0.1340 </r>
        <r>  0.0042  0.0655  0.1340 </r>
       </set>
       <set comment="band 13">
        <r>  0.0072  0.0065  0.0264 </r>
        <r>  0.0072  0.0065  0.0264 </r>
       </set>
       <set comment="band 14">
        <r>  0.0046  0.0204  0.0095 </r>
        <r>  0.0046  0.0204  0.0095 </r>
       </set>
       <set comment="band 15">
        <r>  0.0011  0.0063  0.0161 </r>
        <r>  0.0011  0.0063  0.0161 </r>
       </set>
       <set comment="band 16">
        <r>  0.0001  0.0023  0.0123 </r>
        <r>  0.0001  0.0023  0.0123 </r>
       </set>
      </set>
     </set>
    </set>
   </array>
  </projected>
 </calculation>
 <structure name="finalpos" >
  <crystal>
   <varray name="basis" >
    <v>       3.28234349       0.00000000       0.00000000 </v>
    <v>      -1.64117175       2.84259285       0.00000000 </v>
    <v>       0.00000000       0.00000000      16.00000000 </v>
   </varray>
   <i name="volume">    149.28585836 </i>
   <varray name="rec_basis" >
    <v>       0.30466038       0.17589575       0.00000000 </v>
    <v>       0.00000000       0.35179150       0.00000000 </v>
    <v>       0.00000000       0.00000000       0.06250000 </v>
   </varray>
  </crystal>
  <varray name="positions" >
   <v>       0.66666667       0.33333333       0.46118284 </v>
   <v>       0.33333333       0.66666667       0.53881716 </v>
  </varray>
 </structure>
</modeling>
