Automatically generated mesh
      20
Reciprocal lattice
    0.00000000000000    0.00000000000000    0.00000000000000             1
    0.14285714285715    0.00000000000000    0.00000000000000             6
    0.28571428571428   -0.00000000000000    0.00000000000000             6
    0.42857142857143   -0.00000000000000    0.00000000000000             6
    0.14285714285715    0.14285714285715    0.00000000000000             6
    0.28571428571428    0.14285714285715    0.00000000000000            12
    0.42857142857143    0.14285714285715    0.00000000000000             6
    0.28571428571428    0.28571428571428    0.00000000000000             6
    0.00000000000000    0.00000000000000    0.33333333333334             2
    0.14285714285715    0.00000000000000    0.33333333333334             6
    0.00000000000000    0.14285714285715    0.33333333333334             6
    0.28571428571428   -0.00000000000000    0.33333333333334             6
    0.00000000000000    0.28571428571428    0.33333333333334             6
    0.42857142857143   -0.00000000000000    0.33333333333334             6
    0.00000000000000    0.42857142857143    0.33333333333334             6
    0.14285714285715    0.14285714285715    0.33333333333334            12
    0.28571428571428    0.14285714285715    0.33333333333334            12
   -0.14285714285715    0.42857142857143    0.33333333333334            12
    0.42857142857143    0.14285714285715    0.33333333333334            12
    0.28571428571428    0.28571428571428    0.33333333333334            12
