 running   16 mpi-ranks, on    1 nodes
 distrk:  each k-point on   16 cores,    1 groups
 distr:  one band on    1 cores,   16 groups
 vasp.6.4.2 20Jul23 (build Nov 14 2023 12:59:38) complex                        
  
 POSCAR found type information on POSCAR H 
 POSCAR found :  1 types and      18 ions
 Reading from existing POTCAR
 scaLAPACK will be used
 -----------------------------------------------------------------------------
|                                                                             |
|           W    W    AA    RRRRR   N    N  II  N    N   GGGG   !!!           |
|           W    W   A  A   R    R  NN   N  II  NN   N  G    G  !!!           |
|           W    W  A    A  R    R  N N  N  II  N N  N  G       !!!           |
|           W WW W  AAAAAA  RRRRR   N  N N  II  N  N N  G  GGG   !            |
|           WW  WW  A    A  R   R   N   NN  II  N   NN  G    G                |
|           W    W  A    A  R    R  N    N  II  N    N   GGGG   !!!           |
|                                                                             |
|     For optimal performance we recommend to set                             |
|       NCORE = 2 up to number-of-cores-per-socket                            |
|     NCORE specifies how many cores store one orbital (NPAR=cpu/NCORE).      |
|     This setting can greatly improve the performance of VASP for DFT.       |
|     The default, NCORE=1 might be grossly inefficient on modern             |
|     multi-core architectures or massively parallel machines. Do your        |
|     own testing! More info at https://www.vasp.at/wiki/index.php/NCORE      |
|     Unfortunately you need to use the default for GW and RPA                |
|     calculations (for HF NCORE is supported but not extensively tested      |
|     yet).                                                                   |
|                                                                             |
 -----------------------------------------------------------------------------

 Reading from existing POTCAR
 WARNING: type information on POSCAR and POTCAR are incompatible
 POTCAR overwrites the type information in POSCAR
 typ   1 type information:  H  N 
 -----------------------------------------------------------------------------
|                                                                             |
|               ----> ADVICE to this user running VASP <----                  |
|                                                                             |
|     You have a (more or less) 'large supercell' and for larger cells it     |
|     might be more efficient to use real-space projection operators.         |
|     Therefore, try LREAL= Auto in the INCAR file.                           |
|     Mind: For very accurate calculation, you might also keep the            |
|     reciprocal projection scheme (i.e. LREAL=.FALSE.).                      |
|                                                                             |
 -----------------------------------------------------------------------------

 LDA part: xc-table for Pade appr. of Perdew
 POSCAR, INCAR and KPOINTS ok, starting setup
 FFT: planning ... GRIDC
 FFT: planning ... GRID_SOFT
 FFT: planning ... GRID
 WAVECAR not read
 entering main loop
       N       E                     dE             d eps       ncg     rms          rms(c)
DAV:   1     0.932332931154E+03    0.93233E+03   -0.34930E+04  2608   0.105E+03
DAV:   2     0.103356313377E+02   -0.92200E+03   -0.86561E+03  4112   0.291E+02
DAV:   3    -0.122952690953E+03   -0.13329E+03   -0.13199E+03  3232   0.132E+02
DAV:   4    -0.126352817537E+03   -0.34001E+01   -0.33803E+01  4000   0.277E+01
DAV:   5    -0.126399047422E+03   -0.46230E-01   -0.46137E-01  3584   0.267E+00
DAV:   6    -0.126400438332E+03   -0.13909E-02   -0.13888E-02  3824   0.518E-01
DAV:   7    -0.126400488509E+03   -0.50177E-04   -0.50141E-04  3520   0.791E-02
DAV:   8    -0.126400490757E+03   -0.22485E-05   -0.22477E-05  3728   0.154E-02
DAV:   9    -0.126400490876E+03   -0.11867E-06   -0.11809E-06  3248   0.279E-03
DAV:  10    -0.126400490881E+03   -0.52569E-08   -0.55558E-08  3232   0.615E-04
DAV:  11    -0.126400490882E+03   -0.87675E-09   -0.22811E-09  2896   0.189E-04
DAV:  12    -0.126400490882E+03   -0.15643E-09    0.13807E-11  2768   0.108E-04    0.182E+01
DAV:  13    -0.124717926536E+03    0.16826E+01   -0.23899E-01  3536   0.253E+00    0.160E+01
DAV:  14    -0.120721477851E+03    0.39964E+01   -0.12303E+01  3840   0.169E+01    0.210E+00
DAV:  15    -0.120759076310E+03   -0.37598E-01   -0.99821E-01  3184   0.486E+00    0.153E+00
DAV:  16    -0.120778452516E+03   -0.19376E-01   -0.63614E-02  3456   0.140E+00    0.620E-01
DAV:  17    -0.120779154556E+03   -0.70204E-03   -0.22233E-02  3216   0.714E-01    0.255E-01
DAV:  18    -0.120778946561E+03    0.20800E-03   -0.12644E-03  4000   0.167E-01    0.195E-01
DAV:  19    -0.120778769768E+03    0.17679E-03   -0.50040E-04  3360   0.991E-02    0.958E-02
DAV:  20    -0.120778921825E+03   -0.15206E-03   -0.84209E-05  3568   0.493E-02    0.760E-02
DAV:  21    -0.120778834710E+03    0.87115E-04   -0.24658E-04  3712   0.783E-02    0.746E-03
DAV:  22    -0.120778836907E+03   -0.21964E-05   -0.18583E-05  3552   0.203E-02    0.793E-03
DAV:  23    -0.120778839403E+03   -0.24965E-05   -0.19069E-06  3648   0.512E-03    0.374E-03
DAV:  24    -0.120778840186E+03   -0.78267E-06   -0.85849E-08  2544   0.160E-03    0.209E-03
DAV:  25    -0.120778840359E+03   -0.17291E-06   -0.25878E-08  2208   0.976E-04    0.147E-03
DAV:  26    -0.120778840693E+03   -0.33363E-06   -0.84753E-08  2240   0.130E-03    0.320E-04
DAV:  27    -0.120778840712E+03   -0.19379E-07   -0.11673E-08  2224   0.826E-04
   1 F= -.12077884E+03 E0= -.12077884E+03  d E =-.321080E-13
 Linear response reoptimize wavefunctions to high precision
DAV:   1    -0.120778840706E+03    0.61054E-08   -0.23352E-09  2496   0.311E-04
DAV:   2    -0.120778840706E+03   -0.50932E-10   -0.12461E-10  2208   0.154E-04
 Linear response DOF=           2
 Linear response progress:
  Degree of freedom:   1/  2
       N       E                     dE             d eps       ncg     rms          rms(c)
RMM:   1    -0.252137465351E+00   -0.25214E+00    0.55743E-02 20356   0.262E+00
RMM:   2    -0.232901689909E+00    0.19236E-01   -0.13045E-02 15258   0.611E-01    0.253E-01
RMM:   3    -0.233300119377E+00   -0.39843E-03   -0.17012E-03 18424   0.130E-01    0.225E-01
RMM:   4    -0.234312742120E+00   -0.10126E-02   -0.12512E-03 15524   0.171E-01    0.716E-02
RMM:   5    -0.234191686929E+00    0.12106E-03   -0.21773E-04 17803   0.546E-02    0.658E-02
RMM:   6    -0.233745251402E+00    0.44644E-03   -0.76702E-04 17208   0.118E-01    0.588E-02
RMM:   7    -0.234080840126E+00   -0.33559E-03   -0.19332E-04 13432   0.752E-02    0.235E-02
RMM:   8    -0.233913012124E+00    0.16783E-03   -0.45298E-05 17079   0.233E-02    0.165E-02
RMM:   9    -0.233846617621E+00    0.66395E-04   -0.81751E-06 14258   0.154E-02    0.550E-03
RMM:  10    -0.233819450673E+00    0.27167E-04   -0.50029E-06 17888   0.668E-03    0.198E-03
RMM:  11    -0.233811185668E+00    0.82650E-05   -0.17937E-07 16303   0.218E-03    0.161E-03
RMM:  12    -0.233805825366E+00    0.53603E-05   -0.10052E-07 18082   0.116E-03    0.740E-04
RMM:  13    -0.233804935048E+00    0.89032E-06   -0.73556E-08 17920   0.867E-04    0.260E-04
RMM:  14    -0.233804578227E+00    0.35682E-06   -0.30910E-08 18150   0.336E-04    0.131E-04
RMM:  15    -0.233805256065E+00   -0.67784E-06   -0.18957E-08 18786   0.266E-04    0.180E-04
RMM:  16    -0.233804805570E+00    0.45049E-06   -0.47407E-08 16942   0.241E-04    0.579E-05
RMM:  17    -0.233805228903E+00   -0.42333E-06   -0.31953E-08 19949   0.147E-04    0.262E-05
RMM:  18    -0.233805252791E+00   -0.23888E-07   -0.23450E-08 20607   0.123E-04    0.217E-05
 first order change of Fermi-energy  2.309145657797274E-004
 force on displaced ion       1 direction 1 : -32.235   0.001   0.001
 Linear response progress:
  Degree of freedom:   2/  2
       N       E                     dE             d eps       ncg     rms          rms(c)
RMM:   1    -0.269507535230E+00   -0.26951E+00    0.68181E-03  5290   0.244E+00
RMM:   2    -0.248206017467E+00    0.21302E-01   -0.12661E-02  4303   0.518E-01    0.470E-01
RMM:   3    -0.247116904671E+00    0.10891E-02   -0.13360E-03  4404   0.153E-01    0.374E-01
RMM:   4    -0.245933346438E+00    0.11836E-02   -0.59741E-03  4819   0.328E-01    0.170E-01
RMM:   5    -0.245984693165E+00   -0.51347E-04   -0.36976E-04  4647   0.728E-02    0.128E-01
RMM:   6    -0.246266051572E+00   -0.28136E-03   -0.40880E-04  3990   0.984E-02    0.379E-02
RMM:   7    -0.246305459532E+00   -0.39408E-04   -0.47044E-05  3937   0.422E-02    0.295E-02
RMM:   8    -0.246368889640E+00   -0.63430E-04   -0.28476E-05  4464   0.238E-02    0.181E-02
RMM:   9    -0.246462814014E+00   -0.93924E-04   -0.12428E-04  4863   0.441E-02    0.307E-02
RMM:  10    -0.246439872116E+00    0.22942E-04   -0.44858E-05  4005   0.306E-02    0.452E-03
RMM:  11    -0.246436660962E+00    0.32112E-05   -0.93097E-06  4803   0.919E-03    0.175E-03
RMM:  12    -0.246439154952E+00   -0.24940E-05   -0.12331E-06  4727   0.279E-03    0.106E-03
RMM:  13    -0.246437669561E+00    0.14854E-05   -0.62353E-07  4799   0.114E-03    0.623E-04
RMM:  14    -0.246437492859E+00    0.17670E-06   -0.11938E-06  4282   0.813E-04    0.285E-04
RMM:  15    -0.246436366215E+00    0.11266E-05   -0.21010E-06  5002   0.440E-04    0.215E-04
RMM:  16    -0.246436109972E+00    0.25624E-06   -0.16929E-06  4870   0.296E-04    0.125E-04
RMM:  17    -0.246436045275E+00    0.64697E-07   -0.19505E-06  5102   0.235E-04    0.972E-05
RMM:  18    -0.246435952540E+00    0.92735E-07   -0.21190E-06  4927   0.190E-04    0.270E-05
RMM:  19    -0.246436032642E+00   -0.80102E-07   -0.29538E-06  5545   0.147E-04    0.174E-05
RMM:  20    -0.246435972699E+00    0.59944E-07   -0.27945E-06  5504   0.137E-04    0.119E-05
RMM:  21    -0.246435989552E+00   -0.16854E-07   -0.28701E-06  5661   0.136E-04    0.805E-06
RMM:  22    -0.246435973150E+00    0.16402E-07   -0.26682E-06  5719   0.132E-04    0.299E-06
RMM:  23    -0.246435985640E+00   -0.12490E-07   -0.28044E-06  5843   0.130E-04    0.202E-06
 first order change of Fermi-energy  0.513606115766763     
 force on displaced ion       1 direction 3 :   0.000   0.000 -21.425
 Linear response finished
IPL WARN> IPL_init_numa_nodes: can not define numa node num
