 vasp.6.4.2 20Jul23 (build Nov 14 2023 12:59:38) complex                        
  
 executed on             LinuxIFC date 2023.12.16  19:41:05
 running   16 mpi-ranks, on    1 nodes
 distrk:  each k-point on   16 cores,    1 groups
 distr:  one band on NCORE=   1 cores,   16 groups


--------------------------------------------------------------------------------------------------------


 INCAR:
   ENCUT = 473.514750
   ALGO = Normal
   NELM = 200
   NELMIN = 6
   NELMDL = -12
   EDIFF = 1.0E-7
   AMIX = 0.1
   BMIX = 0.0001
   PREC = Accurate
   IVDW = 0
   ISPIN = 1
   ADDGRID = .TRUE.
   LASPH = .TRUE.
   EDIFFG = -0.010
   IBRION = 8
   STRESSTYPE = 2
   ISMEAR = 0
   SIGMA = 0.01
   LORBIT = 10
   NEDOS = 6001
   NWRITE = 1
   LWAVE = .FALSE.
   LCHARG = .FALSE.
   LPLANE = .TRUE.

 POTCAR:    PAW_PBE N_GW 10Apr2007                
 -----------------------------------------------------------------------------
|                                                                             |
|           W    W    AA    RRRRR   N    N  II  N    N   GGGG   !!!           |
|           W    W   A  A   R    R  NN   N  II  NN   N  G    G  !!!           |
|           W    W  A    A  R    R  N N  N  II  N N  N  G       !!!           |
|           W WW W  AAAAAA  RRRRR   N  N N  II  N  N N  G  GGG   !            |
|           WW  WW  A    A  R   R   N   NN  II  N   NN  G    G                |
|           W    W  A    A  R    R  N    N  II  N    N   GGGG   !!!           |
|                                                                             |
|     For optimal performance we recommend to set                             |
|       NCORE = 2 up to number-of-cores-per-socket                            |
|     NCORE specifies how many cores store one orbital (NPAR=cpu/NCORE).      |
|     This setting can greatly improve the performance of VASP for DFT.       |
|     The default, NCORE=1 might be grossly inefficient on modern             |
|     multi-core architectures or massively parallel machines. Do your        |
|     own testing! More info at https://www.vasp.at/wiki/index.php/NCORE      |
|     Unfortunately you need to use the default for GW and RPA                |
|     calculations (for HF NCORE is supported but not extensively tested      |
|     yet).                                                                   |
|                                                                             |
 -----------------------------------------------------------------------------

 POTCAR:    PAW_PBE N_GW 10Apr2007                
  local pseudopotential read in
  kinetic energy density of atom read in
  atomic valenz-charges read in
  non local Contribution for L=           0  read in
    real space projection operators read in
  non local Contribution for L=           0  read in
    real space projection operators read in
  non local Contribution for L=           1  read in
    real space projection operators read in
  non local Contribution for L=           1  read in
    real space projection operators read in
    PAW grid and wavefunctions read in
 
   number of l-projection  operators is LMAX  =           4
   number of lm-projection operators is LMMAX =           8
 
 -----------------------------------------------------------------------------
|                                                                             |
|               ----> ADVICE to this user running VASP <----                  |
|                                                                             |
|     You have a (more or less) 'large supercell' and for larger cells it     |
|     might be more efficient to use real-space projection operators.         |
|     Therefore, try LREAL= Auto in the INCAR file.                           |
|     Mind: For very accurate calculation, you might also keep the            |
|     reciprocal projection scheme (i.e. LREAL=.FALSE.).                      |
|                                                                             |
 -----------------------------------------------------------------------------

  PAW_PBE N_GW 10Apr2007                :
 energy of atom  1       EATOM= -264.5486
 kinetic energy error for atom=    0.0147 (will be added to EATOM!!)
 
 
 POSCAR: generated by phonopy
  positions in direct lattice
  No initial velocities read in
 exchange correlation table for  LEXCH =        8
   RHO(1)=    0.500       N(1)  =     2000
   RHO(2)=  100.500       N(2)  =     4000
 


--------------------------------------------------------------------------------------------------------


 ion  position               nearest neighbor table
   1  0.222  0.111  0.478-  10 1.50  11 1.50  16 1.50
   2  0.556  0.111  0.478-  11 1.50  12 1.50  17 1.50
   3  0.889  0.111  0.478-  12 1.50  18 1.50  10 1.50
   4  0.222  0.444  0.478-  10 1.50  13 1.50  14 1.50
   5  0.556  0.444  0.478-  11 1.50  15 1.50  14 1.50
   6  0.889  0.444  0.478-  12 1.50  15 1.50  13 1.50
   7  0.222  0.778  0.478-  16 1.50  13 1.50  17 1.50
   8  0.556  0.778  0.478-  14 1.50  17 1.50  18 1.50
   9  0.889  0.778  0.478-  18 1.50  15 1.50  16 1.50
  10  0.111  0.222  0.522-   1 1.50   4 1.50   3 1.50
  11  0.444  0.222  0.522-   5 1.50   2 1.50   1 1.50
  12  0.778  0.222  0.522-   3 1.50   6 1.50   2 1.50
  13  0.111  0.556  0.522-   7 1.50   4 1.50   6 1.50
  14  0.444  0.556  0.522-   8 1.50   4 1.50   5 1.50
  15  0.778  0.556  0.522-   9 1.50   6 1.50   5 1.50
  16  0.111  0.889  0.522-   7 1.50   1 1.50   9 1.50
  17  0.444  0.889  0.522-   8 1.50   7 1.50   2 1.50
  18  0.778  0.889  0.522-   9 1.50   8 1.50   3 1.50
 
  LATTYP: Found a hexagonal cell.
 ALAT       =     6.8834957833
 C/A-ratio  =     2.3244003488
  
  Lattice vectors:
  
 A1 = (   6.8834957833,   0.0000000000,   0.0000000000)
 A2 = (  -3.4417478917,   5.9612822152,   0.0000000000)
 A3 = (   0.0000000000,   0.0000000000,  16.0000000000)


Analysis of symmetry for initial positions (statically):
=====================================================================
 Subroutine PRICEL returns following result:
 
  LATTYP: Found a hexagonal cell.
 ALAT       =     2.2944985944
 C/A-ratio  =     6.9732010465
  
  Lattice vectors:
  
 A1 = (   2.2944985944,   0.0000000000,   0.0000000000)
 A2 = (  -1.1472492972,   1.9870940717,   0.0000000000)
 A3 = (   0.0000000000,   0.0000000000,  16.0000000000)
 
   9 primitive cells build up your supercell.
 

 Routine SETGRP: Setting up the symmetry group for a 
 hexagonal supercell.


 Subroutine GETGRP returns: Found 12 space group operations
 (whereof 12 operations were pure point group operations)
 out of a pool of 24 trial point group operations.


The static configuration has the point symmetry D_3d.


Analysis of symmetry for dynamics (positions and initial velocities):
=====================================================================
 Subroutine PRICEL returns following result:
 
  LATTYP: Found a hexagonal cell.
 ALAT       =     2.2944985944
 C/A-ratio  =     6.9732010465
  
  Lattice vectors:
  
 A1 = (   2.2944985944,   0.0000000000,   0.0000000000)
 A2 = (  -1.1472492972,   1.9870940717,   0.0000000000)
 A3 = (   0.0000000000,   0.0000000000,  16.0000000000)
 
   9 primitive cells build up your supercell.
 

 Routine SETGRP: Setting up the symmetry group for a 
 hexagonal supercell.


 Subroutine GETGRP returns: Found 12 space group operations
 (whereof 12 operations were pure point group operations)
 out of a pool of 24 trial point group operations.


The dynamic configuration has the point symmetry D_3d.


 Subroutine INISYM returns: Found 12 space group operations
 (whereof 12 operations are pure point group operations),
 and found     9 'primitive' translations


----------------------------------------------------------------------------------------

                                     Primitive cell                                     

  volume of cell :      72.9502

  direct lattice vectors                    reciprocal lattice vectors
     2.294498594  0.000000000  0.000000000     0.435825065  0.251623719  0.000000000
    -1.147249297  1.987094072  0.000000000     0.000000000  0.503247438  0.000000000
     0.000000000  0.000000000 16.000000000     0.000000000  0.000000000  0.062500000

  length of vectors
     2.294498594  2.294498594 16.000000000     0.503247438  0.503247438  0.062500000

  position of ions in fractional coordinates (direct lattice)
     0.666666667  0.333333333  0.478221854
     0.333333333  0.666666667  0.521778146

  ion indices of the primitive-cell ions
   primitive index   ion index
                 1           1
                 2          10

----------------------------------------------------------------------------------------

 
 
 KPOINTS: Fully automatic mesh                    

Automatic generation of k-mesh.
 Grid dimensions derived from RKLEN:
 generate k-points for:    7    7    3

 Generating k-lattice:

  Cartesian coordinates                     Fractional coordinates (reciprocal lattice)
     0.020753575  0.011982082  0.000000000     0.142857143  0.000000000  0.000000000
     0.000000000  0.023964164  0.000000000     0.000000000  0.142857143  0.000000000
     0.000000000  0.000000000  0.020833333     0.000000000  0.000000000  0.333333333

  Length of vectors
     0.023964164  0.023964164  0.020833333

  Shift w.r.t. Gamma in fractional coordinates (k-lattice)
     0.000000000  0.000000000  0.000000000

 
 Subroutine IBZKPT returns following result:
 ===========================================
 
 Found     20 irreducible k-points:
 
 Following reciprocal coordinates:
            Coordinates               Weight
  0.000000  0.000000  0.000000      1.000000
  0.142857  0.000000  0.000000      6.000000
  0.285714 -0.000000  0.000000      6.000000
  0.428571 -0.000000  0.000000      6.000000
  0.142857  0.142857  0.000000      6.000000
  0.285714  0.142857  0.000000     12.000000
  0.428571  0.142857  0.000000      6.000000
  0.285714  0.285714  0.000000      6.000000
  0.000000  0.000000  0.333333      2.000000
  0.142857  0.000000  0.333333      6.000000
  0.000000  0.142857  0.333333      6.000000
  0.285714 -0.000000  0.333333      6.000000
  0.000000  0.285714  0.333333      6.000000
  0.428571 -0.000000  0.333333      6.000000
  0.000000  0.428571  0.333333      6.000000
  0.142857  0.142857  0.333333     12.000000
  0.285714  0.142857  0.333333     12.000000
 -0.142857  0.428571  0.333333     12.000000
  0.428571  0.142857  0.333333     12.000000
  0.285714  0.285714  0.333333     12.000000
 
 Following cartesian coordinates:
            Coordinates               Weight
  0.000000  0.000000  0.000000      1.000000
  0.020754  0.011982  0.000000      6.000000
  0.041507  0.023964  0.000000      6.000000
  0.062261  0.035946  0.000000      6.000000
  0.020754  0.035946  0.000000      6.000000
  0.041507  0.047928  0.000000     12.000000
  0.062261  0.059910  0.000000      6.000000
  0.041507  0.071892  0.000000      6.000000
  0.000000  0.000000  0.020833      2.000000
  0.020754  0.011982  0.020833      6.000000
  0.000000  0.023964  0.020833      6.000000
  0.041507  0.023964  0.020833      6.000000
  0.000000  0.047928  0.020833      6.000000
  0.062261  0.035946  0.020833      6.000000
  0.000000  0.071892  0.020833      6.000000
  0.020754  0.035946  0.020833     12.000000
  0.041507  0.047928  0.020833     12.000000
 -0.020754  0.059910  0.020833     12.000000
  0.062261  0.059910  0.020833     12.000000
  0.041507  0.071892  0.020833     12.000000
 
 
 Subroutine IBZKPT_HF returns following result:
 ==============================================
 
 Found    147 k-points in 1st BZ
 the following    147 k-points will be used (e.g. in the exchange kernel)
 Following reciprocal coordinates:   # in IRBZ
  0.000000  0.000000  0.000000    0.00680272   1 t-inv F
  0.142857  0.000000  0.000000    0.00680272   2 t-inv F
  0.285714 -0.000000  0.000000    0.00680272   3 t-inv F
  0.428571 -0.000000  0.000000    0.00680272   4 t-inv F
  0.142857  0.142857  0.000000    0.00680272   5 t-inv F
  0.285714  0.142857  0.000000    0.00680272   6 t-inv F
  0.428571  0.142857  0.000000    0.00680272   7 t-inv F
  0.285714  0.285714  0.000000    0.00680272   8 t-inv F
  0.000000  0.000000  0.333333    0.00680272   9 t-inv F
  0.142857  0.000000  0.333333    0.00680272  10 t-inv F
  0.000000  0.142857  0.333333    0.00680272  11 t-inv F
  0.285714 -0.000000  0.333333    0.00680272  12 t-inv F
  0.000000  0.285714  0.333333    0.00680272  13 t-inv F
  0.428571 -0.000000  0.333333    0.00680272  14 t-inv F
  0.000000  0.428571  0.333333    0.00680272  15 t-inv F
  0.142857  0.142857  0.333333    0.00680272  16 t-inv F
  0.285714  0.142857  0.333333    0.00680272  17 t-inv F
 -0.142857  0.428571  0.333333    0.00680272  18 t-inv F
  0.428571  0.142857  0.333333    0.00680272  19 t-inv F
  0.285714  0.285714  0.333333    0.00680272  20 t-inv F
 -0.142857  0.000000  0.000000    0.00680272   2 t-inv F
 -0.142857  0.142857  0.000000    0.00680272   2 t-inv F
  0.142857 -0.142857  0.000000    0.00680272   2 t-inv F
  0.000000 -0.142857  0.000000    0.00680272   2 t-inv F
  0.000000  0.142857  0.000000    0.00680272   2 t-inv F
 -0.285714  0.000000  0.000000    0.00680272   3 t-inv F
 -0.285714  0.285714  0.000000    0.00680272   3 t-inv F
  0.285714 -0.285714  0.000000    0.00680272   3 t-inv F
 -0.000000 -0.285714  0.000000    0.00680272   3 t-inv F
  0.000000  0.285714  0.000000    0.00680272   3 t-inv F
 -0.428571  0.000000  0.000000    0.00680272   4 t-inv F
 -0.428571  0.428571  0.000000    0.00680272   4 t-inv F
  0.428571 -0.428571  0.000000    0.00680272   4 t-inv F
 -0.000000 -0.428571  0.000000    0.00680272   4 t-inv F
  0.000000  0.428571  0.000000    0.00680272   4 t-inv F
 -0.142857 -0.142857  0.000000    0.00680272   5 t-inv F
 -0.285714  0.142857  0.000000    0.00680272   5 t-inv F
  0.285714 -0.142857  0.000000    0.00680272   5 t-inv F
  0.142857 -0.285714  0.000000    0.00680272   5 t-inv F
 -0.142857  0.285714  0.000000    0.00680272   5 t-inv F
 -0.285714 -0.142857  0.000000    0.00680272   6 t-inv F
 -0.428571  0.285714  0.000000    0.00680272   6 t-inv F
  0.428571 -0.285714  0.000000    0.00680272   6 t-inv F
  0.142857 -0.428571  0.000000    0.00680272   6 t-inv F
 -0.142857  0.428571  0.000000    0.00680272   6 t-inv F
  0.285714 -0.428571  0.000000    0.00680272   6 t-inv F
 -0.285714  0.428571  0.000000    0.00680272   6 t-inv F
 -0.428571  0.142857  0.000000    0.00680272   6 t-inv F
  0.428571 -0.142857  0.000000    0.00680272   6 t-inv F
  0.142857  0.285714  0.000000    0.00680272   6 t-inv F
 -0.142857 -0.285714  0.000000    0.00680272   6 t-inv F
 -0.428571 -0.142857  0.000000    0.00680272   7 t-inv F
 -0.571429  0.428571  0.000000    0.00680272   7 t-inv F
  0.571429 -0.428571  0.000000    0.00680272   7 t-inv F
  0.142857 -0.571429  0.000000    0.00680272   7 t-inv F
 -0.142857  0.571429  0.000000    0.00680272   7 t-inv F
 -0.285714 -0.285714  0.000000    0.00680272   8 t-inv F
 -0.571429  0.285714  0.000000    0.00680272   8 t-inv F
  0.571429 -0.285714  0.000000    0.00680272   8 t-inv F
  0.285714 -0.571429  0.000000    0.00680272   8 t-inv F
 -0.285714  0.571429  0.000000    0.00680272   8 t-inv F
  0.000000  0.000000 -0.333333    0.00680272   9 t-inv F
 -0.142857  0.000000 -0.333333    0.00680272  10 t-inv F
 -0.142857  0.142857  0.333333    0.00680272  10 t-inv F
  0.142857 -0.142857 -0.333333    0.00680272  10 t-inv F
  0.000000 -0.142857  0.333333    0.00680272  10 t-inv F
  0.000000  0.142857 -0.333333    0.00680272  10 t-inv F
  0.000000 -0.142857 -0.333333    0.00680272  11 t-inv F
 -0.142857  0.000000  0.333333    0.00680272  11 t-inv F
  0.142857  0.000000 -0.333333    0.00680272  11 t-inv F
  0.142857 -0.142857  0.333333    0.00680272  11 t-inv F
 -0.142857  0.142857 -0.333333    0.00680272  11 t-inv F
 -0.285714  0.000000 -0.333333    0.00680272  12 t-inv F
 -0.285714  0.285714  0.333333    0.00680272  12 t-inv F
  0.285714 -0.285714 -0.333333    0.00680272  12 t-inv F
 -0.000000 -0.285714  0.333333    0.00680272  12 t-inv F
  0.000000  0.285714 -0.333333    0.00680272  12 t-inv F
  0.000000 -0.285714 -0.333333    0.00680272  13 t-inv F
 -0.285714  0.000000  0.333333    0.00680272  13 t-inv F
  0.285714  0.000000 -0.333333    0.00680272  13 t-inv F
  0.285714 -0.285714  0.333333    0.00680272  13 t-inv F
 -0.285714  0.285714 -0.333333    0.00680272  13 t-inv F
 -0.428571  0.000000 -0.333333    0.00680272  14 t-inv F
 -0.428571  0.428571  0.333333    0.00680272  14 t-inv F
  0.428571 -0.428571 -0.333333    0.00680272  14 t-inv F
 -0.000000 -0.428571  0.333333    0.00680272  14 t-inv F
  0.000000  0.428571 -0.333333    0.00680272  14 t-inv F
  0.000000 -0.428571 -0.333333    0.00680272  15 t-inv F
 -0.428571  0.000000  0.333333    0.00680272  15 t-inv F
  0.428571  0.000000 -0.333333    0.00680272  15 t-inv F
  0.428571 -0.428571  0.333333    0.00680272  15 t-inv F
 -0.428571  0.428571 -0.333333    0.00680272  15 t-inv F
 -0.142857 -0.142857 -0.333333    0.00680272  16 t-inv F
 -0.285714  0.142857  0.333333    0.00680272  16 t-inv F
  0.285714 -0.142857 -0.333333    0.00680272  16 t-inv F
  0.142857 -0.285714  0.333333    0.00680272  16 t-inv F
 -0.142857  0.285714 -0.333333    0.00680272  16 t-inv F
  0.142857 -0.285714 -0.333333    0.00680272  16 t-inv F
 -0.142857  0.285714  0.333333    0.00680272  16 t-inv F
 -0.285714  0.142857 -0.333333    0.00680272  16 t-inv F
  0.285714 -0.142857  0.333333    0.00680272  16 t-inv F
  0.142857  0.142857 -0.333333    0.00680272  16 t-inv F
 -0.142857 -0.142857  0.333333    0.00680272  16 t-inv F
 -0.285714 -0.142857 -0.333333    0.00680272  17 t-inv F
 -0.428571  0.285714  0.333333    0.00680272  17 t-inv F
  0.428571 -0.285714 -0.333333    0.00680272  17 t-inv F
  0.142857 -0.428571  0.333333    0.00680272  17 t-inv F
 -0.142857  0.428571 -0.333333    0.00680272  17 t-inv F
  0.285714 -0.428571 -0.333333    0.00680272  17 t-inv F
 -0.285714  0.428571  0.333333    0.00680272  17 t-inv F
 -0.428571  0.142857 -0.333333    0.00680272  17 t-inv F
  0.428571 -0.142857  0.333333    0.00680272  17 t-inv F
  0.142857  0.285714 -0.333333    0.00680272  17 t-inv F
 -0.142857 -0.285714  0.333333    0.00680272  17 t-inv F
  0.142857 -0.428571 -0.333333    0.00680272  18 t-inv F
 -0.285714 -0.142857  0.333333    0.00680272  18 t-inv F
  0.285714  0.142857 -0.333333    0.00680272  18 t-inv F
  0.428571 -0.285714  0.333333    0.00680272  18 t-inv F
 -0.428571  0.285714 -0.333333    0.00680272  18 t-inv F
 -0.142857 -0.285714 -0.333333    0.00680272  18 t-inv F
  0.142857  0.285714  0.333333    0.00680272  18 t-inv F
 -0.285714  0.428571 -0.333333    0.00680272  18 t-inv F
  0.285714 -0.428571  0.333333    0.00680272  18 t-inv F
  0.428571 -0.142857 -0.333333    0.00680272  18 t-inv F
 -0.428571  0.142857  0.333333    0.00680272  18 t-inv F
 -0.428571 -0.142857 -0.333333    0.00680272  19 t-inv F
 -0.571429  0.428571  0.333333    0.00680272  19 t-inv F
  0.571429 -0.428571 -0.333333    0.00680272  19 t-inv F
  0.142857 -0.571429  0.333333    0.00680272  19 t-inv F
 -0.142857  0.571429 -0.333333    0.00680272  19 t-inv F
  0.428571 -0.571429 -0.333333    0.00680272  19 t-inv F
 -0.428571  0.571429  0.333333    0.00680272  19 t-inv F
 -0.571429  0.142857 -0.333333    0.00680272  19 t-inv F
  0.571429 -0.142857  0.333333    0.00680272  19 t-inv F
  0.142857  0.428571 -0.333333    0.00680272  19 t-inv F
 -0.142857 -0.428571  0.333333    0.00680272  19 t-inv F
 -0.285714 -0.285714 -0.333333    0.00680272  20 t-inv F
 -0.571429  0.285714  0.333333    0.00680272  20 t-inv F
  0.571429 -0.285714 -0.333333    0.00680272  20 t-inv F
  0.285714 -0.571429  0.333333    0.00680272  20 t-inv F
 -0.285714  0.571429 -0.333333    0.00680272  20 t-inv F
  0.285714 -0.571429 -0.333333    0.00680272  20 t-inv F
 -0.285714  0.571429  0.333333    0.00680272  20 t-inv F
 -0.571429  0.285714 -0.333333    0.00680272  20 t-inv F
  0.571429 -0.285714  0.333333    0.00680272  20 t-inv F
  0.285714  0.285714 -0.333333    0.00680272  20 t-inv F
 -0.285714 -0.285714  0.333333    0.00680272  20 t-inv F


--------------------------------------------------------------------------------------------------------




 Dimension of arrays:
   k-points           NKPTS =     20   k-points in BZ     NKDIM =     20   number of bands    NBANDS=     64
   number of dos      NEDOS =   6001   number of ions     NIONS =     18
   non local maximal  LDIM  =      4   non local SUM 2l+1 LMDIM =      8
   total plane-waves  NPLWV = 300000
   max r-space proj   IRMAX =      1   max aug-charges    IRDMAX=  26159
   dimension x,y,z NGX =    50 NGY =   50 NGZ =  120
   dimension x,y,z NGXF=   100 NGYF=  100 NGZF=  240
   support grid    NGXF=   200 NGYF=  200 NGZF=  480
   ions per type =              18
   NGX,Y,Z   is equivalent  to a cutoff of  12.08, 12.08, 12.47 a.u.
   NGXF,Y,Z  is equivalent  to a cutoff of  24.15, 24.15, 24.94 a.u.

 SYSTEM =  unknown system                          
 POSCAR =  generated by phonopy                    

 Startparameter for this run:
   NWRITE =      1    write-flag & timer
   PREC   = accura    normal or accurate (medium, high low for compatibility)
   ISTART =      0    job   : 0-new  1-cont  2-samecut
   ICHARG =      2    charge: 1-file 2-atom 10-const
   ISPIN  =      1    spin polarized calculation?
   LNONCOLLINEAR =      F non collinear calculations
   LSORBIT =      F    spin-orbit coupling
   INIWAV =      1    electr: 0-lowe 1-rand  2-diag
   LASPH  =      T    aspherical Exc in radial PAW
 Electronic Relaxation 1
   ENCUT  =  473.5 eV  34.80 Ry    5.90 a.u.  12.21 12.21 28.39*2*pi/ulx,y,z
   ENINI  =  473.5     initial cutoff
   ENAUG  =  904.6 eV  augmentation charge cutoff
   NELM   =    200;   NELMIN=  6; NELMDL=-12     # of ELM steps 
   EDIFF  = 0.1E-06   stopping-criterion for ELM
   LREAL  =      F    real-space projection
   NLSPLINE    = F    spline interpolate recip. space projectors
   LCOMPAT=      F    compatible to vasp.4.4
   GGA_COMPAT  = T    GGA compatible to vasp.4.4-vasp.4.6
   LMAXPAW     = -100 max onsite density
   LMAXMIX     =    2 max onsite mixed and CHGCAR
   VOSKOWN=      0    Vosko Wilk Nusair interpolation
   ROPT   =    0.00000
 Ionic relaxation
   EDIFFG = -.1E-01   stopping-criterion for IOM
   NSW    =      1    number of steps for IOM
   NBLOCK =      1;   KBLOCK =      1    inner block; outer block 
   IBRION =      8    ionic relax: 0-MD 1-quasi-New 2-CG
   NFREE  =      0    steps in history (QN), initial steepest desc. (CG)
   ISIF   =      2    stress and relaxation
   IWAVPR =     11    prediction:  0-non 1-charg 2-wave 3-comb
   ISYM   =      2    0-nonsym 1-usesym 2-fastsym
   LCORR  =      T    Harris-Foulkes like correction to forces

   POTIM  = 0.5000    time-step for ionic-motion
   TEIN   =    0.0    initial temperature
   TEBEG  =    0.0;   TEEND  =   0.0 temperature during run
   SMASS  =  -3.00    Nose mass-parameter (am)
   estimated Nose-frequenzy (Omega)   =  0.10E-29 period in steps = 0.13E+47 mass=  -0.108E-26a.u.
   SCALEE = 1.0000    scale energy and forces
   NPACO  =    256;   APACO  = 10.0  distance and # of slots for P.C.
   PSTRESS=    0.0 pullay stress

  Mass of Ions in am
   POMASS =  14.00
  Ionic Valenz
   ZVAL   =   5.00
  Atomic Wigner-Seitz radii
   RWIGS  =  -1.00
  virtual crystal weights 
   VCA    =   1.00
   NELECT =      90.0000    total number of electrons
   NUPDOWN=      -1.0000    fix difference up-down

 DOS related values:
   EMIN   =  10.00;   EMAX   =-10.00  energy-range for DOS
   EFERMI =   0.00;   METHOD = LEGACY      
   ISMEAR =     0;   SIGMA  =   0.01  broadening in eV -4-tet -1-fermi 0-gaus

 Electronic relaxation 2 (details)
   IALGO  =     38    algorithm
   LDIAG  =      T    sub-space diagonalisation (order eigenvalues)
   LSUBROT=      F    optimize rotation matrix (better conditioning)
   TURBO    =      0    0=normal 1=particle mesh
   IRESTART =      0    0=no restart 2=restart with 2 vectors
   NREBOOT  =      0    no. of reboots
   NMIN     =      0    reboot dimension
   EREF     =   0.00    reference energy to select bands
   IMIX   =      4    mixing-type and parameters
     AMIX     =   0.10;   BMIX     =  0.00
     AMIX_MAG =   0.40;   BMIX_MAG =  0.00
     AMIN     =   0.10
     WC   =   100.;   INIMIX=   1;  MIXPRE=   1;  MAXMIX= -45

 Intra band minimization:
   WEIMIN = 0.0010     energy-eigenvalue tresh-hold
   EBREAK =  0.39E-09  absolut break condition
   DEPER  =   0.30     relativ break condition  

   TIME   =   0.40     timestep for ELM

  volume/ion in A,a.u.               =      36.48       246.15
  Fermi-wavevector in a.u.,A,eV,Ry     =   0.844111  1.595138  9.694463  0.712523
  Thomas-Fermi vector in A             =   1.959086
 
 Write flags
   LWAVE        =      F    write WAVECAR
   LDOWNSAMPLE  =      F    k-point downsampling of WAVECAR
   LCHARG       =      F    write CHGCAR
   LVTOT        =      F    write LOCPOT, total local potential
   LVHAR        =      F    write LOCPOT, Hartree potential only
   LELF         =      F    write electronic localiz. function (ELF)
   LORBIT       =     10    0 simple, 1 ext, 2 COOP (PROOUT), +10 PAW based schemes


 Dipole corrections
   LMONO  =      F    monopole corrections only (constant potential shift)
   LDIPOL =      F    correct potential (dipole corrections)
   IDIPOL =      0    1-x, 2-y, 3-z, 4-all directions 
   EPSILON=  1.0000000 bulk dielectric constant

 Exchange correlation treatment:
   GGA     =    --    GGA type
   LEXCH   =     8    internal setting for exchange type
   LIBXC   =     F    Libxc                    
   VOSKOWN =     0    Vosko Wilk Nusair interpolation
   LHFCALC =     F    Hartree Fock is set to
   LHFONE  =     F    Hartree Fock one center treatment
   AEXX    =    0.0000 exact exchange contribution

 Linear response parameters
   LEPSILON=     F    determine dielectric tensor
   LRPA    =     F    only Hartree local field effects (RPA)
   LNABLA  =     F    use nabla operator in PAW spheres
   LVEL    =     F    velocity operator in full k-point grid
   CSHIFT  =0.1000    complex shift for real part using Kramers Kronig
   OMEGAMAX=  -1.0    maximum frequency
   DEG_THRESHOLD= 0.2000000E-02 threshold for treating states as degnerate
   RTIME   =   -0.100 relaxation time in fs
  (WPLASMAI=    0.000 imaginary part of plasma frequency in eV, 0.658/RTIME)
   DFIELD  = 0.0000000 0.0000000 0.0000000 field for delta impulse in time
 
  Optional k-point grid parameters
   LKPOINTS_OPT  =     F    use optional k-point grid
   KPOINTS_OPT_MODE=     1    mode for optional k-point grid
 
 Orbital magnetization related:
   ORBITALMAG=     F  switch on orbital magnetization
   LCHIMAG   =     F  perturbation theory with respect to B field
   DQ        =  0.001000  dq finite difference perturbation B field
   LLRAUG    =     F  two centre corrections for induced B field
   LBONE     =     F  B-component reconstruction in AE one-centre
   LVGVCALC  =     T  calculate vGv susceptibility
   LVGVAPPL  =     F  apply vGv susceptibility instead of pGv for G=0

 Random number generation:
   RANDOM_GENERATOR = DEFAULT
   PCG_SEED         = not used


--------------------------------------------------------------------------------------------------------


 linear response using symmetry
 charge density and potential will be updated during run
 non-spin polarized calculation
 Variant of blocked Davidson
 Davidson routine will perform the subspace rotation
 perform sub-space diagonalisation
    after iterative eigenvector-optimisation
 modified Broyden-mixing scheme, WC =      100.0
 initial mixing is a Kerker type mixing with AMIX =  0.1000 and BMIX =      0.0001
 Hartree-type preconditioning will be used
 using additional bands           19
 reciprocal scheme for non local part
 calculate Harris-corrections to forces 
   (improved forces if not selfconsistent)
 use gradient corrections 
 use of overlap-Matrix (Vanderbilt PP)
 Gauss-broadening in eV      SIGMA  =   0.01


--------------------------------------------------------------------------------------------------------


  energy-cutoff  :      473.51
  volume of cell :      656.55
      direct lattice vectors                 reciprocal lattice vectors
     6.883495783  0.000000000  0.000000000     0.145275022  0.083874573  0.000000000
    -3.441747892  5.961282215  0.000000000     0.000000000  0.167749146  0.000000000
     0.000000000  0.000000000 16.000000000     0.000000000  0.000000000  0.062500000

  length of vectors
     6.883495783  6.883495783 16.000000000     0.167749146  0.167749146  0.062500000


 
 k-points in units of 2pi/SCALE and weight: Fully automatic mesh                    
   0.00000000  0.00000000  0.00000000       0.007
   0.02075357  0.01198208  0.00000000       0.041
   0.04150715  0.02396416  0.00000000       0.041
   0.06226072  0.03594625  0.00000000       0.041
   0.02075357  0.03594625  0.00000000       0.041
   0.04150715  0.04792833  0.00000000       0.082
   0.06226072  0.05991041  0.00000000       0.041
   0.04150715  0.07189249  0.00000000       0.041
   0.00000000  0.00000000  0.02083333       0.014
   0.02075357  0.01198208  0.02083333       0.041
   0.00000000  0.02396416  0.02083333       0.041
   0.04150715  0.02396416  0.02083333       0.041
   0.00000000  0.04792833  0.02083333       0.041
   0.06226072  0.03594625  0.02083333       0.041
   0.00000000  0.07189249  0.02083333       0.041
   0.02075357  0.03594625  0.02083333       0.082
   0.04150715  0.04792833  0.02083333       0.082
  -0.02075357  0.05991041  0.02083333       0.082
   0.06226072  0.05991041  0.02083333       0.082
   0.04150715  0.07189249  0.02083333       0.082
 
 k-points in reciprocal lattice and weights: Fully automatic mesh                    
   0.00000000  0.00000000  0.00000000       0.007
   0.14285714  0.00000000  0.00000000       0.041
   0.28571429 -0.00000000  0.00000000       0.041
   0.42857143 -0.00000000  0.00000000       0.041
   0.14285714  0.14285714  0.00000000       0.041
   0.28571429  0.14285714  0.00000000       0.082
   0.42857143  0.14285714  0.00000000       0.041
   0.28571429  0.28571429  0.00000000       0.041
   0.00000000  0.00000000  0.33333333       0.014
   0.14285714  0.00000000  0.33333333       0.041
   0.00000000  0.14285714  0.33333333       0.041
   0.28571429 -0.00000000  0.33333333       0.041
   0.00000000  0.28571429  0.33333333       0.041
   0.42857143 -0.00000000  0.33333333       0.041
   0.00000000  0.42857143  0.33333333       0.041
   0.14285714  0.14285714  0.33333333       0.082
   0.28571429  0.14285714  0.33333333       0.082
  -0.14285714  0.42857143  0.33333333       0.082
   0.42857143  0.14285714  0.33333333       0.082
   0.28571429  0.28571429  0.33333333       0.082
 
 position of ions in fractional coordinates (direct lattice) 
   0.22222222  0.11111111  0.47822185
   0.55555556  0.11111111  0.47822185
   0.88888889  0.11111111  0.47822185
   0.22222222  0.44444444  0.47822185
   0.55555556  0.44444444  0.47822185
   0.88888889  0.44444444  0.47822185
   0.22222222  0.77777778  0.47822185
   0.55555556  0.77777778  0.47822185
   0.88888889  0.77777778  0.47822185
   0.11111111  0.22222222  0.52177815
   0.44444444  0.22222222  0.52177815
   0.77777778  0.22222222  0.52177815
   0.11111111  0.55555556  0.52177815
   0.44444444  0.55555556  0.52177815
   0.77777778  0.55555556  0.52177815
   0.11111111  0.88888889  0.52177815
   0.44444444  0.88888889  0.52177815
   0.77777778  0.88888889  0.52177815
 
 position of ions in cartesian coordinates  (Angst):
   1.14724930  0.66236469  7.65154966
   3.44174789  0.66236469  7.65154966
   5.73624649  0.66236469  7.65154966
   0.00000000  2.64945876  7.65154966
   2.29449859  2.64945876  7.65154966
   4.58899719  2.64945876  7.65154966
  -1.14724930  4.63655283  7.65154966
   1.14724930  4.63655283  7.65154966
   3.44174789  4.63655283  7.65154966
   0.00000000  1.32472938  8.34845034
   2.29449859  1.32472938  8.34845034
   4.58899719  1.32472938  8.34845034
  -1.14724930  3.31182345  8.34845034
   1.14724930  3.31182345  8.34845034
   3.44174789  3.31182345  8.34845034
  -2.29449859  5.29891752  8.34845034
   0.00000000  5.29891752  8.34845034
   2.29449859  5.29891752  8.34845034
 


--------------------------------------------------------------------------------------------------------


 k-point   1 :   0.0000 0.0000 0.0000  plane waves:   15345
 k-point   2 :   0.1429 0.0000 0.0000  plane waves:   15349
 k-point   3 :   0.2857-0.0000 0.0000  plane waves:   15357
 k-point   4 :   0.4286-0.0000 0.0000  plane waves:   15380
 k-point   5 :   0.1429 0.1429 0.0000  plane waves:   15332
 k-point   6 :   0.2857 0.1429 0.0000  plane waves:   15353
 k-point   7 :   0.4286 0.1429 0.0000  plane waves:   15386
 k-point   8 :   0.2857 0.2857 0.0000  plane waves:   15380
 k-point   9 :   0.0000 0.0000 0.3333  plane waves:   15315
 k-point  10 :   0.1429 0.0000 0.3333  plane waves:   15351
 k-point  11 :   0.0000 0.1429 0.3333  plane waves:   15351
 k-point  12 :   0.2857-0.0000 0.3333  plane waves:   15346
 k-point  13 :   0.0000 0.2857 0.3333  plane waves:   15346
 k-point  14 :   0.4286-0.0000 0.3333  plane waves:   15388
 k-point  15 :   0.0000 0.4286 0.3333  plane waves:   15388
 k-point  16 :   0.1429 0.1429 0.3333  plane waves:   15371
 k-point  17 :   0.2857 0.1429 0.3333  plane waves:   15368
 k-point  18 :  -0.1429 0.4286 0.3333  plane waves:   15368
 k-point  19 :   0.4286 0.1429 0.3333  plane waves:   15369
 k-point  20 :   0.2857 0.2857 0.3333  plane waves:   15343

 maximum and minimum number of plane-waves per node :     15388    15315

 maximum number of plane-waves:     15388
 maximum index in each direction: 
   IXMAX=   12   IYMAX=   12   IZMAX=   28
   IXMIN=  -12   IYMIN=  -12   IZMIN=  -28


 serial   3D FFT for wavefunctions
 parallel 3D FFT for charge:
    minimum data exchange during FFTs selected (reduces bandwidth)


 total amount of memory used by VASP MPI-rank0   118249. kBytes
=======================================================================

   base      :      30000. kBytes
   nonl-proj :      24134. kBytes
   fftplans  :      24026. kBytes
   grid      :      20148. kBytes
   one-center:         55. kBytes
   wavefun   :      19886. kBytes
 
     INWAV:  cpu time      0.0001: real time      0.0001
 Broyden mixing: mesh for mixing (old mesh)
   NGX = 25   NGY = 25   NGZ = 57
  (NGX  =100   NGY  =100   NGZ  =240)
  gives a total of  35625 points

 initial charge density was supplied:
 charge density of overlapping atoms calculated
 number of electron      90.0000000 magnetization 
 keeping initial charge density in first step


--------------------------------------------------------------------------------------------------------


 Maximum index for augmentation-charges         1612 (set IRDMAX)


--------------------------------------------------------------------------------------------------------


 First call to EWALD:  gamma=   0.204
 Maximum number of real-space cells 4x 4x 2
 Maximum number of reciprocal cells 2x 2x 5

    FEWALD:  cpu time      0.0016: real time      0.0016


--------------------------------------- Ionic step        1  -------------------------------------------




--------------------------------------- Iteration      1(   1)  ---------------------------------------


    POTLOK:  cpu time      0.3639: real time      0.4746
    SETDIJ:  cpu time      0.3642: real time      0.3646
     EDDAV:  cpu time     22.2041: real time     22.2428
       DOS:  cpu time      0.0037: real time      0.0037
    --------------------------------------------
      LOOP:  cpu time     22.9360: real time     23.0858

 eigenvalue-minimisations  :  2608
 total energy-change (2. order) : 0.9323329E+03  (-0.3493022E+04)
 number of electron      90.0000000 magnetization 
 augmentation part       90.0000000 magnetization 

 Free energy of the ion-electron system (eV)
  ---------------------------------------------------
  alpha Z        PSCENC =        53.72225315
  Ewald energy   TEWEN  =     14495.87939577
  -Hartree energ DENC   =    -18497.29708540
  -exchange      EXHF   =         0.00000000
  -V(xc)+E(xc)   XCENC  =       362.18480735
  PAW double counting   =      3688.09193445    -3710.22689666
  entropy T*S    EENTRO =        -0.00131784
  eigenvalues    EBANDS =      -221.63027390
  atomic energy  EATOM  =      4761.61011424
  Solvation  Ediel_sol  =         0.00000000
  ---------------------------------------------------
  free energy    TOTEN  =       932.33293115 eV

  energy without entropy =      932.33424900  energy(sigma->0) =      932.33359008


--------------------------------------------------------------------------------------------------------




--------------------------------------- Iteration      1(   2)  ---------------------------------------


     EDDAV:  cpu time     37.0793: real time     37.2061
       DOS:  cpu time      0.0027: real time      0.0027
    --------------------------------------------
      LOOP:  cpu time     37.0820: real time     37.2088

 eigenvalue-minimisations  :  4112
 total energy-change (2. order) :-0.9219973E+03  (-0.8656078E+03)
 number of electron      90.0000000 magnetization 
 augmentation part       90.0000000 magnetization 

 Free energy of the ion-electron system (eV)
  ---------------------------------------------------
  alpha Z        PSCENC =        53.72225315
  Ewald energy   TEWEN  =     14495.87939577
  -Hartree energ DENC   =    -18497.29708540
  -exchange      EXHF   =         0.00000000
  -V(xc)+E(xc)   XCENC  =       362.18480735
  PAW double counting   =      3688.09193445    -3710.22689666
  entropy T*S    EENTRO =        -0.00000000
  eigenvalues    EBANDS =     -1143.62889156
  atomic energy  EATOM  =      4761.61011424
  Solvation  Ediel_sol  =         0.00000000
  ---------------------------------------------------
  free energy    TOTEN  =        10.33563134 eV

  energy without entropy =       10.33563134  energy(sigma->0) =       10.33563134


--------------------------------------------------------------------------------------------------------




--------------------------------------- Iteration      1(   3)  ---------------------------------------


     EDDAV:  cpu time     30.1513: real time     30.2138
       DOS:  cpu time      0.0010: real time      0.0010
    --------------------------------------------
      LOOP:  cpu time     30.1523: real time     30.2148

 eigenvalue-minimisations  :  3232
 total energy-change (2. order) :-0.1332883E+03  (-0.1319925E+03)
 number of electron      90.0000000 magnetization 
 augmentation part       90.0000000 magnetization 

 Free energy of the ion-electron system (eV)
  ---------------------------------------------------
  alpha Z        PSCENC =        53.72225315
  Ewald energy   TEWEN  =     14495.87939577
  -Hartree energ DENC   =    -18497.29708540
  -exchange      EXHF   =         0.00000000
  -V(xc)+E(xc)   XCENC  =       362.18480735
  PAW double counting   =      3688.09193445    -3710.22689666
  entropy T*S    EENTRO =        -0.00000000
  eigenvalues    EBANDS =     -1276.91721385
  atomic energy  EATOM  =      4761.61011424
  Solvation  Ediel_sol  =         0.00000000
  ---------------------------------------------------
  free energy    TOTEN  =      -122.95269095 eV

  energy without entropy =     -122.95269095  energy(sigma->0) =     -122.95269095


--------------------------------------------------------------------------------------------------------




--------------------------------------- Iteration      1(   4)  ---------------------------------------


     EDDAV:  cpu time     34.7315: real time     34.9680
       DOS:  cpu time      0.0014: real time      0.0014
    --------------------------------------------
      LOOP:  cpu time     34.7329: real time     34.9695

 eigenvalue-minimisations  :  4000
 total energy-change (2. order) :-0.3400127E+01  (-0.3380295E+01)
 number of electron      90.0000000 magnetization 
 augmentation part       90.0000000 magnetization 

 Free energy of the ion-electron system (eV)
  ---------------------------------------------------
  alpha Z        PSCENC =        53.72225315
  Ewald energy   TEWEN  =     14495.87939577
  -Hartree energ DENC   =    -18497.29708540
  -exchange      EXHF   =         0.00000000
  -V(xc)+E(xc)   XCENC  =       362.18480735
  PAW double counting   =      3688.09193445    -3710.22689666
  entropy T*S    EENTRO =        -0.00000000
  eigenvalues    EBANDS =     -1280.31734044
  atomic energy  EATOM  =      4761.61011424
  Solvation  Ediel_sol  =         0.00000000
  ---------------------------------------------------
  free energy    TOTEN  =      -126.35281754 eV

  energy without entropy =     -126.35281754  energy(sigma->0) =     -126.35281754


--------------------------------------------------------------------------------------------------------




--------------------------------------- Iteration      1(   5)  ---------------------------------------


     EDDAV:  cpu time     32.5752: real time     32.6310
       DOS:  cpu time      0.0033: real time      0.0033
    --------------------------------------------
      LOOP:  cpu time     32.5784: real time     32.6343

 eigenvalue-minimisations  :  3584
 total energy-change (2. order) :-0.4622989E-01  (-0.4613674E-01)
 number of electron      90.0000000 magnetization 
 augmentation part       90.0000000 magnetization 

 Free energy of the ion-electron system (eV)
  ---------------------------------------------------
  alpha Z        PSCENC =        53.72225315
  Ewald energy   TEWEN  =     14495.87939577
  -Hartree energ DENC   =    -18497.29708540
  -exchange      EXHF   =         0.00000000
  -V(xc)+E(xc)   XCENC  =       362.18480735
  PAW double counting   =      3688.09193445    -3710.22689666
  entropy T*S    EENTRO =        -0.00000000
  eigenvalues    EBANDS =     -1280.36357032
  atomic energy  EATOM  =      4761.61011424
  Solvation  Ediel_sol  =         0.00000000
  ---------------------------------------------------
  free energy    TOTEN  =      -126.39904742 eV

  energy without entropy =     -126.39904742  energy(sigma->0) =     -126.39904742


--------------------------------------------------------------------------------------------------------




--------------------------------------- Iteration      1(   6)  ---------------------------------------


     EDDAV:  cpu time     32.2329: real time     32.2877
       DOS:  cpu time      0.0015: real time      0.0015
    --------------------------------------------
      LOOP:  cpu time     32.2345: real time     32.2892

 eigenvalue-minimisations  :  3824
 total energy-change (2. order) :-0.1390910E-02  (-0.1388785E-02)
 number of electron      90.0000000 magnetization 
 augmentation part       90.0000000 magnetization 

 Free energy of the ion-electron system (eV)
  ---------------------------------------------------
  alpha Z        PSCENC =        53.72225315
  Ewald energy   TEWEN  =     14495.87939577
  -Hartree energ DENC   =    -18497.29708540
  -exchange      EXHF   =         0.00000000
  -V(xc)+E(xc)   XCENC  =       362.18480735
  PAW double counting   =      3688.09193445    -3710.22689666
  entropy T*S    EENTRO =        -0.00000000
  eigenvalues    EBANDS =     -1280.36496123
  atomic energy  EATOM  =      4761.61011424
  Solvation  Ediel_sol  =         0.00000000
  ---------------------------------------------------
  free energy    TOTEN  =      -126.40043833 eV

  energy without entropy =     -126.40043833  energy(sigma->0) =     -126.40043833


--------------------------------------------------------------------------------------------------------




--------------------------------------- Iteration      1(   7)  ---------------------------------------


     EDDAV:  cpu time     34.8686: real time     34.9431
       DOS:  cpu time      0.0008: real time      0.0008
    --------------------------------------------
      LOOP:  cpu time     34.8694: real time     34.9439

 eigenvalue-minimisations  :  3520
 total energy-change (2. order) :-0.5017706E-04  (-0.5014129E-04)
 number of electron      90.0000000 magnetization 
 augmentation part       90.0000000 magnetization 

 Free energy of the ion-electron system (eV)
  ---------------------------------------------------
  alpha Z        PSCENC =        53.72225315
  Ewald energy   TEWEN  =     14495.87939577
  -Hartree energ DENC   =    -18497.29708540
  -exchange      EXHF   =         0.00000000
  -V(xc)+E(xc)   XCENC  =       362.18480735
  PAW double counting   =      3688.09193445    -3710.22689666
  entropy T*S    EENTRO =        -0.00000000
  eigenvalues    EBANDS =     -1280.36501141
  atomic energy  EATOM  =      4761.61011424
  Solvation  Ediel_sol  =         0.00000000
  ---------------------------------------------------
  free energy    TOTEN  =      -126.40048851 eV

  energy without entropy =     -126.40048851  energy(sigma->0) =     -126.40048851


--------------------------------------------------------------------------------------------------------




--------------------------------------- Iteration      1(   8)  ---------------------------------------


     EDDAV:  cpu time     33.3729: real time     33.4330
       DOS:  cpu time      0.0012: real time      0.0012
    --------------------------------------------
      LOOP:  cpu time     33.3741: real time     33.4342

 eigenvalue-minimisations  :  3728
 total energy-change (2. order) :-0.2248533E-05  (-0.2247663E-05)
 number of electron      90.0000000 magnetization 
 augmentation part       90.0000000 magnetization 

 Free energy of the ion-electron system (eV)
  ---------------------------------------------------
  alpha Z        PSCENC =        53.72225315
  Ewald energy   TEWEN  =     14495.87939577
  -Hartree energ DENC   =    -18497.29708540
  -exchange      EXHF   =         0.00000000
  -V(xc)+E(xc)   XCENC  =       362.18480735
  PAW double counting   =      3688.09193445    -3710.22689666
  entropy T*S    EENTRO =        -0.00000000
  eigenvalues    EBANDS =     -1280.36501366
  atomic energy  EATOM  =      4761.61011424
  Solvation  Ediel_sol  =         0.00000000
  ---------------------------------------------------
  free energy    TOTEN  =      -126.40049076 eV

  energy without entropy =     -126.40049076  energy(sigma->0) =     -126.40049076


--------------------------------------------------------------------------------------------------------




--------------------------------------- Iteration      1(   9)  ---------------------------------------


     EDDAV:  cpu time     32.9384: real time     33.0165
       DOS:  cpu time      0.0012: real time      0.0012
    --------------------------------------------
      LOOP:  cpu time     32.9397: real time     33.0177

 eigenvalue-minimisations  :  3248
 total energy-change (2. order) :-0.1186709E-06  (-0.1180911E-06)
 number of electron      90.0000000 magnetization 
 augmentation part       90.0000000 magnetization 

 Free energy of the ion-electron system (eV)
  ---------------------------------------------------
  alpha Z        PSCENC =        53.72225315
  Ewald energy   TEWEN  =     14495.87939577
  -Hartree energ DENC   =    -18497.29708540
  -exchange      EXHF   =         0.00000000
  -V(xc)+E(xc)   XCENC  =       362.18480735
  PAW double counting   =      3688.09193445    -3710.22689666
  entropy T*S    EENTRO =        -0.00000000
  eigenvalues    EBANDS =     -1280.36501378
  atomic energy  EATOM  =      4761.61011424
  Solvation  Ediel_sol  =         0.00000000
  ---------------------------------------------------
  free energy    TOTEN  =      -126.40049088 eV

  energy without entropy =     -126.40049088  energy(sigma->0) =     -126.40049088


--------------------------------------------------------------------------------------------------------




--------------------------------------- Iteration      1(  10)  ---------------------------------------


     EDDAV:  cpu time     34.5981: real time     34.6580
       DOS:  cpu time      0.0009: real time      0.0009
    --------------------------------------------
      LOOP:  cpu time     34.5990: real time     34.6589

 eigenvalue-minimisations  :  3232
 total energy-change (2. order) :-0.5256879E-08  (-0.5555776E-08)
 number of electron      90.0000000 magnetization 
 augmentation part       90.0000000 magnetization 

 Free energy of the ion-electron system (eV)
  ---------------------------------------------------
  alpha Z        PSCENC =        53.72225315
  Ewald energy   TEWEN  =     14495.87939577
  -Hartree energ DENC   =    -18497.29708540
  -exchange      EXHF   =         0.00000000
  -V(xc)+E(xc)   XCENC  =       362.18480735
  PAW double counting   =      3688.09193445    -3710.22689666
  entropy T*S    EENTRO =        -0.00000000
  eigenvalues    EBANDS =     -1280.36501378
  atomic energy  EATOM  =      4761.61011424
  Solvation  Ediel_sol  =         0.00000000
  ---------------------------------------------------
  free energy    TOTEN  =      -126.40049088 eV

  energy without entropy =     -126.40049088  energy(sigma->0) =     -126.40049088


--------------------------------------------------------------------------------------------------------




--------------------------------------- Iteration      1(  11)  ---------------------------------------


     EDDAV:  cpu time     26.7634: real time     26.8503
       DOS:  cpu time      0.0137: real time      0.0137
    --------------------------------------------
      LOOP:  cpu time     26.7771: real time     26.8640

 eigenvalue-minimisations  :  2896
 total energy-change (2. order) :-0.8767529E-09  (-0.2281111E-09)
 number of electron      90.0000000 magnetization 
 augmentation part       90.0000000 magnetization 

 Free energy of the ion-electron system (eV)
  ---------------------------------------------------
  alpha Z        PSCENC =        53.72225315
  Ewald energy   TEWEN  =     14495.87939577
  -Hartree energ DENC   =    -18497.29708540
  -exchange      EXHF   =         0.00000000
  -V(xc)+E(xc)   XCENC  =       362.18480735
  PAW double counting   =      3688.09193445    -3710.22689666
  entropy T*S    EENTRO =        -0.00000000
  eigenvalues    EBANDS =     -1280.36501378
  atomic energy  EATOM  =      4761.61011424
  Solvation  Ediel_sol  =         0.00000000
  ---------------------------------------------------
  free energy    TOTEN  =      -126.40049088 eV

  energy without entropy =     -126.40049088  energy(sigma->0) =     -126.40049088


--------------------------------------------------------------------------------------------------------




--------------------------------------- Iteration      1(  12)  ---------------------------------------


     EDDAV:  cpu time     28.4983: real time     28.5821
       DOS:  cpu time      0.0008: real time      0.0008
    CHARGE:  cpu time      1.7777: real time      1.7836
    MIXING:  cpu time      0.0620: real time      0.0621
    --------------------------------------------
      LOOP:  cpu time     30.3389: real time     30.4286

 eigenvalue-minimisations  :  2768
 total energy-change (2. order) :-0.1564331E-09  ( 0.1380676E-11)
 number of electron      90.0000003 magnetization 
 augmentation part        2.0219588 magnetization 

 Broyden mixing:
  rms(total) = 0.18213E+01    rms(broyden)= 0.18086E+01
  rms(prec ) = 0.19339E+01
  weight for this iteration     100.00

 Free energy of the ion-electron system (eV)
  ---------------------------------------------------
  alpha Z        PSCENC =        53.72225315
  Ewald energy   TEWEN  =     14495.87939577
  -Hartree energ DENC   =    -18497.29708540
  -exchange      EXHF   =         0.00000000
  -V(xc)+E(xc)   XCENC  =       362.18480735
  PAW double counting   =      3688.09193445    -3710.22689666
  entropy T*S    EENTRO =        -0.00000000
  eigenvalues    EBANDS =     -1280.36501378
  atomic energy  EATOM  =      4761.61011424
  Solvation  Ediel_sol  =         0.00000000
  ---------------------------------------------------
  free energy    TOTEN  =      -126.40049088 eV

  energy without entropy =     -126.40049088  energy(sigma->0) =     -126.40049088


--------------------------------------------------------------------------------------------------------




--------------------------------------- Iteration      1(  13)  ---------------------------------------


    POTLOK:  cpu time      0.5156: real time      0.5178
    SETDIJ:  cpu time      0.3561: real time      0.3567
     EDDAV:  cpu time     33.5576: real time     33.6233
       DOS:  cpu time      0.0014: real time      0.0014
    CHARGE:  cpu time      1.6979: real time      1.7002
    MIXING:  cpu time      0.0417: real time      0.0417
    --------------------------------------------
      LOOP:  cpu time     36.1701: real time     36.2409

 eigenvalue-minimisations  :  3536
 total energy-change (2. order) : 0.1682564E+01  (-0.2389850E-01)
 number of electron      90.0000003 magnetization 
 augmentation part        1.9916601 magnetization 

 Broyden mixing:
  rms(total) = 0.15972E+01    rms(broyden)= 0.15966E+01
  rms(prec ) = 0.17055E+01
  weight for this iteration     100.00

 eigenvalues of (default mixing * dielectric matrix)
  average eigenvalue GAMMA=   8.3814
  8.3814

 Free energy of the ion-electron system (eV)
  ---------------------------------------------------
  alpha Z        PSCENC =        53.72225315
  Ewald energy   TEWEN  =     14495.87939577
  -Hartree energ DENC   =    -18491.44602830
  -exchange      EXHF   =         0.00000000
  -V(xc)+E(xc)   XCENC  =       362.93332392
  PAW double counting   =      3796.44106388    -3818.52844594
  entropy T*S    EENTRO =        -0.00000000
  eigenvalues    EBANDS =     -1285.32960326
  atomic energy  EATOM  =      4761.61011424
  Solvation  Ediel_sol  =         0.00000000
  ---------------------------------------------------
  free energy    TOTEN  =      -124.71792654 eV

  energy without entropy =     -124.71792654  energy(sigma->0) =     -124.71792654


--------------------------------------------------------------------------------------------------------




--------------------------------------- Iteration      1(  14)  ---------------------------------------


    POTLOK:  cpu time      0.2168: real time      0.2171
    SETDIJ:  cpu time      0.2642: real time      0.2645
     EDDAV:  cpu time     30.1020: real time     30.2098
       DOS:  cpu time      0.0018: real time      0.0018
    CHARGE:  cpu time      2.6545: real time      2.6576
    MIXING:  cpu time      0.0937: real time      0.0938
    --------------------------------------------
      LOOP:  cpu time     33.3330: real time     33.4447

 eigenvalue-minimisations  :  3840
 total energy-change (2. order) : 0.3996449E+01  (-0.1230323E+01)
 number of electron      90.0000003 magnetization 
 augmentation part        1.7560675 magnetization 

 Broyden mixing:
  rms(total) = 0.21012E+00    rms(broyden)= 0.20987E+00
  rms(prec ) = 0.22189E+00
  weight for this iteration     100.00

 eigenvalues of (default mixing * dielectric matrix)
  average eigenvalue GAMMA=   6.0279
  4.6030  7.4528

 Free energy of the ion-electron system (eV)
  ---------------------------------------------------
  alpha Z        PSCENC =        53.72225315
  Ewald energy   TEWEN  =     14495.87939577
  -Hartree energ DENC   =    -18458.48992029
  -exchange      EXHF   =         0.00000000
  -V(xc)+E(xc)   XCENC  =       367.81603122
  PAW double counting   =      4659.05019051    -4680.53440246
  entropy T*S    EENTRO =        -0.00000000
  eigenvalues    EBANDS =     -1319.77514000
  atomic energy  EATOM  =      4761.61011424
  Solvation  Ediel_sol  =         0.00000000
  ---------------------------------------------------
  free energy    TOTEN  =      -120.72147785 eV

  energy without entropy =     -120.72147785  energy(sigma->0) =     -120.72147785


--------------------------------------------------------------------------------------------------------




--------------------------------------- Iteration      1(  15)  ---------------------------------------


    POTLOK:  cpu time      0.3991: real time      0.3997
    SETDIJ:  cpu time      0.4100: real time      0.4103
     EDDAV:  cpu time     23.6270: real time     23.6575
       DOS:  cpu time      0.0012: real time      0.0012
    CHARGE:  cpu time      2.5658: real time      2.5717
    MIXING:  cpu time      0.0433: real time      0.0434
    --------------------------------------------
      LOOP:  cpu time     27.0464: real time     27.0838

 eigenvalue-minimisations  :  3184
 total energy-change (2. order) :-0.3759846E-01  (-0.9982098E-01)
 number of electron      90.0000003 magnetization 
 augmentation part        1.8000932 magnetization 

 Broyden mixing:
  rms(total) = 0.15283E+00    rms(broyden)= 0.15281E+00
  rms(prec ) = 0.15906E+00
  weight for this iteration     100.00

 eigenvalues of (default mixing * dielectric matrix)
  average eigenvalue GAMMA=   5.9742
  8.5128  8.5128  0.8970

 Free energy of the ion-electron system (eV)
  ---------------------------------------------------
  alpha Z        PSCENC =        53.72225315
  Ewald energy   TEWEN  =     14495.87939577
  -Hartree energ DENC   =    -18463.26204740
  -exchange      EXHF   =         0.00000000
  -V(xc)+E(xc)   XCENC  =       367.52189235
  PAW double counting   =      4659.88561410    -4681.49068722
  entropy T*S    EENTRO =        -0.00000000
  eigenvalues    EBANDS =     -1314.62561129
  atomic energy  EATOM  =      4761.61011424
  Solvation  Ediel_sol  =         0.00000000
  ---------------------------------------------------
  free energy    TOTEN  =      -120.75907631 eV

  energy without entropy =     -120.75907631  energy(sigma->0) =     -120.75907631


--------------------------------------------------------------------------------------------------------




--------------------------------------- Iteration      1(  16)  ---------------------------------------


    POTLOK:  cpu time      0.3514: real time      0.3519
    SETDIJ:  cpu time      0.4719: real time      0.4724
     EDDAV:  cpu time     33.7653: real time     33.8609
       DOS:  cpu time      0.0021: real time      0.0021
    CHARGE:  cpu time      2.2294: real time      2.2321
    MIXING:  cpu time      0.0631: real time      0.0632
    --------------------------------------------
      LOOP:  cpu time     36.8832: real time     36.9826

 eigenvalue-minimisations  :  3456
 total energy-change (2. order) :-0.1937621E-01  (-0.6361350E-02)
 number of electron      90.0000003 magnetization 
 augmentation part        1.8172721 magnetization 

 Broyden mixing:
  rms(total) = 0.62000E-01    rms(broyden)= 0.61996E-01
  rms(prec ) = 0.66853E-01
  weight for this iteration     100.00

 eigenvalues of (default mixing * dielectric matrix)
  average eigenvalue GAMMA=   4.9131
  9.8245  7.5270  1.0134  1.2877

 Free energy of the ion-electron system (eV)
  ---------------------------------------------------
  alpha Z        PSCENC =        53.72225315
  Ewald energy   TEWEN  =     14495.87939577
  -Hartree energ DENC   =    -18467.65230847
  -exchange      EXHF   =         0.00000000
  -V(xc)+E(xc)   XCENC  =       367.37722986
  PAW double counting   =      4721.41835671    -4743.15870552
  entropy T*S    EENTRO =        -0.00000000
  eigenvalues    EBANDS =     -1309.97478825
  atomic energy  EATOM  =      4761.61011424
  Solvation  Ediel_sol  =         0.00000000
  ---------------------------------------------------
  free energy    TOTEN  =      -120.77845252 eV

  energy without entropy =     -120.77845252  energy(sigma->0) =     -120.77845252


--------------------------------------------------------------------------------------------------------




--------------------------------------- Iteration      1(  17)  ---------------------------------------


    POTLOK:  cpu time      0.2544: real time      0.2547
    SETDIJ:  cpu time      0.3113: real time      0.3115
     EDDAV:  cpu time     30.4577: real time     30.6543
       DOS:  cpu time      0.0027: real time      0.0027
    CHARGE:  cpu time      2.9460: real time      2.9493
    MIXING:  cpu time      0.0699: real time      0.0700
    --------------------------------------------
      LOOP:  cpu time     34.0420: real time     34.2425

 eigenvalue-minimisations  :  3216
 total energy-change (2. order) :-0.7020393E-03  (-0.2223251E-02)
 number of electron      90.0000003 magnetization 
 augmentation part        1.8069786 magnetization 

 Broyden mixing:
  rms(total) = 0.25522E-01    rms(broyden)= 0.25519E-01
  rms(prec ) = 0.26918E-01
  weight for this iteration     100.00

 eigenvalues of (default mixing * dielectric matrix)
  average eigenvalue GAMMA=   4.5599
  9.7652  7.4329  3.6636  1.0106  0.9273

 Free energy of the ion-electron system (eV)
  ---------------------------------------------------
  alpha Z        PSCENC =        53.72225315
  Ewald energy   TEWEN  =     14495.87939577
  -Hartree energ DENC   =    -18466.10109589
  -exchange      EXHF   =         0.00000000
  -V(xc)+E(xc)   XCENC  =       367.62278196
  PAW double counting   =      4772.10794797    -4793.82127351
  entropy T*S    EENTRO =        -0.00000000
  eigenvalues    EBANDS =     -1311.79927825
  atomic energy  EATOM  =      4761.61011424
  Solvation  Ediel_sol  =         0.00000000
  ---------------------------------------------------
  free energy    TOTEN  =      -120.77915456 eV

  energy without entropy =     -120.77915456  energy(sigma->0) =     -120.77915456


--------------------------------------------------------------------------------------------------------




--------------------------------------- Iteration      1(  18)  ---------------------------------------


    POTLOK:  cpu time      0.3460: real time      0.3464
    SETDIJ:  cpu time      0.3501: real time      0.3503
     EDDAV:  cpu time     34.1024: real time     34.1586
       DOS:  cpu time      0.0024: real time      0.0024
    CHARGE:  cpu time      3.1356: real time      3.1396
    MIXING:  cpu time      0.0937: real time      0.0938
    --------------------------------------------
      LOOP:  cpu time     38.0302: real time     38.0911

 eigenvalue-minimisations  :  4000
 total energy-change (2. order) : 0.2079950E-03  (-0.1264403E-03)
 number of electron      90.0000003 magnetization 
 augmentation part        1.8082397 magnetization 

 Broyden mixing:
  rms(total) = 0.19458E-01    rms(broyden)= 0.19457E-01
  rms(prec ) = 0.20430E-01
  weight for this iteration     100.00

 eigenvalues of (default mixing * dielectric matrix)
  average eigenvalue GAMMA=   4.5202
  9.7427  7.7017  6.3092  1.3133  1.0271  1.0271

 Free energy of the ion-electron system (eV)
  ---------------------------------------------------
  alpha Z        PSCENC =        53.72225315
  Ewald energy   TEWEN  =     14495.87939577
  -Hartree energ DENC   =    -18464.95581571
  -exchange      EXHF   =         0.00000000
  -V(xc)+E(xc)   XCENC  =       367.58908798
  PAW double counting   =      4772.14044477    -4793.85374970
  entropy T*S    EENTRO =        -0.00000000
  eigenvalues    EBANDS =     -1312.91067706
  atomic energy  EATOM  =      4761.61011424
  Solvation  Ediel_sol  =         0.00000000
  ---------------------------------------------------
  free energy    TOTEN  =      -120.77894656 eV

  energy without entropy =     -120.77894656  energy(sigma->0) =     -120.77894656


--------------------------------------------------------------------------------------------------------




--------------------------------------- Iteration      1(  19)  ---------------------------------------


    POTLOK:  cpu time      0.4372: real time      0.4378
    SETDIJ:  cpu time      0.4807: real time      0.4812
     EDDAV:  cpu time     26.3471: real time     26.3822
       DOS:  cpu time      0.0015: real time      0.0015
    CHARGE:  cpu time      1.7448: real time      1.7475
    MIXING:  cpu time      0.0274: real time      0.0275
    --------------------------------------------
      LOOP:  cpu time     29.0387: real time     29.0776

 eigenvalue-minimisations  :  3360
 total energy-change (2. order) : 0.1767921E-03  (-0.5004014E-04)
 number of electron      90.0000003 magnetization 
 augmentation part        1.8096995 magnetization 

 Broyden mixing:
  rms(total) = 0.95839E-02    rms(broyden)= 0.95830E-02
  rms(prec ) = 0.99973E-02
  weight for this iteration     100.00

 eigenvalues of (default mixing * dielectric matrix)
  average eigenvalue GAMMA=   4.8268
  9.9719  7.5444  7.5444  5.7853  1.0011  1.0011  0.9394

 Free energy of the ion-electron system (eV)
  ---------------------------------------------------
  alpha Z        PSCENC =        53.72225315
  Ewald energy   TEWEN  =     14495.87939577
  -Hartree energ DENC   =    -18463.94063921
  -exchange      EXHF   =         0.00000000
  -V(xc)+E(xc)   XCENC  =       367.54998993
  PAW double counting   =      4772.87354415    -4794.58947514
  entropy T*S    EENTRO =        -0.00000000
  eigenvalues    EBANDS =     -1313.88395265
  atomic energy  EATOM  =      4761.61011424
  Solvation  Ediel_sol  =         0.00000000
  ---------------------------------------------------
  free energy    TOTEN  =      -120.77876977 eV

  energy without entropy =     -120.77876977  energy(sigma->0) =     -120.77876977


--------------------------------------------------------------------------------------------------------




--------------------------------------- Iteration      1(  20)  ---------------------------------------


    POTLOK:  cpu time      0.1910: real time      0.1913
    SETDIJ:  cpu time      0.3382: real time      0.3388
     EDDAV:  cpu time     34.5594: real time     34.6225
       DOS:  cpu time      0.0008: real time      0.0008
    CHARGE:  cpu time      1.5467: real time      1.5502
    MIXING:  cpu time      0.0616: real time      0.0619
    --------------------------------------------
      LOOP:  cpu time     36.6979: real time     36.7658

 eigenvalue-minimisations  :  3568
 total energy-change (2. order) :-0.1520566E-03  (-0.8420887E-05)
 number of electron      90.0000003 magnetization 
 augmentation part        1.8088983 magnetization 

 Broyden mixing:
  rms(total) = 0.75973E-02    rms(broyden)= 0.75971E-02
  rms(prec ) = 0.80674E-02
  weight for this iteration     100.00

 eigenvalues of (default mixing * dielectric matrix)
  average eigenvalue GAMMA=   4.6645
 10.4380  9.5094  8.0195  5.4399  1.0340  0.9892  0.9892  0.8967

 Free energy of the ion-electron system (eV)
  ---------------------------------------------------
  alpha Z        PSCENC =        53.72225315
  Ewald energy   TEWEN  =     14495.87939577
  -Hartree energ DENC   =    -18463.87442808
  -exchange      EXHF   =         0.00000000
  -V(xc)+E(xc)   XCENC  =       367.56921655
  PAW double counting   =      4776.30055843    -4798.01055148
  entropy T*S    EENTRO =        -0.00000000
  eigenvalues    EBANDS =     -1313.97548041
  atomic energy  EATOM  =      4761.61011424
  Solvation  Ediel_sol  =         0.00000000
  ---------------------------------------------------
  free energy    TOTEN  =      -120.77892183 eV

  energy without entropy =     -120.77892183  energy(sigma->0) =     -120.77892183


--------------------------------------------------------------------------------------------------------




--------------------------------------- Iteration      1(  21)  ---------------------------------------


    POTLOK:  cpu time      0.4279: real time      0.4291
    SETDIJ:  cpu time      0.4622: real time      0.4629
     EDDAV:  cpu time     35.7935: real time     35.8717
       DOS:  cpu time      0.0023: real time      0.0023
    CHARGE:  cpu time      2.0403: real time      2.0426
    MIXING:  cpu time      0.1465: real time      0.1466
    --------------------------------------------
      LOOP:  cpu time     38.8725: real time     39.0171

 eigenvalue-minimisations  :  3712
 total energy-change (2. order) : 0.8711455E-04  (-0.2465810E-04)
 number of electron      90.0000003 magnetization 
 augmentation part        1.8101505 magnetization 

 Broyden mixing:
  rms(total) = 0.74609E-03    rms(broyden)= 0.74501E-03
  rms(prec ) = 0.79866E-03
  weight for this iteration     100.00

 eigenvalues of (default mixing * dielectric matrix)
  average eigenvalue GAMMA=   4.8141
 10.7750  9.0836  8.2888  5.5979  5.5979  1.0101  1.0101  0.9816  0.9816

 Free energy of the ion-electron system (eV)
  ---------------------------------------------------
  alpha Z        PSCENC =        53.72225315
  Ewald energy   TEWEN  =     14495.87939577
  -Hartree energ DENC   =    -18463.73379872
  -exchange      EXHF   =         0.00000000
  -V(xc)+E(xc)   XCENC  =       367.54811374
  PAW double counting   =      4776.61333241    -4798.32644406
  entropy T*S    EENTRO =        -0.00000000
  eigenvalues    EBANDS =     -1314.09180124
  atomic energy  EATOM  =      4761.61011424
  Solvation  Ediel_sol  =         0.00000000
  ---------------------------------------------------
  free energy    TOTEN  =      -120.77883471 eV

  energy without entropy =     -120.77883471  energy(sigma->0) =     -120.77883471


--------------------------------------------------------------------------------------------------------




--------------------------------------- Iteration      1(  22)  ---------------------------------------


    POTLOK:  cpu time      0.5441: real time      0.6072
    SETDIJ:  cpu time      0.5297: real time      0.5307
     EDDAV:  cpu time     27.4372: real time     27.4946
       DOS:  cpu time      0.0011: real time      0.0011
    CHARGE:  cpu time      1.7741: real time      1.7782
    MIXING:  cpu time      0.1424: real time      0.1426
    --------------------------------------------
      LOOP:  cpu time     30.4284: real time     30.4923

 eigenvalue-minimisations  :  3552
 total energy-change (2. order) :-0.2196369E-05  (-0.1858281E-05)
 number of electron      90.0000003 magnetization 
 augmentation part        1.8100215 magnetization 

 Broyden mixing:
  rms(total) = 0.79325E-03    rms(broyden)= 0.79264E-03
  rms(prec ) = 0.85009E-03
  weight for this iteration     100.00

 eigenvalues of (default mixing * dielectric matrix)
  average eigenvalue GAMMA=   4.7295
 10.5897  9.2019  9.2019  7.6596  5.6694  1.1123  1.0065  0.9419  0.9559  0.9559

 Free energy of the ion-electron system (eV)
  ---------------------------------------------------
  alpha Z        PSCENC =        53.72225315
  Ewald energy   TEWEN  =     14495.87939577
  -Hartree energ DENC   =    -18463.73400148
  -exchange      EXHF   =         0.00000000
  -V(xc)+E(xc)   XCENC  =       367.54813582
  PAW double counting   =      4776.62530400    -4798.33844216
  entropy T*S    EENTRO =        -0.00000000
  eigenvalues    EBANDS =     -1314.09159625
  atomic energy  EATOM  =      4761.61011424
  Solvation  Ediel_sol  =         0.00000000
  ---------------------------------------------------
  free energy    TOTEN  =      -120.77883691 eV

  energy without entropy =     -120.77883691  energy(sigma->0) =     -120.77883691


--------------------------------------------------------------------------------------------------------




--------------------------------------- Iteration      1(  23)  ---------------------------------------


    POTLOK:  cpu time      0.6121: real time      0.6140
    SETDIJ:  cpu time      0.5625: real time      0.5637
     EDDAV:  cpu time     34.6193: real time     34.7582
       DOS:  cpu time      0.0008: real time      0.0008
    CHARGE:  cpu time      1.7682: real time      1.7714
    MIXING:  cpu time      0.0266: real time      0.0267
    --------------------------------------------
      LOOP:  cpu time     37.5895: real time     37.7349

 eigenvalue-minimisations  :  3648
 total energy-change (2. order) :-0.2496452E-05  (-0.1906880E-06)
 number of electron      90.0000003 magnetization 
 augmentation part        1.8100619 magnetization 

 Broyden mixing:
  rms(total) = 0.37409E-03    rms(broyden)= 0.37283E-03
  rms(prec ) = 0.39013E-03
  weight for this iteration     100.00

 eigenvalues of (default mixing * dielectric matrix)
  average eigenvalue GAMMA=   4.4068
 10.6613  9.7086  8.2199  8.2199  5.7002  1.1422  0.9721  0.9721  0.9983  0.9850
  0.8953

 Free energy of the ion-electron system (eV)
  ---------------------------------------------------
  alpha Z        PSCENC =        53.72225315
  Ewald energy   TEWEN  =     14495.87939577
  -Hartree energ DENC   =    -18463.82858592
  -exchange      EXHF   =         0.00000000
  -V(xc)+E(xc)   XCENC  =       367.54870628
  PAW double counting   =      4776.52945805    -4798.24289478
  entropy T*S    EENTRO =        -0.00000000
  eigenvalues    EBANDS =     -1313.99728619
  atomic energy  EATOM  =      4761.61011424
  Solvation  Ediel_sol  =         0.00000000
  ---------------------------------------------------
  free energy    TOTEN  =      -120.77883940 eV

  energy without entropy =     -120.77883940  energy(sigma->0) =     -120.77883940


--------------------------------------------------------------------------------------------------------




--------------------------------------- Iteration      1(  24)  ---------------------------------------


    POTLOK:  cpu time      0.2796: real time      0.2800
    SETDIJ:  cpu time      0.2842: real time      0.2846
     EDDAV:  cpu time     31.9778: real time     32.1077
       DOS:  cpu time      0.0010: real time      0.0010
    CHARGE:  cpu time      1.2029: real time      1.2038
    MIXING:  cpu time      0.0309: real time      0.0309
    --------------------------------------------
      LOOP:  cpu time     33.7763: real time     33.9078

 eigenvalue-minimisations  :  2544
 total energy-change (2. order) :-0.7826720E-06  (-0.8584926E-08)
 number of electron      90.0000003 magnetization 
 augmentation part        1.8100612 magnetization 

 Broyden mixing:
  rms(total) = 0.20945E-03    rms(broyden)= 0.20721E-03
  rms(prec ) = 0.21779E-03
  weight for this iteration     100.00

 eigenvalues of (default mixing * dielectric matrix)
  average eigenvalue GAMMA=   4.5230
 10.5039 10.3228  8.0408  8.0408  5.9425  5.4544  0.9655  0.9655  1.0381  1.0381
  1.0064  0.9569

 Free energy of the ion-electron system (eV)
  ---------------------------------------------------
  alpha Z        PSCENC =        53.72225315
  Ewald energy   TEWEN  =     14495.87939577
  -Hartree energ DENC   =    -18463.84152610
  -exchange      EXHF   =         0.00000000
  -V(xc)+E(xc)   XCENC  =       367.54879184
  PAW double counting   =      4776.46490743    -4798.17843032
  entropy T*S    EENTRO =        -0.00000000
  eigenvalues    EBANDS =     -1313.98434619
  atomic energy  EATOM  =      4761.61011424
  Solvation  Ediel_sol  =         0.00000000
  ---------------------------------------------------
  free energy    TOTEN  =      -120.77884019 eV

  energy without entropy =     -120.77884019  energy(sigma->0) =     -120.77884019


--------------------------------------------------------------------------------------------------------




--------------------------------------- Iteration      1(  25)  ---------------------------------------


    POTLOK:  cpu time      0.1766: real time      0.1768
    SETDIJ:  cpu time      0.2386: real time      0.2756
     EDDAV:  cpu time     16.7491: real time     16.7902
       DOS:  cpu time      0.0008: real time      0.0008
    CHARGE:  cpu time      1.7833: real time      1.7865
    MIXING:  cpu time      0.0378: real time      0.0379
    --------------------------------------------
      LOOP:  cpu time     18.9863: real time     19.0680

 eigenvalue-minimisations  :  2208
 total energy-change (2. order) :-0.1729113E-06  (-0.2587828E-08)
 number of electron      90.0000003 magnetization 
 augmentation part        1.8100454 magnetization 

 Broyden mixing:
  rms(total) = 0.14669E-03    rms(broyden)= 0.14347E-03
  rms(prec ) = 0.15082E-03
  weight for this iteration     100.00

 eigenvalues of (default mixing * dielectric matrix)
  average eigenvalue GAMMA=   4.5348
 10.2153 10.2153 10.1945  7.9490  7.9490  5.6493  1.0928  0.9700  0.9700  1.0309
  1.0031  0.9257  0.7871

 Free energy of the ion-electron system (eV)
  ---------------------------------------------------
  alpha Z        PSCENC =        53.72225315
  Ewald energy   TEWEN  =     14495.87939577
  -Hartree energ DENC   =    -18463.84410586
  -exchange      EXHF   =         0.00000000
  -V(xc)+E(xc)   XCENC  =       367.54896197
  PAW double counting   =      4776.44677839    -4798.16027037
  entropy T*S    EENTRO =        -0.00000000
  eigenvalues    EBANDS =     -1313.98196764
  atomic energy  EATOM  =      4761.61011424
  Solvation  Ediel_sol  =         0.00000000
  ---------------------------------------------------
  free energy    TOTEN  =      -120.77884036 eV

  energy without entropy =     -120.77884036  energy(sigma->0) =     -120.77884036


--------------------------------------------------------------------------------------------------------




--------------------------------------- Iteration      1(  26)  ---------------------------------------


    POTLOK:  cpu time      0.3162: real time      0.3171
    SETDIJ:  cpu time      0.5610: real time      0.5622
     EDDAV:  cpu time     26.8260: real time     26.9124
       DOS:  cpu time      0.0014: real time      0.0014
    CHARGE:  cpu time      1.3413: real time      1.3423
    MIXING:  cpu time      0.0716: real time      0.0716
    --------------------------------------------
      LOOP:  cpu time     29.1173: real time     29.2070

 eigenvalue-minimisations  :  2240
 total energy-change (2. order) :-0.3336318E-06  (-0.8475347E-08)
 number of electron      90.0000003 magnetization 
 augmentation part        1.8100240 magnetization 

 Broyden mixing:
  rms(total) = 0.31994E-04    rms(broyden)= 0.95263E-05
  rms(prec ) = 0.10191E-04
  weight for this iteration     100.00
  WARNING: grid for Broyden might be to small

 eigenvalues of (default mixing * dielectric matrix)
  average eigenvalue GAMMA=   4.3097
 10.5463  9.9843  9.9843  8.1823  8.1823  5.6440  1.1330  1.0337  1.0029  0.9715
  0.9715  0.9252  0.8873  0.8873

 Free energy of the ion-electron system (eV)
  ---------------------------------------------------
  alpha Z        PSCENC =        53.72225315
  Ewald energy   TEWEN  =     14495.87939577
  -Hartree energ DENC   =    -18463.84867898
  -exchange      EXHF   =         0.00000000
  -V(xc)+E(xc)   XCENC  =       367.54937163
  PAW double counting   =      4776.43296214    -4798.14640563
  entropy T*S    EENTRO =        -0.00000000
  eigenvalues    EBANDS =     -1313.97785301
  atomic energy  EATOM  =      4761.61011424
  Solvation  Ediel_sol  =         0.00000000
  ---------------------------------------------------
  free energy    TOTEN  =      -120.77884069 eV

  energy without entropy =     -120.77884069  energy(sigma->0) =     -120.77884069


--------------------------------------------------------------------------------------------------------




--------------------------------------- Iteration      1(  27)  ---------------------------------------


    POTLOK:  cpu time      0.3010: real time      0.3015
    SETDIJ:  cpu time      0.3738: real time      0.3744
     EDDAV:  cpu time     15.0038: real time     15.0268
       DOS:  cpu time      0.0007: real time      0.0007
    --------------------------------------------
      LOOP:  cpu time     15.6792: real time     15.7034

 eigenvalue-minimisations  :  2224
 total energy-change (2. order) :-0.1937860E-07  (-0.1167260E-08)
 number of electron      90.0000003 magnetization 
[...]
      4.588997  1.324729  8.348450    -0.219029    0.197636   -0.000000  
     -1.147249  3.311823  8.348450     0.183574   -0.244867    0.000000  
      1.147249  3.311823  8.348450    -0.024130   -0.036723   -0.000000  
      3.441748  3.311823  8.348450    -0.023434    0.281590    0.000000  
     -2.294499  5.298918  8.348450     0.243160   -0.160913   -0.000000  
      0.000000  5.298918  8.348450     0.030751    0.039082    0.000000  
      2.294499  5.298918  8.348450    -0.104557    0.121831   -0.000000  
 
  44 f  =   14.312455 THz    89.927805 2PiTHz  477.412100 cm-1    59.191530 meV
             X         Y         Z           dx          dy          dz
      1.147249  0.662365  7.651550    -0.058371    0.026391   -0.000000  
      3.441748  0.662365  7.651550    -0.077979    0.021289   -0.000000  
      5.736246  0.662365  7.651550    -0.112689   -0.047680    0.000000  
      0.000000  2.649459  7.651550     0.292399   -0.057685   -0.000000  
      2.294499  2.649459  7.651550     0.332609    0.040820    0.000000  
      4.588997  2.649459  7.651550     0.323887    0.016864   -0.000000  
     -1.147249  4.636553  7.651550    -0.219921    0.006859    0.000000  
      1.147249  4.636553  7.651550    -0.265516   -0.043255   -0.000000  
      3.441748  4.636553  7.651550    -0.214421    0.036396   -0.000000  
      0.000000  1.324729  8.348450     0.051263   -0.047553    0.000000  
      2.294499  1.324729  8.348450     0.094757    0.050634    0.000000  
      4.588997  1.324729  8.348450     0.060960   -0.003080   -0.000000  
     -1.147249  3.311823  8.348450     0.243145   -0.016919   -0.000000  
      1.147249  3.311823  8.348450     0.218861   -0.036127   -0.000000  
      3.441748  3.311823  8.348450     0.267560    0.053046    0.000000  
     -2.294499  5.298918  8.348450    -0.279821    0.039207   -0.000000  
      0.000000  5.298918  8.348450    -0.318822   -0.005493    0.000000  
      2.294499  5.298918  8.348450    -0.337902   -0.033715   -0.000000  
 
  45 f  =   14.312455 THz    89.927805 2PiTHz  477.412100 cm-1    59.191530 meV
             X         Y         Z           dx          dy          dz
      1.147249  0.662365  7.651550    -0.382690   -0.001858    0.000000  
      3.441748  0.662365  7.651550    -0.253500   -0.039766   -0.000000  
      5.736246  0.662365  7.651550    -0.277671    0.041625   -0.000000  
      0.000000  2.649459  7.651550     0.082753    0.110833   -0.000000  
      2.294499  2.649459  7.651550     0.093229   -0.132694   -0.000000  
      4.588997  2.649459  7.651550     0.111300    0.021861    0.000000  
     -1.147249  4.636553  7.651550     0.184441    0.091070   -0.000000  
      1.147249  4.636553  7.651550     0.271390   -0.020003    0.000000  
      3.441748  4.636553  7.651550     0.170747   -0.071067   -0.000000  
      0.000000  1.324729  8.348450    -0.336177    0.090775   -0.000000  
      2.294499  1.324729  8.348450    -0.316968   -0.105563   -0.000000  
      4.588997  1.324729  8.348450    -0.250859    0.014788    0.000000  
     -1.147249  3.311823  8.348450     0.205039    0.126669   -0.000000  
      1.147249  3.311823  8.348450     0.250598   -0.024029    0.000000  
      3.441748  3.311823  8.348450     0.201837   -0.102640   -0.000000  
     -2.294499  5.298918  8.348450     0.000261    0.009241    0.000000  
      0.000000  5.298918  8.348450     0.134340    0.011865   -0.000000  
      2.294499  5.298918  8.348450     0.111929   -0.021106    0.000000  
 
  46 f  =    8.333066 THz    52.358198 2PiTHz  277.961164 cm-1    34.462777 meV
             X         Y         Z           dx          dy          dz
      1.147249  0.662365  7.651550     0.030570   -0.042119    0.348862  
      3.441748  0.662365  7.651550    -0.049287   -0.048226    0.206476  
      5.736246  0.662365  7.651550     0.018717   -0.029918   -0.084480  
      0.000000  2.649459  7.651550     0.014077   -0.013949   -0.238513  
      2.294499  2.649459  7.651550    -0.014647   -0.049578   -0.169672  
      4.588997  2.649459  7.651550     0.000571   -0.000793   -0.386973  
     -1.147249  4.636553  7.651550    -0.004070    0.079495    0.254152  
      1.147249  4.636553  7.651550    -0.031140    0.042913    0.038111  
      3.441748  4.636553  7.651550     0.035210    0.062175    0.032037  
      0.000000  1.324729  8.348450    -0.049205    0.053433    0.005276  
      2.294499  1.324729  8.348450     0.018757    0.071942    0.219208  
      4.588997  1.324729  8.348450     0.030449    0.059417   -0.162405  
     -1.147249  3.311823  8.348450    -0.014560   -0.067938   -0.218077  
      1.147249  3.311823  8.348450     0.000805   -0.019062   -0.205087  
      3.441748  3.311823  8.348450     0.013755   -0.032314   -0.298301  
     -2.294499  5.298918  8.348450    -0.031254   -0.040354    0.367492  
      0.000000  5.298918  8.348450     0.035450   -0.021119    0.293025  
      2.294499  5.298918  8.348450    -0.004196   -0.004004   -0.001130  
 
  47 f  =    8.333066 THz    52.358198 2PiTHz  277.961164 cm-1    34.462777 meV
             X         Y         Z           dx          dy          dz
      1.147249  0.662365  7.651550     0.017238   -0.043714   -0.152088  
      3.441748  0.662365  7.651550     0.044414    0.017711    0.231633  
      5.736246  0.662365  7.651550    -0.061652   -0.007135    0.140185  
      0.000000  2.649459  7.651550    -0.053885   -0.003786   -0.426961  
      2.294499  2.649459  7.651550     0.084021   -0.006292   -0.172228  
      4.588997  2.649459  7.651550    -0.030136   -0.026466    0.315660  
     -1.147249  4.636553  7.651550    -0.022369    0.013427    0.032043  
      1.147249  4.636553  7.651550     0.012898    0.070180   -0.163573  
      3.441748  4.636553  7.651550     0.009471   -0.013924    0.195328  
      0.000000  1.324729  8.348450     0.044654    0.051806   -0.251025  
      2.294499  1.324729  8.348450    -0.062055    0.027074   -0.055859  
      4.588997  1.324729  8.348450     0.017401   -0.009211    0.388852  
     -1.147249  3.311823  8.348450     0.083870   -0.004970   -0.043245  
      1.147249  3.311823  8.348450    -0.030119   -0.025498   -0.445979  
      3.441748  3.311823  8.348450    -0.053751   -0.002266    0.200589  
     -2.294499  5.298918  8.348450     0.012718    0.034710    0.057127  
      0.000000  5.298918  8.348450     0.009097   -0.049540    0.050436  
      2.294499  5.298918  8.348450    -0.021815   -0.022104    0.099104  
 
  48 f  =    8.333066 THz    52.358198 2PiTHz  277.961164 cm-1    34.462777 meV
             X         Y         Z           dx          dy          dz
      1.147249  0.662365  7.651550     0.019957    0.032496   -0.213229  
      3.441748  0.662365  7.651550     0.023162   -0.014807    0.241519  
      5.736246  0.662365  7.651550    -0.043119   -0.046296    0.141267  
      0.000000  2.649459  7.651550     0.056655    0.011732   -0.169073  
      2.294499  2.649459  7.651550    -0.019407    0.010193    0.142566  
      4.588997  2.649459  7.651550    -0.037249   -0.049262   -0.203840  
     -1.147249  4.636553  7.651550     0.062526    0.036103   -0.283833  
      1.147249  4.636553  7.651550     0.017291    0.016766    0.417069  
      3.441748  4.636553  7.651550    -0.079817    0.003075   -0.072446  
      0.000000  1.324729  8.348450     0.022643    0.013239   -0.143902  
      2.294499  1.324729  8.348450    -0.042807   -0.018117    0.087826  
      4.588997  1.324729  8.348450     0.020164    0.060826    0.112330  
     -1.147249  3.311823  8.348450    -0.019808    0.009669   -0.376049  
      1.147249  3.311823  8.348450    -0.037238   -0.049412    0.218341  
      3.441748  3.311823  8.348450     0.057045    0.011453   -0.071363  
     -2.294499  5.298918  8.348450     0.017073   -0.011414   -0.330671  
      0.000000  5.298918  8.348450    -0.079688   -0.024693    0.215266  
      2.294499  5.298918  8.348450     0.062614    0.008448    0.288223  
 
  49 f  =    8.333066 THz    52.358198 2PiTHz  277.961164 cm-1    34.462777 meV
             X         Y         Z           dx          dy          dz
      1.147249  0.662365  7.651550     0.070427    0.042416    0.020073  
      3.441748  0.662365  7.651550    -0.031053    0.026271    0.379471  
      5.736246  0.662365  7.651550    -0.039374    0.058105   -0.269478  
      0.000000  2.649459  7.651550     0.001939    0.018620    0.011128  
      2.294499  2.649459  7.651550     0.005705   -0.058289    0.233231  
      4.588997  2.649459  7.651550    -0.007644   -0.023552    0.145445  
     -1.147249  4.636553  7.651550     0.033669    0.000184    0.036247  
      1.147249  4.636553  7.651550    -0.062783   -0.018864   -0.165518  
      3.441748  4.636553  7.651550     0.029114   -0.044890   -0.390599  
      0.000000  1.324729  8.348450    -0.030949   -0.037664   -0.139987  
      2.294499  1.324729  8.348450    -0.039267   -0.005367    0.374793  
      4.588997  1.324729  8.348450     0.070216   -0.021260    0.151315  
     -1.147249  3.311823  8.348450     0.005427    0.005027    0.097523  
      1.147249  3.311823  8.348450    -0.007138    0.039776    0.039938  
      3.441748  3.311823  8.348450     0.001711    0.081985   -0.002273  
     -2.294499  5.298918  8.348450    -0.063078   -0.018516   -0.191253  
      0.000000  5.298918  8.348450     0.029239   -0.044320    0.142260  
      2.294499  5.298918  8.348450     0.033840    0.000340   -0.472316  
 
  50 f  =    8.333066 THz    52.358198 2PiTHz  277.961164 cm-1    34.462777 meV
             X         Y         Z           dx          dy          dz
      1.147249  0.662365  7.651550     0.035962   -0.008826    0.116925  
      3.441748  0.662365  7.651550    -0.052657    0.037184   -0.116332  
      5.736246  0.662365  7.651550     0.016695   -0.033129   -0.268958  
      0.000000  2.649459  7.651550     0.047376    0.005337   -0.218135  
      2.294499  2.649459  7.651550     0.031498    0.009349    0.426745  
      4.588997  2.649459  7.651550    -0.078874    0.042800   -0.034649  
     -1.147249  4.636553  7.651550    -0.048193    0.023780   -0.157788  
      1.147249  4.636553  7.651550     0.042911   -0.033974   -0.082275  
      3.441748  4.636553  7.651550     0.005282   -0.042521    0.334467  
      0.000000  1.324729  8.348450    -0.052816    0.021239   -0.203416  
      2.294499  1.324729  8.348450     0.016392   -0.048836    0.242910  
      4.588997  1.324729  8.348450     0.036424   -0.024880   -0.243933  
     -1.147249  3.311823  8.348450     0.031744   -0.011820   -0.241138  
      1.147249  3.311823  8.348450    -0.078898    0.021943    0.079641  
      3.441748  3.311823  8.348450     0.047154   -0.015313    0.419443  
     -2.294499  5.298918  8.348450     0.042474    0.002937    0.164292  
      0.000000  5.298918  8.348450     0.005662   -0.005926   -0.216028  
      2.294499  5.298918  8.348450    -0.048136    0.060655   -0.001772  
 
  51 f  =    8.333066 THz    52.358198 2PiTHz  277.961164 cm-1    34.462777 meV
             X         Y         Z           dx          dy          dz
      1.147249  0.662365  7.651550    -0.028156    0.045365    0.334073  
      3.441748  0.662365  7.651550    -0.000764    0.061192    0.061905  
      5.736246  0.662365  7.651550     0.028920    0.033360    0.352533  
      0.000000  2.649459  7.651550     0.010778   -0.089186    0.022461  
      2.294499  2.649459  7.651550    -0.000753   -0.050887    0.026398  
      4.588997  2.649459  7.651550    -0.010025   -0.056228   -0.051830  
     -1.147249  4.636553  7.651550    -0.028167    0.017527   -0.378932  
      1.147249  4.636553  7.651550     0.038181    0.010863   -0.282243  
      3.441748  4.636553  7.651550    -0.010014    0.027994   -0.084366  
      0.000000  1.324729  8.348450    -0.000843    0.033046    0.413833  
      2.294499  1.324729  8.348450     0.028815    0.005030    0.240043  
      4.588997  1.324729  8.348450    -0.027972    0.017029    0.208286  
     -1.147249  3.311823  8.348450    -0.000536    0.061459   -0.239755  
      1.147249  3.311823  8.348450    -0.010277    0.056189   -0.139330  
      3.441748  3.311823  8.348450     0.010813    0.023226   -0.075708  
     -2.294499  5.298918  8.348450     0.038249   -0.073218   -0.068956  
      0.000000  5.298918  8.348450    -0.009970   -0.056273   -0.338126  
      2.294499  5.298918  8.348450    -0.028279   -0.066489   -0.000287  
 
  52 f  =    0.000001 THz     0.000009 2PiTHz    0.000046 cm-1     0.000006 meV
             X         Y         Z           dx          dy          dz
      1.147249  0.662365  7.651550    -0.015093   -0.010883   -0.234967  
      3.441748  0.662365  7.651550    -0.015093   -0.010883   -0.234967  
      5.736246  0.662365  7.651550    -0.015093   -0.010883   -0.234967  
      0.000000  2.649459  7.651550    -0.015093   -0.010883   -0.234967  
      2.294499  2.649459  7.651550    -0.015093   -0.010883   -0.234967  
      4.588997  2.649459  7.651550    -0.015093   -0.010883   -0.234967  
     -1.147249  4.636553  7.651550    -0.015093   -0.010883   -0.234967  
      1.147249  4.636553  7.651550    -0.015093   -0.010883   -0.234967  
      3.441748  4.636553  7.651550    -0.015093   -0.010883   -0.234967  
      0.000000  1.324729  8.348450    -0.015093   -0.010883   -0.234967  
      2.294499  1.324729  8.348450    -0.015093   -0.010883   -0.234967  
      4.588997  1.324729  8.348450    -0.015093   -0.010883   -0.234967  
     -1.147249  3.311823  8.348450    -0.015093   -0.010883   -0.234967  
      1.147249  3.311823  8.348450    -0.015093   -0.010883   -0.234967  
      3.441748  3.311823  8.348450    -0.015093   -0.010883   -0.234967  
     -2.294499  5.298918  8.348450    -0.015093   -0.010883   -0.234967  
      0.000000  5.298918  8.348450    -0.015093   -0.010883   -0.234967  
      2.294499  5.298918  8.348450    -0.015093   -0.010883   -0.234967  
 
  53 f  =    0.000001 THz     0.000008 2PiTHz    0.000043 cm-1     0.000005 meV
             X         Y         Z           dx          dy          dz
      1.147249  0.662365  7.651550    -0.025077    0.234182   -0.009236  
      3.441748  0.662365  7.651550    -0.025077    0.234182   -0.009236  
      5.736246  0.662365  7.651550    -0.025077    0.234182   -0.009236  
      0.000000  2.649459  7.651550    -0.025077    0.234182   -0.009236  
      2.294499  2.649459  7.651550    -0.025077    0.234182   -0.009236  
      4.588997  2.649459  7.651550    -0.025077    0.234182   -0.009236  
     -1.147249  4.636553  7.651550    -0.025077    0.234182   -0.009236  
      1.147249  4.636553  7.651550    -0.025077    0.234182   -0.009236  
      3.441748  4.636553  7.651550    -0.025077    0.234182   -0.009236  
      0.000000  1.324729  8.348450    -0.025077    0.234182   -0.009236  
      2.294499  1.324729  8.348450    -0.025077    0.234182   -0.009236  
      4.588997  1.324729  8.348450    -0.025077    0.234182   -0.009236  
     -1.147249  3.311823  8.348450    -0.025077    0.234182   -0.009236  
      1.147249  3.311823  8.348450    -0.025077    0.234182   -0.009236  
      3.441748  3.311823  8.348450    -0.025077    0.234182   -0.009236  
     -2.294499  5.298918  8.348450    -0.025077    0.234182   -0.009236  
      0.000000  5.298918  8.348450    -0.025077    0.234182   -0.009236  
      2.294499  5.298918  8.348450    -0.025077    0.234182   -0.009236  
 
  54 f  =    0.000001 THz     0.000004 2PiTHz    0.000020 cm-1     0.000003 meV
             X         Y         Z           dx          dy          dz
      1.147249  0.662365  7.651550     0.233878    0.024408   -0.016153  
      3.441748  0.662365  7.651550     0.233878    0.024408   -0.016153  
      5.736246  0.662365  7.651550     0.233878    0.024408   -0.016153  
      0.000000  2.649459  7.651550     0.233878    0.024408   -0.016153  
      2.294499  2.649459  7.651550     0.233878    0.024408   -0.016153  
      4.588997  2.649459  7.651550     0.233878    0.024408   -0.016153  
     -1.147249  4.636553  7.651550     0.233878    0.024408   -0.016153  
      1.147249  4.636553  7.651550     0.233878    0.024408   -0.016153  
      3.441748  4.636553  7.651550     0.233878    0.024408   -0.016153  
      0.000000  1.324729  8.348450     0.233878    0.024408   -0.016153  
      2.294499  1.324729  8.348450     0.233878    0.024408   -0.016153  
      4.588997  1.324729  8.348450     0.233878    0.024408   -0.016153  
     -1.147249  3.311823  8.348450     0.233878    0.024408   -0.016153  
      1.147249  3.311823  8.348450     0.233878    0.024408   -0.016153  
      3.441748  3.311823  8.348450     0.233878    0.024408   -0.016153  
     -2.294499  5.298918  8.348450     0.233878    0.024408   -0.016153  
      0.000000  5.298918  8.348450     0.233878    0.024408   -0.016153  
      2.294499  5.298918  8.348450     0.233878    0.024408   -0.016153  
 


--------------------------------------------------------------------------------------------------------



 ELASTIC MODULI CONTR FROM IONIC RELAXATION (kBar)
 Direction    XX          YY          ZZ          XY          YZ          ZX
 --------------------------------------------------------------------------------
 XX         -43.6238     25.3748     53.4953      0.0000     95.5937     -0.0000
 YY          25.3748    -43.6238     53.4953     -0.0000    -95.5937      0.0000
 ZZ          53.4953     53.4953   -313.6343     -0.0000     -0.0000      0.0000
 XY           0.0000     -0.0000      0.0000    -34.4993     -0.0000     95.2793
 YZ          95.5937    -95.5937     -0.0000     -0.0000   -264.8797      0.0000
 ZX          -0.0000      0.0000     -0.0000     95.2793      0.0000   -263.1402
 --------------------------------------------------------------------------------



--------------------------------------------------------------------------------------------------------


     LOOP+:  cpu time   2432.0043: real time   2437.6201
    4ORBIT:  cpu time      0.0000: real time      0.0000



 total charge

# of ion       s       p       d       tot
------------------------------------------
    1        1.278   2.296   0.000   3.574
    2        1.278   2.296   0.000   3.574
    3        1.278   2.296   0.000   3.574
    4        1.278   2.296   0.000   3.574
    5        1.278   2.296   0.000   3.574
    6        1.278   2.296   0.000   3.574
    7        1.278   2.296   0.000   3.574
    8        1.278   2.296   0.000   3.574
    9        1.278   2.296   0.000   3.574
   10        1.278   2.296   0.000   3.574
   11        1.278   2.296   0.000   3.574
   12        1.278   2.296   0.000   3.574
   13        1.278   2.296   0.000   3.574
   14        1.278   2.296   0.000   3.574
   15        1.278   2.296   0.000   3.574
   16        1.278   2.296   0.000   3.574
   17        1.278   2.296   0.000   3.574
   18        1.278   2.296   0.000   3.574
--------------------------------------------------
tot         22.999  41.332   0.000  64.331
 

 total amount of memory used by VASP MPI-rank0   118249. kBytes
=======================================================================

   base      :      30000. kBytes
   nonl-proj :      24134. kBytes
   fftplans  :      24026. kBytes
   grid      :      20148. kBytes
   one-center:         55. kBytes
   wavefun   :      19886. kBytes
 
  
  
 General timing and accounting informations for this job:
 ========================================================
  
                  Total CPU time used (sec):     2439.168
                            User time (sec):     2424.336
                          System time (sec):       14.832
                         Elapsed time (sec):     2446.244
  
                   Maximum memory used (kb):      723488.
                   Average memory used (kb):          N/A
  
                          Minor page faults:      1240828
                          Major page faults:         3480
                 Voluntary context switches:          366
