PROCAR new format
# of k-points:   20         # of bands:   64         # of ions:   18

 k-point     1 :    0.00000000 0.00000000 0.00000000     weight = 0.00680272

band     1 # energy  -30.03865368 # occ.  2.00000000
 
ion      s      p      d    tot
    1  0.035  0.003  0.000  0.038
    2  0.035  0.003  0.000  0.038
    3  0.035  0.003  0.000  0.038
    4  0.035  0.003  0.000  0.038
    5  0.035  0.003  0.000  0.038
    6  0.035  0.003  0.000  0.038
    7  0.035  0.003  0.000  0.038
    8  0.035  0.003  0.000  0.038
    9  0.035  0.003  0.000  0.038
   10  0.035  0.003  0.000  0.038
   11  0.035  0.003  0.000  0.038
   12  0.035  0.003  0.000  0.038
   13  0.035  0.003  0.000  0.038
   14  0.035  0.003  0.000  0.038
   15  0.035  0.003  0.000  0.038
   16  0.035  0.003  0.000  0.038
   17  0.035  0.003  0.000  0.038
   18  0.035  0.003  0.000  0.038
tot    0.638  0.051  0.000  0.689
 
band     2 # energy  -26.92274875 # occ.  2.00000000
 
ion      s      p      d    tot
    1  0.009  0.004  0.000  0.013
    2  0.094  0.011  0.000  0.105
    3  0.000  0.003  0.000  0.003
    4  0.044  0.007  0.000  0.051
    5  0.000  0.003  0.000  0.003
    6  0.094  0.011  0.000  0.105
    7  0.000  0.013  0.000  0.013
    8  0.045  0.007  0.000  0.052
    9  0.009  0.004  0.000  0.013
   10  0.009  0.004  0.000  0.013
   11  0.045  0.007  0.000  0.052
   12  0.000  0.013  0.000  0.013
   13  0.094  0.011  0.000  0.105
   14  0.000  0.003  0.000  0.003
   15  0.044  0.007  0.000  0.051
   16  0.000  0.003  0.000  0.003
   17  0.094  0.011  0.000  0.105
   18  0.009  0.004  0.000  0.013
tot    0.590  0.127  0.000  0.717
 
band     3 # energy  -26.92274874 # occ.  2.00000000
 
ion      s      p      d    tot
    1  0.001  0.004  0.000  0.005
    2  0.027  0.005  0.000  0.032
    3  0.017  0.004  0.000  0.021
    4  0.016  0.011  0.000  0.027
    5  0.134  0.014  0.000  0.148
    6  0.026  0.005  0.000  0.032
    7  0.056  0.005  0.000  0.061
    8  0.016  0.011  0.000  0.027
    9  0.001  0.004  0.000  0.005
   10  0.001  0.004  0.000  0.005
   11  0.016  0.011  0.000  0.027
   12  0.056  0.005  0.000  0.061
   13  0.026  0.005  0.000  0.032
   14  0.134  0.014  0.000  0.148
   15  0.016  0.011  0.000  0.027
   16  0.017  0.004  0.000  0.021
   17  0.027  0.005  0.000  0.032
   18  0.001  0.004  0.000  0.005
tot    0.590  0.127  0.000  0.717
 
band     4 # energy  -26.92274863 # occ.  2.00000000
 
ion      s      p      d    tot
    1  0.064  0.012  0.000  0.076
    2  0.034  0.003  0.000  0.037
    3  0.058  0.012  0.000  0.070
    4  0.005  0.007  0.000  0.011
    5  0.021  0.002  0.000  0.023
    6  0.034  0.003  0.000  0.037
    7  0.009  0.007  0.000  0.016
    8  0.005  0.007  0.000  0.011
    9  0.064  0.012  0.000  0.076
   10  0.064  0.012  0.000  0.076
   11  0.005  0.007  0.000  0.011
   12  0.009  0.007  0.000  0.016
   13  0.034  0.003  0.000  0.037
   14  0.021  0.002  0.000  0.023
   15  0.005  0.007  0.000  0.011
   16  0.058  0.012  0.000  0.070
   17  0.034  0.003  0.000  0.037
   18  0.064  0.012  0.000  0.076
tot    0.590  0.127  0.000  0.717
 
band     5 # energy  -26.92274857 # occ.  2.00000000
 
ion      s      p      d    tot
    1  0.002  0.002  0.000  0.005
    2  0.036  0.012  0.000  0.048
    3  0.004  0.003  0.000  0.007
    4  0.057  0.007  0.000  0.065
    5  0.035  0.011  0.000  0.046
    6  0.036  0.012  0.000  0.048
    7  0.063  0.007  0.000  0.071
    8  0.057  0.007  0.000  0.065
    9  0.002  0.002  0.000  0.005
   10  0.002  0.002  0.000  0.005
   11  0.057  0.007  0.000  0.065
   12  0.063  0.007  0.000  0.071
   13  0.036  0.012  0.000  0.048
   14  0.035  0.011  0.000  0.046
   15  0.057  0.007  0.000  0.065
   16  0.004  0.003  0.000  0.007
   17  0.036  0.012  0.000  0.048
   18  0.002  0.002  0.000  0.005
tot    0.590  0.127  0.000  0.717
 
band     6 # energy  -26.92274850 # occ.  2.00000000
 
ion      s      p      d    tot
    1  0.089  0.011  0.000  0.100
    2  0.004  0.004  0.000  0.008
    3  0.000  0.010  0.000  0.010
    4  0.054  0.008  0.000  0.062
    5  0.000  0.010  0.000  0.010
    6  0.004  0.004  0.000  0.008
    7  0.000  0.000  0.000  0.000
    8  0.054  0.008  0.000  0.061
    9  0.089  0.011  0.000  0.100
   10  0.089  0.011  0.000  0.100
   11  0.054  0.008  0.000  0.061
   12  0.000  0.000  0.000  0.000
   13  0.004  0.004  0.000  0.008
   14  0.000  0.010  0.000  0.010
   15  0.054  0.008  0.000  0.062
   16  0.000  0.010  0.000  0.010
   17  0.004  0.004  0.000  0.008
   18  0.089  0.011  0.000  0.100
tot    0.590  0.127  0.000  0.717
 
band     7 # energy  -26.92274848 # occ.  2.00000000
 
ion      s      p      d    tot
    1  0.030  0.010  0.000  0.041
    2  0.001  0.008  0.000  0.009
    3  0.118  0.011  0.000  0.129
    4  0.020  0.003  0.000  0.022
    5  0.007  0.002  0.000  0.009
    6  0.001  0.008  0.000  0.009
    7  0.068  0.010  0.000  0.078
    8  0.020  0.003  0.000  0.023
    9  0.030  0.010  0.000  0.040
   10  0.030  0.010  0.000  0.040
   11  0.020  0.003  0.000  0.023
   12  0.068  0.010  0.000  0.078
   13  0.001  0.008  0.000  0.009
   14  0.007  0.002  0.000  0.009
   15  0.020  0.003  0.000  0.022
   16  0.118  0.011  0.000  0.129
   17  0.001  0.008  0.000  0.009
   18  0.030  0.010  0.000  0.041
tot    0.590  0.127  0.000  0.717
 
band     8 # energy  -21.92088211 # occ.  2.00000000
 
ion      s      p      d    tot
    1  0.045  0.014  0.000  0.060
    2  0.045  0.014  0.000  0.059
    3  0.000  0.010  0.000  0.010
    4  0.045  0.014  0.000  0.059
    5  0.000  0.010  0.000  0.010
    6  0.045  0.014  0.000  0.060
    7  0.000  0.010  0.000  0.010
    8  0.045  0.014  0.000  0.060
    9  0.045  0.014  0.000  0.059
   10  0.045  0.014  0.000  0.059
   11  0.045  0.014  0.000  0.060
   12  0.000  0.010  0.000  0.010
   13  0.045  0.014  0.000  0.060
   14  0.000  0.010  0.000  0.010
   15  0.045  0.014  0.000  0.059
   16  0.000  0.010  0.000  0.010
   17  0.045  0.014  0.000  0.059
   18  0.045  0.014  0.000  0.060
tot    0.541  0.232  0.000  0.774
 
band     9 # energy  -21.92088211 # occ.  2.00000000
 
ion      s      p      d    tot
    1  0.015  0.012  0.000  0.026
    2  0.015  0.012  0.000  0.027
    3  0.060  0.016  0.000  0.076
    4  0.015  0.012  0.000  0.027
    5  0.060  0.016  0.000  0.076
    6  0.015  0.012  0.000  0.026
    7  0.060  0.016  0.000  0.076
    8  0.015  0.012  0.000  0.026
    9  0.015  0.012  0.000  0.027
   10  0.015  0.012  0.000  0.027
   11  0.015  0.012  0.000  0.026
   12  0.060  0.016  0.000  0.076
   13  0.015  0.012  0.000  0.026
   14  0.060  0.016  0.000  0.076
   15  0.015  0.012  0.000  0.027
   16  0.060  0.016  0.000  0.076
   17  0.015  0.012  0.000  0.027
   18  0.015  0.012  0.000  0.026
tot    0.541  0.232  0.000  0.774
 
band    10 # energy  -21.92088211 # occ.  2.00000000
 
ion      s      p      d    tot
    1  0.045  0.014  0.000  0.060
    2  0.045  0.014  0.000  0.059
    3  0.000  0.010  0.000  0.010
    4  0.045  0.014  0.000  0.059
    5  0.000  0.010  0.000  0.010
    6  0.045  0.014  0.000  0.060
    7  0.000  0.010  0.000  0.010
    8  0.045  0.014  0.000  0.060
    9  0.045  0.014  0.000  0.059
   10  0.045  0.014  0.000  0.059
   11  0.045  0.014  0.000  0.060
   12  0.000  0.010  0.000  0.010
   13  0.045  0.014  0.000  0.060
   14  0.000  0.010  0.000  0.010
   15  0.045  0.014  0.000  0.059
   16  0.000  0.010  0.000  0.010
   17  0.045  0.014  0.000  0.059
   18  0.045  0.014  0.000  0.060
tot    0.541  0.232  0.000  0.774
 
band    11 # energy  -21.92088210 # occ.  2.00000000
 
ion      s      p      d    tot
    1  0.015  0.012  0.000  0.026
    2  0.015  0.012  0.000  0.027
    3  0.060  0.016  0.000  0.076
    4  0.015  0.012  0.000  0.027
    5  0.060  0.016  0.000  0.076
    6  0.015  0.012  0.000  0.026
    7  0.060  0.016  0.000  0.076
    8  0.015  0.012  0.000  0.026
    9  0.015  0.012  0.000  0.027
   10  0.015  0.012  0.000  0.027
   11  0.015  0.012  0.000  0.026
   12  0.060  0.016  0.000  0.076
   13  0.015  0.012  0.000  0.026
   14  0.060  0.016  0.000  0.076
   15  0.015  0.012  0.000  0.027
   16  0.060  0.016  0.000  0.076
   17  0.015  0.012  0.000  0.027
   18  0.015  0.012  0.000  0.026
tot    0.541  0.232  0.000  0.774
 
band    12 # energy  -17.41899901 # occ.  2.00000000
 
ion      s      p      d    tot
    1  0.013  0.017  0.000  0.030
    2  0.059  0.020  0.000  0.080
    3  0.000  0.002  0.000  0.002
    4  0.017  0.017  0.000  0.034
    5  0.000  0.037  0.000  0.037
    6  0.059  0.020  0.000  0.080
    7  0.000  0.056  0.000  0.056
    8  0.017  0.017  0.000  0.034
    9  0.013  0.017  0.000  0.030
   10  0.013  0.017  0.000  0.030
   11  0.017  0.017  0.000  0.034
   12  0.000  0.056  0.000  0.056
   13  0.059  0.020  0.000  0.080
   14  0.000  0.037  0.000  0.037
   15  0.017  0.017  0.000  0.034
   16  0.000  0.002  0.000  0.002
   17  0.059  0.020  0.000  0.080
   18  0.013  0.017  0.000  0.030
tot    0.356  0.408  0.000  0.764
 
band    13 # energy  -17.41899894 # occ.  2.00000000
 
ion      s      p      d    tot
    1  0.001  0.011  0.000  0.011
    2  0.014  0.029  0.000  0.043
    3  0.028  0.016  0.000  0.044
    4  0.008  0.045  0.000  0.053
    5  0.088  0.018  0.000  0.105
    6  0.014  0.029  0.000  0.043
    7  0.017  0.001  0.000  0.018
    8  0.008  0.045  0.000  0.053
    9  0.001  0.011  0.000  0.011
   10  0.001  0.011  0.000  0.011
   11  0.008  0.045  0.000  0.053
   12  0.017  0.001  0.000  0.018
   13  0.014  0.029  0.000  0.043
   14  0.088  0.018  0.000  0.105
   15  0.008  0.045  0.000  0.053
   16  0.028  0.016  0.000  0.044
   17  0.014  0.029  0.000  0.043
   18  0.001  0.011  0.000  0.011
tot    0.356  0.408  0.000  0.764
 
band    14 # energy  -17.41899881 # occ.  2.00000000
 
ion      s      p      d    tot
    1  0.000  0.025  0.000  0.025
    2  0.028  0.043  0.000  0.071
    3  0.003  0.025  0.000  0.028
    4  0.022  0.004  0.000  0.027
    5  0.027  0.031  0.000  0.057
    6  0.028  0.043  0.000  0.071
    7  0.048  0.004  0.000  0.051
    8  0.022  0.004  0.000  0.027
    9  0.000  0.025  0.000  0.025
   10  0.000  0.025  0.000  0.025
   11  0.022  0.004  0.000  0.027
   12  0.048  0.004  0.000  0.051
   13  0.028  0.043  0.000  0.071
   14  0.027  0.031  0.000  0.057
   15  0.022  0.004  0.000  0.027
   16  0.003  0.025  0.000  0.028
   17  0.028  0.043  0.000  0.071
   18  0.000  0.025  0.000  0.025
tot    0.356  0.408  0.000  0.764
 
band    15 # energy  -17.41899861 # occ.  2.00000000
 
ion      s      p      d    tot
    1  0.046  0.019  0.000  0.066
    2  0.000  0.016  0.000  0.016
    3  0.000  0.061  0.000  0.061
    4  0.043  0.019  0.000  0.062
    5  0.000  0.027  0.000  0.027
    6  0.000  0.016  0.000  0.016
    7  0.000  0.007  0.000  0.007
    8  0.043  0.019  0.000  0.062
    9  0.046  0.019  0.000  0.066
   10  0.046  0.019  0.000  0.066
   11  0.043  0.019  0.000  0.062
   12  0.000  0.007  0.000  0.007
   13  0.000  0.016  0.000  0.016
   14  0.000  0.027  0.000  0.027
   15  0.043  0.019  0.000  0.062
   16  0.000  0.061  0.000  0.061
   17  0.000  0.016  0.000  0.016
   18  0.046  0.019  0.000  0.066
tot    0.356  0.408  0.000  0.764
 
band    16 # energy  -17.41899860 # occ.  2.00000000
 
ion      s      p      d    tot
    1  0.043  0.017  0.000  0.060
    2  0.017  0.008  0.000  0.025
    3  0.029  0.027  0.000  0.056
    4  0.006  0.040  0.000  0.046
    5  0.002  0.003  0.000  0.005
    6  0.017  0.008  0.000  0.025
    7  0.014  0.044  0.000  0.059
    8  0.006  0.040  0.000  0.046
    9  0.043  0.017  0.000  0.060
   10  0.043  0.017  0.000  0.060
   11  0.006  0.040  0.000  0.046
   12  0.014  0.044  0.000  0.059
   13  0.017  0.008  0.000  0.025
   14  0.002  0.003  0.000  0.005
   15  0.006  0.040  0.000  0.046
   16  0.029  0.027  0.000  0.056
   17  0.017  0.008  0.000  0.025
   18  0.043  0.017  0.000  0.060
tot    0.356  0.408  0.000  0.764
 
band    17 # energy  -17.41899851 # occ.  2.00000000
 
ion      s      p      d    tot
    1  0.015  0.047  0.000  0.062
    2  0.001  0.020  0.000  0.020
    3  0.059  0.004  0.000  0.063
    4  0.023  0.011  0.000  0.033
    5  0.002  0.021  0.000  0.023
    6  0.001  0.020  0.000  0.020
    7  0.040  0.023  0.000  0.063
    8  0.023  0.011  0.000  0.033
    9  0.015  0.047  0.000  0.062
   10  0.015  0.047  0.000  0.062
   11  0.023  0.011  0.000  0.033
   12  0.040  0.023  0.000  0.063
   13  0.001  0.020  0.000  0.020
   14  0.002  0.021  0.000  0.023
   15  0.023  0.011  0.000  0.033
   16  0.059  0.004  0.000  0.063
   17  0.001  0.020  0.000  0.020
   18  0.015  0.047  0.000  0.062
tot    0.356  0.408  0.000  0.764
 
band    18 # energy  -16.37018395 # occ.  2.00000000
 
ion      s      p      d    tot
    1  0.000  0.036  0.000  0.036
    2  0.000  0.036  0.000  0.036
    3  0.000  0.036  0.000  0.036
    4  0.000  0.036  0.000  0.036
    5  0.000  0.036  0.000  0.036
    6  0.000  0.036  0.000  0.036
    7  0.000  0.036  0.000  0.036
    8  0.000  0.036  0.000  0.036
    9  0.000  0.036  0.000  0.036
   10  0.000  0.036  0.000  0.036
   11  0.000  0.036  0.000  0.036
   12  0.000  0.036  0.000  0.036
   13  0.000  0.036  0.000  0.036
   14  0.000  0.036  0.000  0.036
   15  0.000  0.036  0.000  0.036
   16  0.000  0.036  0.000  0.036
   17  0.000  0.036  0.000  0.036
   18  0.000  0.036  0.000  0.036
tot    0.000  0.639  0.000  0.639
 
band    19 # energy  -16.37018381 # occ.  2.00000000
 
ion      s      p      d    tot
    1  0.000  0.036  0.000  0.036
    2  0.000  0.036  0.000  0.036
    3  0.000  0.036  0.000  0.036
    4  0.000  0.036  0.000  0.036
    5  0.000  0.036  0.000  0.036
    6  0.000  0.036  0.000  0.036
    7  0.000  0.036  0.000  0.036
    8  0.000  0.036  0.000  0.036
    9  0.000  0.036  0.000  0.036
   10  0.000  0.036  0.000  0.036
   11  0.000  0.036  0.000  0.036
   12  0.000  0.036  0.000  0.036
   13  0.000  0.036  0.000  0.036
   14  0.000  0.036  0.000  0.036
   15  0.000  0.036  0.000  0.036
   16  0.000  0.036  0.000  0.036
   17  0.000  0.036  0.000  0.036
   18  0.000  0.036  0.000  0.036
tot    0.000  0.639  0.000  0.639
 
band    20 # energy  -14.50313045 # occ.  2.00000000
 
ion      s      p      d    tot
    1  0.016  0.015  0.000  0.031
    2  0.016  0.015  0.000  0.031
    3  0.016  0.015  0.000  0.031
    4  0.016  0.015  0.000  0.031
    5  0.016  0.015  0.000  0.031
    6  0.016  0.015  0.000  0.031
    7  0.016  0.015  0.000  0.031
    8  0.016  0.015  0.000  0.031
    9  0.016  0.015  0.000  0.031
   10  0.016  0.015  0.000  0.031
   11  0.016  0.015  0.000  0.031
   12  0.016  0.015  0.000  0.031
   13  0.016  0.015  0.000  0.031
   14  0.016  0.015  0.000  0.031
   15  0.016  0.015  0.000  0.031
   16  0.016  0.015  0.000  0.031
   17  0.016  0.015  0.000  0.031
   18  0.016  0.015  0.000  0.031
tot    0.296  0.263  0.000  0.560
 
band    21 # energy  -11.64895468 # occ.  2.00000000
 
ion      s      p      d    tot
    1  0.003  0.008  0.000  0.011
    2  0.036  0.053  0.000  0.089
    3  0.000  0.001  0.000  0.001
    4  0.019  0.026  0.000  0.045
    5  0.000  0.004  0.000  0.004
    6  0.036  0.053  0.000  0.089
    7  0.000  0.010  0.000  0.010
    8  0.019  0.026  0.000  0.045
    9  0.003  0.008  0.000  0.010
   10  0.003  0.008  0.000  0.010
   11  0.019  0.026  0.000  0.045
   12  0.000  0.010  0.000  0.010
   13  0.036  0.053  0.000  0.089
   14  0.000  0.004  0.000  0.004
   15  0.019  0.026  0.000  0.045
   16  0.000  0.001  0.000  0.001
   17  0.036  0.053  0.000  0.089
   18  0.003  0.008  0.000  0.011
tot    0.230  0.381  0.000  0.611
 
band    22 # energy  -11.64895466 # occ.  2.00000000
 
ion      s      p      d    tot
    1  0.000  0.003  0.000  0.003
    2  0.009  0.017  0.000  0.027
    3  0.006  0.013  0.000  0.018
    4  0.007  0.017  0.000  0.024
    5  0.052  0.076  0.000  0.128
    6  0.009  0.017  0.000  0.026
    7  0.024  0.029  0.000  0.052
    8  0.007  0.017  0.000  0.024
    9  0.000  0.003  0.000  0.003
   10  0.000  0.003  0.000  0.003
   11  0.007  0.017  0.000  0.024
   12  0.024  0.029  0.000  0.052
   13  0.009  0.017  0.000  0.026
   14  0.052  0.076  0.000  0.128
   15  0.007  0.017  0.000  0.024
   16  0.006  0.013  0.000  0.018
   17  0.009  0.017  0.000  0.027
   18  0.000  0.003  0.000  0.003
tot    0.230  0.381  0.000  0.611
 
band    23 # energy  -11.64895454 # occ.  2.00000000
 
ion      s      p      d    tot
    1  0.025  0.039  0.000  0.063
    2  0.015  0.019  0.000  0.034
    3  0.022  0.035  0.000  0.057
    4  0.001  0.009  0.000  0.010
    5  0.008  0.009  0.000  0.017
    6  0.015  0.019  0.000  0.034
    7  0.003  0.012  0.000  0.016
    8  0.001  0.009  0.000  0.010
    9  0.025  0.039  0.000  0.063
   10  0.025  0.039  0.000  0.063
   11  0.001  0.009  0.000  0.010
   12  0.003  0.012  0.000  0.016
   13  0.015  0.019  0.000  0.034
   14  0.008  0.009  0.000  0.017
   15  0.001  0.009  0.000  0.010
   16  0.022  0.035  0.000  0.057
   17  0.015  0.019  0.000  0.034
   18  0.025  0.039  0.000  0.063
tot    0.230  0.381  0.000  0.611
 
band    24 # energy  -11.64895452 # occ.  2.00000000
 
ion      s      p      d    tot
    1  0.001  0.003  0.000  0.004
    2  0.013  0.028  0.000  0.041
    3  0.004  0.008  0.000  0.012
    4  0.021  0.028  0.000  0.049
    5  0.011  0.024  0.000  0.035
    6  0.013  0.028  0.000  0.041
    7  0.030  0.041  0.000  0.070
    8  0.021  0.028  0.000  0.049
    9  0.001  0.003  0.000  0.004
   10  0.001  0.003  0.000  0.004
   11  0.021  0.028  0.000  0.049
   12  0.030  0.041  0.000  0.070
   13  0.013  0.028  0.000  0.041
   14  0.011  0.024  0.000  0.035
   15  0.021  0.028  0.000  0.049
   16  0.004  0.008  0.000  0.012
   17  0.013  0.028  0.000  0.041
   18  0.001  0.003  0.000  0.004
tot    0.230  0.381  0.000  0.611
 
band    25 # energy  -11.64895440 # occ.  2.00000000
 
ion      s      p      d    tot
    1  0.036  0.050  0.000  0.086
    2  0.003  0.005  0.000  0.007
    3  0.000  0.009  0.000  0.009
    4  0.019  0.032  0.000  0.052
    5  0.000  0.006  0.000  0.006
    6  0.003  0.005  0.000  0.007
    7  0.000  0.000  0.000  0.000
    8  0.019  0.032  0.000  0.051
    9  0.036  0.050  0.000  0.086
   10  0.036  0.050  0.000  0.086
   11  0.019  0.032  0.000  0.051
   12  0.000  0.000  0.000  0.000
   13  0.003  0.005  0.000  0.007
   14  0.000  0.006  0.000  0.006
   15  0.019  0.032  0.000  0.052
   16  0.000  0.009  0.000  0.009
   17  0.003  0.005  0.000  0.007
   18  0.036  0.050  0.000  0.086
tot    0.230  0.381  0.000  0.611
 
band    26 # energy  -11.64895439 # occ.  2.00000000
 
ion      s      p      d    tot
    1  0.013  0.024  0.000  0.037
    2  0.000  0.005  0.000  0.005
    3  0.045  0.060  0.000  0.105
    4  0.009  0.015  0.000  0.025
    5  0.005  0.007  0.000  0.012
    6  0.000  0.005  0.000  0.005
    7  0.020  0.035  0.000  0.054
    8  0.010  0.015  0.000  0.025
    9  0.013  0.024  0.000  0.037
   10  0.013  0.024  0.000  0.037
   11  0.010  0.015  0.000  0.025
   12  0.020  0.035  0.000  0.054
   13  0.000  0.005  0.000  0.005
   14  0.005  0.007  0.000  0.012
   15  0.009  0.015  0.000  0.025
   16  0.045  0.060  0.000  0.105
   17  0.000  0.005  0.000  0.005
   18  0.013  0.024  0.000  0.037
tot    0.230  0.381  0.000  0.611
 
band    27 # energy  -11.14015999 # occ.  2.00000000
 
ion      s      p      d    tot
    1  0.000  0.002  0.000  0.002
    2  0.000  0.065  0.000  0.065
    3  0.000  0.009  0.000  0.009
    4  0.000  0.054  0.000  0.054
    5  0.000  0.048  0.000  0.048
    6  0.000  0.065  0.000  0.065
    7  0.000  0.099  0.000  0.099
    8  0.000  0.054  0.000  0.054
    9  0.000  0.002  0.000  0.002
   10  0.000  0.002  0.000  0.002
   11  0.000  0.054  0.000  0.054
   12  0.000  0.099  0.000  0.099
   13  0.000  0.065  0.000  0.065
   14  0.000  0.048  0.000  0.048
   15  0.000  0.054  0.000  0.054
   16  0.000  0.009  0.000  0.009
   17  0.000  0.065  0.000  0.065
   18  0.000  0.002  0.000  0.002
tot    0.000  0.796  0.000  0.796
 
band    28 # energy  -11.14015975 # occ.  2.00000000
 
ion      s      p      d    tot
    1  0.000  0.076  0.000  0.076
    2  0.000  0.002  0.000  0.002
    3  0.000  0.038  0.000  0.038
    4  0.000  0.066  0.000  0.066
    5  0.000  0.068  0.000  0.068
    6  0.000  0.002  0.000  0.002
    7  0.000  0.004  0.000  0.004
    8  0.000  0.067  0.000  0.067
    9  0.000  0.076  0.000  0.076
   10  0.000  0.076  0.000  0.076
   11  0.000  0.067  0.000  0.067
   12  0.000  0.004  0.000  0.004
   13  0.000  0.002  0.000  0.002
   14  0.000  0.068  0.000  0.068
   15  0.000  0.066  0.000  0.066
   16  0.000  0.038  0.000  0.038
   17  0.000  0.002  0.000  0.002
   18  0.000  0.076  0.000  0.076
tot    0.000  0.796  0.000  0.796
 
band    29 # energy  -11.14015948 # occ.  2.00000000
 
ion      s      p      d    tot
    1  0.000  0.025  0.000  0.025
    2  0.000  0.092  0.000  0.092
    3  0.000  0.028  0.000  0.028
    4  0.000  0.061  0.000  0.061
    5  0.000  0.011  0.000  0.011
    6  0.000  0.092  0.000  0.092
    7  0.000  0.004  0.000  0.004
    8  0.000  0.061  0.000  0.061
    9  0.000  0.025  0.000  0.025
   10  0.000  0.025  0.000  0.025
   11  0.000  0.061  0.000  0.061
   12  0.000  0.004  0.000  0.004
   13  0.000  0.092  0.000  0.092
   14  0.000  0.011  0.000  0.011
   15  0.000  0.061  0.000  0.061
   16  0.000  0.028  0.000  0.028
   17  0.000  0.092  0.000  0.092
   18  0.000  0.025  0.000  0.025
tot    0.000  0.796  0.000  0.796
 
band    30 # energy  -11.14015944 # occ.  2.00000000
 
ion      s      p      d    tot
    1  0.000  0.033  0.000  0.033
    2  0.000  0.033  0.000  0.033
    3  0.000  0.110  0.000  0.110
    4  0.000  0.033  0.000  0.033
    5  0.000  0.001  0.000  0.001
    6  0.000  0.033  0.000  0.033
    7  0.000  0.087  0.000  0.087
    8  0.000  0.033  0.000  0.033
    9  0.000  0.033  0.000  0.033
   10  0.000  0.033  0.000  0.033
   11  0.000  0.033  0.000  0.033
   12  0.000  0.087  0.000  0.087
   13  0.000  0.033  0.000  0.033
   14  0.000  0.001  0.000  0.001
   15  0.000  0.033  0.000  0.033
   16  0.000  0.110  0.000  0.110
   17  0.000  0.033  0.000  0.033
   18  0.000  0.033  0.000  0.033
tot    0.000  0.796  0.000  0.796
 
band    31 # energy  -11.14015931 # occ.  2.00000000
 
ion      s      p      d    tot
    1  0.000  0.033  0.000  0.033
    2  0.000  0.033  0.000  0.033
    3  0.000  0.022  0.000  0.022
    4  0.000  0.033  0.000  0.033
    5  0.000  0.131  0.000  0.131
    6  0.000  0.033  0.000  0.033
    7  0.000  0.045  0.000  0.045
    8  0.000  0.033  0.000  0.033
    9  0.000  0.033  0.000  0.033
   10  0.000  0.033  0.000  0.033
   11  0.000  0.033  0.000  0.033
   12  0.000  0.045  0.000  0.045
   13  0.000  0.033  0.000  0.033
   14  0.000  0.131  0.000  0.131
   15  0.000  0.033  0.000  0.033
   16  0.000  0.022  0.000  0.022
   17  0.000  0.033  0.000  0.033
   18  0.000  0.033  0.000  0.033
tot    0.000  0.796  0.000  0.796
 
band    32 # energy  -11.14015929 # occ.  2.00000000
 
ion      s      p      d    tot
    1  0.000  0.096  0.000  0.096
    2  0.000  0.040  0.000  0.040
    3  0.000  0.057  0.000  0.057
    4  0.000  0.018  0.000  0.018
    5  0.000  0.006  0.000  0.006
    6  0.000  0.040  0.000  0.040
    7  0.000  0.026  0.000  0.026
    8  0.000  0.018  0.000  0.018
    9  0.000  0.096  0.000  0.096
   10  0.000  0.096  0.000  0.096
   11  0.000  0.018  0.000  0.018
   12  0.000  0.026  0.000  0.026
   13  0.000  0.040  0.000  0.040
   14  0.000  0.006  0.000  0.006
   15  0.000  0.018  0.000  0.018
   16  0.000  0.057  0.000  0.057
   17  0.000  0.040  0.000  0.040
   18  0.000  0.096  0.000  0.096
tot    0.000  0.796  0.000  0.796
 
band    33 # energy   -8.39442833 # occ.  2.00000000
 
ion      s      p      d    tot
    1  0.000  0.047  0.000  0.047
    2  0.000  0.047  0.000  0.047
    3  0.000  0.047  0.000  0.047
    4  0.000  0.047  0.000  0.047
    5  0.000  0.047  0.000  0.047
    6  0.000  0.047  0.000  0.047
    7  0.000  0.047  0.000  0.047
    8  0.000  0.047  0.000  0.047
    9  0.000  0.047  0.000  0.047
   10  0.000  0.047  0.000  0.047
   11  0.000  0.047  0.000  0.047
   12  0.000  0.047  0.000  0.047
   13  0.000  0.047  0.000  0.047
   14  0.000  0.047  0.000  0.047
   15  0.000  0.047  0.000  0.047
   16  0.000  0.047  0.000  0.047
   17  0.000  0.047  0.000  0.047
   18  0.000  0.047  0.000  0.047
tot    0.000  0.847  0.000  0.847
 
band    34 # energy   -8.39442776 # occ.  2.00000000
 
ion      s      p      d    tot
    1  0.000  0.047  0.000  0.047
    2  0.000  0.047  0.000  0.047
    3  0.000  0.047  0.000  0.047
    4  0.000  0.047  0.000  0.047
    5  0.000  0.047  0.000  0.047
    6  0.000  0.047  0.000  0.047
    7  0.000  0.047  0.000  0.047
    8  0.000  0.047  0.000  0.047
    9  0.000  0.047  0.000  0.047
   10  0.000  0.047  0.000  0.047
   11  0.000  0.047  0.000  0.047
   12  0.000  0.047  0.000  0.047
   13  0.000  0.047  0.000  0.047
   14  0.000  0.047  0.000  0.047
   15  0.000  0.047  0.000  0.047
   16  0.000  0.047  0.000  0.047
   17  0.000  0.047  0.000  0.047
   18  0.000  0.047  0.000  0.047
tot    0.000  0.847  0.000  0.847
 
band    35 # energy   -7.79093057 # occ.  2.00000000
 
ion      s      p      d    tot
    1  0.005  0.018  0.000  0.023
    2  0.005  0.018  0.000  0.023
    3  0.019  0.054  0.000  0.073
    4  0.005  0.018  0.000  0.023
    5  0.019  0.054  0.000  0.073
    6  0.005  0.018  0.000  0.023
    7  0.019  0.054  0.000  0.073
    8  0.005  0.018  0.000  0.023
    9  0.005  0.018  0.000  0.023
   10  0.005  0.018  0.000  0.023
   11  0.005  0.018  0.000  0.023
   12  0.019  0.054  0.000  0.073
   13  0.005  0.018  0.000  0.023
   14  0.019  0.054  0.000  0.073
   15  0.005  0.018  0.000  0.023
   16  0.019  0.054  0.000  0.073
   17  0.005  0.018  0.000  0.023
   18  0.005  0.018  0.000  0.023
tot    0.173  0.539  0.000  0.712
 
band    36 # energy   -7.79093056 # occ.  2.00000000
 
ion      s      p      d    tot
    1  0.014  0.042  0.000  0.056
    2  0.014  0.042  0.000  0.056
    3  0.000  0.006  0.000  0.006
    4  0.014  0.042  0.000  0.056
    5  0.000  0.006  0.000  0.006
    6  0.014  0.042  0.000  0.056
    7  0.000  0.006  0.000  0.006
    8  0.014  0.042  0.000  0.056
    9  0.014  0.042  0.000  0.056
   10  0.014  0.042  0.000  0.056
   11  0.014  0.042  0.000  0.056
   12  0.000  0.006  0.000  0.006
   13  0.014  0.042  0.000  0.056
   14  0.000  0.006  0.000  0.006
   15  0.014  0.042  0.000  0.056
   16  0.000  0.006  0.000  0.006
   17  0.014  0.042  0.000  0.056
   18  0.014  0.042  0.000  0.056
tot    0.173  0.539  0.000  0.712
 
band    37 # energy   -7.79093054 # occ.  2.00000000
 
ion      s      p      d    tot
    1  0.005  0.018  0.000  0.023
    2  0.005  0.018  0.000  0.023
    3  0.019  0.054  0.000  0.073
    4  0.005  0.018  0.000  0.023
    5  0.019  0.054  0.000  0.073
    6  0.005  0.018  0.000  0.023
    7  0.019  0.054  0.000  0.073
    8  0.005  0.018  0.000  0.023
    9  0.005  0.018  0.000  0.023
   10  0.005  0.018  0.000  0.023
   11  0.005  0.018  0.000  0.023
   12  0.019  0.054  0.000  0.073
   13  0.005  0.018  0.000  0.023
   14  0.019  0.054  0.000  0.073
   15  0.005  0.018  0.000  0.023
   16  0.019  0.054  0.000  0.073
   17  0.005  0.018  0.000  0.023
   18  0.005  0.018  0.000  0.023
tot    0.173  0.539  0.000  0.712
 
band    38 # energy   -7.79093054 # occ.  2.00000000
 
ion      s      p      d    tot
    1  0.015  0.042  0.000  0.057
    2  0.014  0.042  0.000  0.056
    3  0.000  0.006  0.000  0.006
    4  0.014  0.042  0.000  0.056
    5  0.000  0.006  0.000  0.006
    6  0.015  0.042  0.000  0.057
    7  0.000  0.006  0.000  0.006
    8  0.015  0.042  0.000  0.057
    9  0.014  0.042  0.000  0.056
   10  0.014  0.042  0.000  0.056
   11  0.015  0.042  0.000  0.057
   12  0.000  0.006  0.000  0.006
   13  0.015  0.042  0.000  0.057
   14  0.000  0.006  0.000  0.006
   15  0.014  0.042  0.000  0.056
   16  0.000  0.006  0.000  0.006
   17  0.014  0.042  0.000  0.056
   18  0.015  0.042  0.000  0.057
tot    0.173  0.539  0.000  0.712
 
band    39 # energy   -5.63232830 # occ.  2.00000000
 
ion      s      p      d    tot
    1  0.000  0.031  0.000  0.031
    2  0.000  0.031  0.000  0.031
    3  0.000  0.031  0.000  0.031
    4  0.000  0.031  0.000  0.031
    5  0.000  0.031  0.000  0.031
    6  0.000  0.031  0.000  0.031
    7  0.000  0.031  0.000  0.031
    8  0.000  0.031  0.000  0.031
    9  0.000  0.031  0.000  0.031
   10  0.000  0.031  0.000  0.031
   11  0.000  0.031  0.000  0.031
   12  0.000  0.031  0.000  0.031
   13  0.000  0.031  0.000  0.031
   14  0.000  0.031  0.000  0.031
   15  0.000  0.031  0.000  0.031
   16  0.000  0.031  0.000  0.031
   17  0.000  0.031  0.000  0.031
   18  0.000  0.031  0.000  0.031
tot    0.006  0.553  0.000  0.558
 
band    40 # energy   -5.55837904 # occ.  2.00000000
 
ion      s      p      d    tot
    1  0.003  0.013  0.000  0.016
    2  0.015  0.087  0.000  0.102
    3  0.000  0.001  0.000  0.001
    4  0.004  0.044  0.000  0.048
    5  0.000  0.009  0.000  0.009
    6  0.015  0.087  0.000  0.102
    7  0.000  0.017  0.000  0.017
    8  0.004  0.044  0.000  0.048
    9  0.003  0.013  0.000  0.016
   10  0.003  0.013  0.000  0.016
   11  0.004  0.044  0.000  0.048
   12  0.000  0.017  0.000  0.017
   13  0.015  0.087  0.000  0.102
   14  0.000  0.009  0.000  0.009
   15  0.004  0.044  0.000  0.048
   16  0.000  0.001  0.000  0.001
   17  0.015  0.087  0.000  0.102
   18  0.003  0.013  0.000  0.016
tot    0.087  0.631  0.000  0.718
 
band    41 # energy   -5.55837899 # occ.  2.00000000
 
ion      s      p      d    tot
    1  0.001  0.004  0.000  0.004
    2  0.004  0.029  0.000  0.033
    3  0.006  0.021  0.000  0.027
    4  0.002  0.028  0.000  0.030
    5  0.021  0.124  0.000  0.145
    6  0.004  0.029  0.000  0.033
    7  0.004  0.048  0.000  0.052
    8  0.002  0.028  0.000  0.030
    9  0.001  0.004  0.000  0.004
   10  0.001  0.004  0.000  0.004