unknown system                          
           1
     6.883496    0.000000    0.000000
    -3.441748    5.961282    0.000000
     0.000000    0.000000   16.000000
   H 
    18
Direct configuration=     1
   0.22222222  0.11111111  0.47822185
   0.55555556  0.11111111  0.47822185
   0.88888889  0.11111111  0.47822185
   0.22222222  0.44444444  0.47822185
   0.55555556  0.44444444  0.47822185
   0.88888889  0.44444444  0.47822185
   0.22222222  0.77777778  0.47822185
   0.55555556  0.77777778  0.47822185
   0.88888889  0.77777778  0.47822185
   0.11111111  0.22222222  0.52177815
   0.44444444  0.22222222  0.52177815
   0.77777778  0.22222222  0.52177815
   0.11111111  0.55555556  0.52177815
   0.44444444  0.55555556  0.52177815
   0.77777778  0.55555556  0.52177815
   0.11111111  0.88888889  0.52177815
   0.44444444  0.88888889  0.52177815
   0.77777778  0.88888889  0.52177815
