   2   2   1   0
  0.1172237E+03  0.4113367E-09  0.4113367E-09  0.1600000E-08  0.5000000E-15
  1.000000000000000E-004
  CAR 
 unknown system                          
      8.36420044    -14.59208614 6001     -1.97377968      1.00000000
    -14.592  0.0000E+00  0.0000E+00
    -14.588  0.0000E+00  0.0000E+00
    -14.584  0.0000E+00  0.0000E+00
    -14.581  0.0000E+00  0.0000E+00
    -14.577  0.0000E+00  0.0000E+00
    -14.573  0.0000E+00  0.0000E+00
    -14.569  0.0000E+00  0.0000E+00
    -14.565  0.0000E+00  0.0000E+00
    -14.561  0.0000E+00  0.0000E+00
    -14.558  0.0000E+00  0.0000E+00
    -14.554  0.0000E+00  0.0000E+00
    -14.550  0.0000E+00  0.0000E+00
    -14.546  0.0000E+00  0.0000E+00
    -14.542  0.0000E+00  0.0000E+00
    -14.539  0.0000E+00  0.0000E+00
    -14.535  0.0000E+00  0.0000E+00
    -14.531  0.0000E+00  0.0000E+00
    -14.527  0.0000E+00  0.0000E+00
    -14.523  0.0000E+00  0.0000E+00
    -14.519  0.0000E+00  0.0000E+00
    -14.516  0.0000E+00  0.0000E+00
    -14.512  0.0000E+00  0.0000E+00
    -14.508  0.0000E+00  0.0000E+00
    -14.504  0.0000E+00  0.0000E+00
    -14.500  0.0000E+00  0.0000E+00
    -14.496  0.0000E+00  0.0000E+00
    -14.493  0.0000E+00  0.0000E+00
    -14.489  0.0000E+00  0.0000E+00
    -14.485  0.0000E+00  0.0000E+00
    -14.481  0.0000E+00  0.0000E+00
    -14.477  0.0000E+00  0.0000E+00
    -14.473  0.0000E+00  0.0000E+00
    -14.470  0.0000E+00  0.0000E+00
    -14.466  0.0000E+00  0.0000E+00
    -14.462  0.0000E+00  0.0000E+00
    -14.458  0.0000E+00  0.0000E+00
    -14.454  0.0000E+00  0.0000E+00
    -14.451  0.0000E+00  0.0000E+00
    -14.447  0.0000E+00  0.0000E+00
    -14.443  0.0000E+00  0.0000E+00
    -14.439  0.0000E+00  0.0000E+00
    -14.435  0.0000E+00  0.0000E+00
    -14.431  0.0000E+00  0.0000E+00
    -14.428  0.0000E+00  0.0000E+00
    -14.424  0.0000E+00  0.0000E+00
    -14.420  0.0000E+00  0.0000E+00
    -14.416  0.0000E+00  0.0000E+00
    -14.412  0.0000E+00  0.0000E+00
    -14.408  0.0000E+00  0.0000E+00
    -14.405  0.0000E+00  0.0000E+00
    -14.401  0.0000E+00  0.0000E+00
    -14.397  0.0000E+00  0.0000E+00
    -14.393  0.0000E+00  0.0000E+00
    -14.389  0.0000E+00  0.0000E+00
    -14.385  0.0000E+00  0.0000E+00
    -14.382  0.0000E+00  0.0000E+00
    -14.378  0.0000E+00  0.0000E+00
    -14.374  0.0000E+00  0.0000E+00
    -14.370  0.0000E+00  0.0000E+00
    -14.366  0.0000E+00  0.0000E+00
    -14.363  0.0000E+00  0.0000E+00
    -14.359  0.0000E+00  0.0000E+00
    -14.355  0.0000E+00  0.0000E+00
    -14.351  0.0000E+00  0.0000E+00
    -14.347  0.0000E+00  0.0000E+00
    -14.343  0.0000E+00  0.0000E+00
    -14.340  0.0000E+00  0.0000E+00
    -14.336  0.0000E+00  0.0000E+00
    -14.332  0.0000E+00  0.0000E+00
    -14.328  0.0000E+00  0.0000E+00
    -14.324  0.0000E+00  0.0000E+00
    -14.320  0.0000E+00  0.0000E+00
    -14.317  0.0000E+00  0.0000E+00
    -14.313  0.0000E+00  0.0000E+00
    -14.309  0.0000E+00  0.0000E+00
    -14.305  0.0000E+00  0.0000E+00
    -14.301  0.0000E+00  0.0000E+00
    -14.297  0.0000E+00  0.0000E+00
    -14.294  0.0000E+00  0.0000E+00
    -14.290  0.0000E+00  0.0000E+00
    -14.286  0.0000E+00  0.0000E+00
    -14.282  0.0000E+00  0.0000E+00
    -14.278  0.0000E+00  0.0000E+00
    -14.275  0.0000E+00  0.0000E+00
    -14.271  0.0000E+00  0.0000E+00
    -14.267  0.0000E+00  0.0000E+00
    -14.263  0.0000E+00  0.0000E+00
    -14.259  0.0000E+00  0.0000E+00
    -14.255  0.0000E+00  0.0000E+00
    -14.252  0.0000E+00  0.0000E+00
    -14.248  0.0000E+00  0.0000E+00
    -14.244  0.0000E+00  0.0000E+00
    -14.240  0.0000E+00  0.0000E+00
    -14.236  0.0000E+00  0.0000E+00
    -14.232  0.0000E+00  0.0000E+00
    -14.229  0.0000E+00  0.0000E+00
    -14.225  0.0000E+00  0.0000E+00
    -14.221  0.0000E+00  0.0000E+00
    -14.217  0.0000E+00  0.0000E+00
    -14.213  0.0000E+00  0.0000E+00
    -14.209  0.0000E+00  0.0000E+00
    -14.206  0.0000E+00  0.0000E+00
    -14.202  0.0000E+00  0.0000E+00
    -14.198  0.0000E+00  0.0000E+00
    -14.194  0.0000E+00  0.0000E+00
    -14.190  0.0000E+00  0.0000E+00
    -14.187  0.0000E+00  0.0000E+00
    -14.183  0.0000E+00  0.0000E+00
    -14.179  0.0000E+00  0.0000E+00
    -14.175  0.0000E+00  0.0000E+00
    -14.171  0.0000E+00  0.0000E+00
    -14.167  0.0000E+00  0.0000E+00
    -14.164  0.0000E+00  0.0000E+00
    -14.160  0.0000E+00  0.0000E+00
    -14.156  0.0000E+00  0.0000E+00
    -14.152  0.0000E+00  0.0000E+00
    -14.148  0.0000E+00  0.0000E+00
    -14.144  0.0000E+00  0.0000E+00
    -14.141  0.0000E+00  0.0000E+00
    -14.137  0.0000E+00  0.0000E+00
    -14.133  0.0000E+00  0.0000E+00
    -14.129  0.0000E+00  0.0000E+00
    -14.125  0.0000E+00  0.0000E+00
    -14.121  0.0000E+00  0.0000E+00
    -14.118  0.0000E+00  0.0000E+00
    -14.114  0.0000E+00  0.0000E+00
    -14.110  0.0000E+00  0.0000E+00
    -14.106  0.0000E+00  0.0000E+00
    -14.102  0.0000E+00  0.0000E+00
    -14.099  0.0000E+00  0.0000E+00
    -14.095  0.0000E+00  0.0000E+00
    -14.091  0.0000E+00  0.0000E+00
    -14.087  0.0000E+00  0.0000E+00
    -14.083  0.0000E+00  0.0000E+00
    -14.079  0.0000E+00  0.0000E+00
    -14.076  0.0000E+00  0.0000E+00
    -14.072  0.0000E+00  0.0000E+00
    -14.068  0.0000E+00  0.0000E+00
    -14.064  0.0000E+00  0.0000E+00
    -14.060  0.0000E+00  0.0000E+00
    -14.056  0.0000E+00  0.0000E+00
    -14.053  0.0000E+00  0.0000E+00
    -14.049  0.0000E+00  0.0000E+00
    -14.045  0.0000E+00  0.0000E+00
    -14.041  0.0000E+00  0.0000E+00
    -14.037  0.0000E+00  0.0000E+00
    -14.033  0.0000E+00  0.0000E+00
    -14.030  0.0000E+00  0.0000E+00
    -14.026  0.0000E+00  0.0000E+00
    -14.022  0.0000E+00  0.0000E+00
    -14.018  0.0000E+00  0.0000E+00
    -14.014  0.0000E+00  0.0000E+00
    -14.011  0.0000E+00  0.0000E+00
    -14.007  0.0000E+00  0.0000E+00
    -14.003  0.0000E+00  0.0000E+00
    -13.999  0.0000E+00  0.0000E+00
    -13.995  0.0000E+00  0.0000E+00
    -13.991  0.0000E+00  0.0000E+00
    -13.988  0.0000E+00  0.0000E+00
    -13.984  0.0000E+00  0.0000E+00
    -13.980  0.0000E+00  0.0000E+00
    -13.976  0.0000E+00  0.0000E+00
    -13.972  0.0000E+00  0.0000E+00
    -13.968  0.0000E+00  0.0000E+00
    -13.965  0.0000E+00  0.0000E+00
    -13.961  0.0000E+00  0.0000E+00
    -13.957  0.0000E+00  0.0000E+00
    -13.953  0.0000E+00  0.0000E+00
    -13.949  0.0000E+00  0.0000E+00
    -13.945  0.0000E+00  0.0000E+00
    -13.942  0.0000E+00  0.0000E+00
    -13.938  0.0000E+00  0.0000E+00
    -13.934  0.0000E+00  0.0000E+00
    -13.930  0.0000E+00  0.0000E+00
    -13.926  0.0000E+00  0.0000E+00
    -13.923  0.0000E+00  0.0000E+00
    -13.919  0.0000E+00  0.0000E+00
    -13.915  0.0000E+00  0.0000E+00
    -13.911  0.0000E+00  0.0000E+00
    -13.907  0.0000E+00  0.0000E+00
    -13.903  0.0000E+00  0.0000E+00
    -13.900  0.0000E+00  0.0000E+00
    -13.896  0.0000E+00  0.0000E+00
    -13.892  0.0000E+00  0.0000E+00
    -13.888  0.0000E+00  0.0000E+00
    -13.884  0.0000E+00  0.0000E+00
    -13.880  0.0000E+00  0.0000E+00
    -13.877  0.0000E+00  0.0000E+00
    -13.873  0.0000E+00  0.0000E+00
    -13.869  0.0000E+00  0.0000E+00
    -13.865  0.0000E+00  0.0000E+00
    -13.861  0.0000E+00  0.0000E+00
    -13.857  0.0000E+00  0.0000E+00
    -13.854  0.0000E+00  0.0000E+00
    -13.850  0.0000E+00  0.0000E+00
    -13.846  0.0000E+00  0.0000E+00
    -13.842  0.0000E+00  0.0000E+00
    -13.838  0.0000E+00  0.0000E+00
    -13.835  0.0000E+00  0.0000E+00
    -13.831  0.0000E+00  0.0000E+00
    -13.827  0.0000E+00  0.0000E+00
    -13.823  0.0000E+00  0.0000E+00
    -13.819  0.0000E+00  0.0000E+00
    -13.815  0.0000E+00  0.0000E+00
    -13.812  0.0000E+00  0.0000E+00
    -13.808  0.0000E+00  0.0000E+00
    -13.804  0.0000E+00  0.0000E+00
    -13.800  0.0000E+00  0.0000E+00
    -13.796  0.0000E+00  0.0000E+00
    -13.792  0.0000E+00  0.0000E+00
    -13.789  0.0000E+00  0.0000E+00
    -13.785  0.0000E+00  0.0000E+00
    -13.781  0.0000E+00  0.0000E+00
    -13.777  0.0000E+00  0.0000E+00
    -13.773  0.0000E+00  0.0000E+00
    -13.769  0.0000E+00  0.0000E+00
    -13.766  0.0000E+00  0.0000E+00
    -13.762  0.0000E+00  0.0000E+00
    -13.758  0.0000E+00  0.0000E+00
    -13.754  0.0000E+00  0.0000E+00
    -13.750  0.0000E+00  0.0000E+00
    -13.747  0.0000E+00  0.0000E+00
    -13.743  0.0000E+00  0.0000E+00
    -13.739  0.0000E+00  0.0000E+00
    -13.735  0.0000E+00  0.0000E+00
    -13.731  0.0000E+00  0.0000E+00
    -13.727  0.0000E+00  0.0000E+00
    -13.724  0.0000E+00  0.0000E+00
    -13.720  0.0000E+00  0.0000E+00
    -13.716  0.0000E+00  0.0000E+00
    -13.712  0.0000E+00  0.0000E+00
    -13.708  0.0000E+00  0.0000E+00
    -13.704  0.0000E+00  0.0000E+00
    -13.701  0.0000E+00  0.0000E+00
    -13.697  0.0000E+00  0.0000E+00
    -13.693  0.0000E+00  0.0000E+00
    -13.689  0.0000E+00  0.0000E+00
    -13.685  0.0000E+00  0.0000E+00
    -13.681  0.0000E+00  0.0000E+00
    -13.678  0.0000E+00  0.0000E+00
    -13.674  0.0000E+00  0.0000E+00
    -13.670  0.0000E+00  0.0000E+00
    -13.666  0.0000E+00  0.0000E+00
    -13.662  0.0000E+00  0.0000E+00
    -13.659  0.0000E+00  0.0000E+00
    -13.655  0.0000E+00  0.0000E+00
    -13.651  0.0000E+00  0.0000E+00
    -13.647  0.0000E+00  0.0000E+00
    -13.643  0.0000E+00  0.0000E+00
    -13.639  0.0000E+00  0.0000E+00
    -13.636  0.0000E+00  0.0000E+00
    -13.632  0.0000E+00  0.0000E+00
    -13.628  0.0000E+00  0.0000E+00
    -13.624  0.0000E+00  0.0000E+00
    -13.620  0.0000E+00  0.0000E+00
    -13.616  0.0000E+00  0.0000E+00
    -13.613  0.0000E+00  0.0000E+00
    -13.609  0.0000E+00  0.0000E+00
    -13.605  0.6190E-14  0.2368E-16
    -13.601  0.4426E-12  0.1717E-14
    -13.597  0.2329E-10  0.9081E-13
    -13.593  0.9197E-09  0.3610E-11
    -13.590  0.2729E-07  0.1080E-09
    -13.586  0.6085E-06  0.2436E-08
    -13.582  0.1021E-04  0.4148E-07
    -13.578  0.1289E-03  0.5346E-06
    -13.574  0.1227E-02  0.5229E-05
    -13.571  0.8817E-02  0.3896E-04
    -13.567  0.4792E-01  0.2223E-03
    -13.563  0.1976E+00  0.9783E-03
    -13.559  0.6203E+00  0.3351E-02
    -13.555  0.1491E+01  0.9056E-02
    -13.551  0.2770E+01  0.1965E-01
    -13.548  0.4035E+01  0.3509E-01
    -13.544  0.4723E+01  0.5316E-01
    -13.540  0.4626E+01  0.7086E-01
    -13.536  0.4022E+01  0.8625E-01
    -13.532  0.3341E+01  0.9903E-01
    -13.528  0.2825E+01  0.1098E+00
    -13.525  0.2476E+01  0.1193E+00
    -13.521  0.2222E+01  0.1278E+00
    -13.517  0.2054E+01  0.1357E+00
    -13.513  0.1965E+01  0.1432E+00
    -13.509  0.1860E+01  0.1503E+00
    -13.505  0.1693E+01  0.1568E+00
    -13.502  0.1586E+01  0.1629E+00
    -13.498  0.1623E+01  0.1691E+00
    -13.494  0.1652E+01  0.1754E+00
    -13.490  0.1502E+01  0.1811E+00
    -13.486  0.1278E+01  0.1860E+00
    -13.483  0.1237E+01  0.1908E+00
    -13.479  0.1415E+01  0.1962E+00
    -13.475  0.1543E+01  0.2021E+00
    -13.471  0.1395E+01  0.2074E+00
    -13.467  0.1075E+01  0.2115E+00
    -13.463  0.9055E+00  0.2150E+00
    -13.460  0.1061E+01  0.2191E+00
    -13.456  0.1373E+01  0.2243E+00
    -13.452  0.1499E+01  0.2300E+00
    -13.448  0.1277E+01  0.2349E+00
    -13.444  0.8853E+00  0.2383E+00
    -13.440  0.6573E+00  0.2408E+00
    -13.437  0.7784E+00  0.2438E+00
    -13.433  0.1150E+01  0.2482E+00
    -13.429  0.1457E+01  0.2538E+00
    -13.425  0.1421E+01  0.2592E+00
    -13.421  0.1056E+01  0.2633E+00
    -13.417  0.6398E+00  0.2657E+00
    -13.414  0.4523E+00  0.2674E+00
    -13.410  0.6053E+00  0.2697E+00
    -13.406  0.1008E+01  0.2736E+00
    -13.402  0.1393E+01  0.2789E+00
    -13.398  0.1466E+01  0.2845E+00
    -13.395  0.1163E+01  0.2890E+00
    -13.391  0.7049E+00  0.2917E+00
    -13.387  0.3712E+00  0.2931E+00
    -13.383  0.3110E+00  0.2943E+00
    -13.379  0.5453E+00  0.2964E+00
    -13.375  0.9820E+00  0.3001E+00
    -13.372  0.1383E+01  0.3054E+00
    -13.368  0.1469E+01  0.3111E+00
    -13.364  0.1174E+01  0.3156E+00
    -13.360  0.7081E+00  0.3183E+00
    -13.356  0.3382E+00  0.3196E+00
    -13.352  0.1928E+00  0.3203E+00
    -13.349  0.2925E+00  0.3214E+00
    -13.345  0.6254E+00  0.3238E+00
    -13.341  0.1091E+01  0.3280E+00
    -13.337  0.1440E+01  0.3335E+00
    -13.333  0.1429E+01  0.3390E+00
    -13.329  0.1066E+01  0.3430E+00
    -13.326  0.5986E+00  0.3453E+00
    -13.322  0.2605E+00  0.3463E+00
    -13.318  0.1228E+00  0.3468E+00
    -13.314  0.1743E+00  0.3475E+00
    -13.310  0.4230E+00  0.3491E+00
    -13.307  0.8517E+00  0.3523E+00
    -13.303  0.1298E+01  0.3573E+00
    -13.299  0.1486E+01  0.3630E+00
    -13.295  0.1279E+01  0.3679E+00
    -13.291  0.8275E+00  0.3710E+00
    -13.287  0.4030E+00  0.3726E+00
    -13.284  0.1529E+00  0.3732E+00
    -13.280  0.7103E-01  0.3734E+00
    -13.276  0.1265E+00  0.3739E+00
    -13.272  0.3426E+00  0.3752E+00
    -13.268  0.7403E+00  0.3781E+00
    -13.264  0.1206E+01  0.3827E+00
    -13.261  0.1477E+01  0.3883E+00
    -13.257  0.1359E+01  0.3935E+00
    -13.253  0.9400E+00  0.3971E+00
    -13.249  0.4886E+00  0.3990E+00
    -13.245  0.1917E+00  0.3997E+00
    -13.241  0.6237E-01  0.4000E+00
    -13.238  0.4489E-01  0.4001E+00
    -13.234  0.1258E+00  0.4006E+00
    -13.230  0.3537E+00  0.4020E+00
    -13.226  0.7583E+00  0.4049E+00
    -13.222  0.1222E+01  0.4096E+00
    -13.219  0.1480E+01  0.4152E+00
    -13.215  0.1347E+01  0.4204E+00
    -13.211  0.9215E+00  0.4239E+00
    -13.207  0.4736E+00  0.4257E+00
    -13.203  0.1831E+00  0.4264E+00
    -13.199  0.5488E-01  0.4266E+00
    -13.196  0.2282E-01  0.4267E+00
    -13.192  0.5384E-01  0.4269E+00
    -13.188  0.1801E+00  0.4276E+00
    -13.184  0.4679E+00  0.4294E+00
    -13.180  0.9142E+00  0.4329E+00
    -13.176  0.1342E+01  0.4380E+00
    -13.173  0.1481E+01  0.4437E+00
    -13.169  0.1228E+01  0.4484E+00
    -13.165  0.7653E+00  0.4513E+00
    -13.161  0.3583E+00  0.4527E+00
    -13.157  0.1261E+00  0.4532E+00
    -13.153  0.3418E-01  0.4533E+00
    -13.150  0.1257E-01  0.4534E+00
    -13.146  0.3156E-01  0.4535E+00
    -13.142  0.1178E+00  0.4539E+00
    -13.138  0.3400E+00  0.4552E+00
    -13.134  0.7383E+00  0.4581E+00
    -13.131  0.1205E+01  0.4627E+00
    -13.127  0.1477E+01  0.4683E+00
    -13.123  0.1361E+01  0.4735E+00
    -13.119  0.9419E+00  0.4771E+00
    -13.115  0.4900E+00  0.4790E+00
    -13.111  0.1915E+00  0.4797E+00
    -13.108  0.5632E-01  0.4799E+00
    -13.104  0.1316E-01  0.4800E+00
    -13.100  0.7363E-02  0.4800E+00
    -13.096  0.2798E-01  0.4801E+00
    -13.092  0.1087E+00  0.4805E+00
    -13.088  0.3201E+00  0.4818E+00
    -13.085  0.7080E+00  0.4845E+00
    -13.081  0.1177E+01  0.4890E+00
    -13.077  0.1470E+01  0.4946E+00
    -13.073  0.1380E+01  0.4999E+00
    -13.069  0.9733E+00  0.5036E+00
    -13.065  0.5159E+00  0.5056E+00
    -13.062  0.2054E+00  0.5064E+00
    -13.058  0.6147E-01  0.5066E+00
    -13.054  0.1395E-01  0.5067E+00
    -13.050  0.3574E-02  0.5067E+00
    -13.046  0.8382E-02  0.5067E+00
    -13.043  0.3946E-01  0.5069E+00
    -13.039  0.1444E+00  0.5074E+00
    -13.035  0.3970E+00  0.5089E+00
    -13.031  0.8204E+00  0.5121E+00
    -13.027  0.1274E+01  0.5169E+00
    -13.023  0.1486E+01  0.5226E+00
    -13.020  0.1303E+01  0.5276E+00
    -13.016  0.8584E+00  0.5309E+00
    -13.012  0.4250E+00  0.5325E+00
    -13.008  0.1581E+00  0.5331E+00
    -13.004  0.4417E-01  0.5333E+00
    -13.000  0.9319E-02  0.5333E+00
    -12.997  0.1979E-02  0.5333E+00
    -12.993  0.3977E-02  0.5334E+00
    -12.989  0.2095E-01  0.5334E+00
    -12.985  0.8647E-01  0.5338E+00
    -12.981  0.2683E+00  0.5348E+00
    -12.977  0.6255E+00  0.5372E+00
    -12.974  0.1095E+01  0.5414E+00
    -12.970  0.1442E+01  0.5469E+00
    -12.966  0.1426E+01  0.5523E+00
    -12.962  0.1060E+01  0.5564E+00
    -12.958  0.5920E+00  0.5587E+00
    -12.955  0.2484E+00  0.5596E+00
    -12.951  0.7831E-01  0.5599E+00
    -12.947  0.1854E-01  0.5600E+00
    -12.943  0.3338E-02  0.5600E+00
    -12.939  0.8641E-03  0.5600E+00
    -12.935  0.3239E-02  0.5600E+00
    -12.932  0.1806E-01  0.5601E+00
    -12.928  0.7663E-01  0.5604E+00
    -12.924  0.2442E+00  0.5613E+00
    -12.920  0.5848E+00  0.5635E+00
    -12.916  0.1052E+01  0.5676E+00
    -12.912  0.1422E+01  0.5730E+00
    -12.909  0.1445E+01  0.5785E+00
    -12.905  0.1103E+01  0.5828E+00
    -12.901  0.6328E+00  0.5852E+00
    -12.897  0.2728E+00  0.5862E+00
    -12.893  0.8833E-01  0.5866E+00
    -12.889  0.2148E-01  0.5866E+00
    -12.886  0.3930E-02  0.5867E+00
    -12.882  0.6197E-03  0.5867E+00
    -12.878  0.8147E-03  0.5867E+00
    -12.874  0.5290E-02  0.5867E+00
    -12.870  0.2761E-01  0.5868E+00
    -12.867  0.1083E+00  0.5872E+00
    -12.863  0.3193E+00  0.5884E+00
    -12.859  0.7068E+00  0.5911E+00
    -12.855  0.1176E+01  0.5956E+00
    -12.851  0.1470E+01  0.6013E+00
    -12.847  0.1381E+01  0.6065E+00
    -12.844  0.9745E+00  0.6103E+00
    -12.840  0.5169E+00  0.6122E+00
    -12.836  0.2060E+00  0.6130E+00
    -12.832  0.6167E-01  0.6133E+00
    -12.828  0.1387E-01  0.6133E+00
    -12.824  0.2343E-02  0.6133E+00
    -12.821  0.3321E-03  0.6133E+00
    -12.817  0.3920E-03  0.6133E+00
    -12.813  0.2797E-02  0.6133E+00
    -12.809  0.1612E-01  0.6134E+00
    -12.805  0.6983E-01  0.6137E+00
    -12.801  0.2271E+00  0.6145E+00
    -12.798  0.5549E+00  0.6167E+00
    -12.794  0.1019E+01  0.6206E+00
    -12.790  0.1405E+01  0.6259E+00
    -12.786  0.1457E+01  0.6315E+00
    -12.782  0.1135E+01  0.6359E+00
    -12.779  0.6644E+00  0.6384E+00
    -12.775  0.2923E+00  0.6395E+00
    -12.771  0.9657E-01  0.6399E+00
    -12.767  0.2397E-01  0.6400E+00
    -12.763  0.4467E-02  0.6400E+00
    -12.759  0.6278E-03  0.6400E+00
    -12.756  0.1043E-03  0.6400E+00
    -12.752  0.3974E-03  0.6400E+00
    -12.748  0.2984E-02  0.6400E+00
    -12.744  0.1704E-01  0.6401E+00
    -12.740  0.7308E-01  0.6404E+00
    -12.736  0.2354E+00  0.6413E+00
    -12.733  0.5694E+00  0.6434E+00
    -12.729  0.1035E+01  0.6474E+00
    -12.725  0.1414E+01  0.6528E+00
    -12.721  0.1451E+01  0.6584E+00
    -12.717  0.1120E+01  0.6626E+00
    -12.713  0.6489E+00  0.6651E+00
    -12.710  0.2826E+00  0.6662E+00
    -12.706  0.9248E-01  0.6666E+00
    -12.702  0.2273E-01  0.6666E+00
    -12.698  0.4194E-02  0.6667E+00
    -12.694  0.5815E-03  0.6667E+00
    -12.691  0.6978E-04  0.6667E+00
    -12.687  0.1165E-03  0.6667E+00
    -12.683  0.9984E-03  0.6667E+00
    -12.679  0.6688E-02  0.6667E+00
    -12.675  0.3364E-01  0.6668E+00
    -12.671  0.1271E+00  0.6673E+00
    -12.668  0.3606E+00  0.6687E+00
    -12.664  0.7686E+00  0.6716E+00
    -12.660  0.1231E+01  0.6763E+00
    -12.656  0.1482E+01  0.6820E+00
    -12.652  0.1340E+01  0.6871E+00
    -12.648  0.9109E+00  0.6906E+00
    -12.645  0.4652E+00  0.6924E+00
    -12.641  0.1785E+00  0.6931E+00
    -12.637  0.5145E-01  0.6933E+00
    -12.633  0.1114E-01  0.6933E+00
    -12.629  0.1810E-02  0.6933E+00
    -12.625  0.2213E-03  0.6933E+00
    -12.622  0.2721E-04  0.6933E+00
    -12.618  0.8736E-04  0.6933E+00
    -12.614  0.7927E-03  0.6933E+00
    -12.610  0.5484E-02  0.6934E+00
    -12.606  0.2848E-01  0.6935E+00
    -12.603  0.1111E+00  0.6939E+00
    -12.599  0.3255E+00  0.6951E+00
    -12.595  0.7163E+00  0.6979E+00
    -12.591  0.1185E+01  0.7024E+00
    -12.587  0.1472E+01  0.7080E+00
    -12.583  0.1375E+01  0.7133E+00
    -12.580  0.9647E+00  0.7170E+00
    -12.576  0.5087E+00  0.7189E+00
    -12.572  0.2015E+00  0.7197E+00
    -12.568  0.5998E-01  0.7199E+00
    -12.564  0.1341E-01  0.7200E+00
    -12.560  0.2250E-02  0.7200E+00
    -12.557  0.2835E-03  0.7200E+00
    -12.553  0.2790E-04  0.7200E+00
    -12.549  0.1847E-04  0.7200E+00
    -12.545  0.1852E-03  0.7200E+00
    -12.541  0.1552E-02  0.7200E+00
    -12.537  0.9764E-02  0.7200E+00
    -12.534  0.4613E-01  0.7202E+00
    -12.530  0.1637E+00  0.7208E+00
    -12.526  0.4361E+00  0.7225E+00
    -12.522  0.8732E+00  0.7259E+00
    -12.518  0.1314E+01  0.7309E+00
    -12.515  0.1485E+01  0.7366E+00
    -12.511  0.1262E+01  0.7414E+00
    -12.507  0.8057E+00  0.7445E+00
    -12.503  0.3865E+00  0.7460E+00
    -12.499  0.1393E+00  0.7465E+00
    -12.495  0.3771E-01  0.7466E+00
    -12.492  0.7667E-02  0.7467E+00
    -12.488  0.1170E-02  0.7467E+00
    -12.484  0.1341E-03  0.7467E+00
    -12.480  0.1220E-04  0.7467E+00
    -12.476  0.1136E-04  0.7467E+00
    -12.472  0.1247E-03  0.7467E+00
    -12.469  0.1098E-02  0.7467E+00
    -12.465  0.7261E-02  0.7467E+00
    -12.461  0.3603E-01  0.7468E+00
    -12.457  0.1343E+00  0.7474E+00
    -12.453  0.3760E+00  0.7488E+00
    -12.449  0.7908E+00  0.7518E+00
    -12.446  0.1250E+01  0.7566E+00
    -12.442  0.1484E+01  0.7623E+00
    -12.438  0.1325E+01  0.7673E+00
    -12.434  0.8883E+00  0.7707E+00
    -12.430  0.4476E+00  0.7725E+00
    -12.427  0.1695E+00  0.7731E+00
    -12.423  0.4820E-01  0.7733E+00
    -12.419  0.1029E-01  0.7733E+00
    -12.415  0.1651E-02  0.7733E+00
    -12.411  0.1987E-03  0.7733E+00
    -12.407  0.1804E-04  0.7733E+00
    -12.404  0.2996E-05  0.7733E+00
    -12.400  0.2534E-04  0.7733E+00
    -12.396  0.2692E-03  0.7733E+00
    -12.392  0.2151E-02  0.7733E+00
    -12.388  0.1290E-01  0.7734E+00
    -12.384  0.5812E-01  0.7736E+00
    -12.381  0.1966E+00  0.7744E+00
    -12.377  0.4995E+00  0.7763E+00
    -12.373  0.9535E+00  0.7799E+00
    -12.369  0.1368E+01  0.7852E+00
    -12.365  0.1474E+01  0.7908E+00
    -12.362  0.1194E+01  0.7954E+00
    -12.358  0.7271E+00  0.7982E+00
    -12.354  0.3326E+00  0.7994E+00
    -12.350  0.1143E+00  0.7999E+00
    -12.346  0.2950E-01  0.8000E+00
    -12.342  0.5717E-02  0.8000E+00
    -12.339  0.8318E-03  0.8000E+00
    -12.335  0.9083E-04  0.8000E+00
    -12.331  0.7504E-05  0.8000E+00
    -12.327  0.1683E-05  0.8000E+00
    -12.323  0.1810E-04  0.8000E+00
    -12.319  0.2000E-03  0.8000E+00
    -12.316  0.1660E-02  0.8000E+00
    -12.312  0.1035E-01  0.8000E+00
    -12.308  0.4840E-01  0.8002E+00
    -12.304  0.1700E+00  0.8009E+00
    -12.300  0.4487E+00  0.8026E+00
    -12.296  0.8897E+00  0.8060E+00
    -12.293  0.1326E+01  0.8111E+00
    -12.289  0.1484E+01  0.8168E+00
    -12.285  0.1249E+01  0.8215E+00
    -12.281  0.7894E+00  0.8246E+00
    -12.277  0.3750E+00  0.8260E+00
    -12.274  0.1338E+00  0.8265E+00
    -12.270  0.3588E-01  0.8266E+00
    -12.266  0.7224E-02  0.8267E+00
    -12.262  0.1092E-02  0.8267E+00
    -12.258  0.1238E-03  0.8267E+00
    -12.254  0.1055E-04  0.8267E+00
    -12.251  0.9216E-06  0.8267E+00
    -12.247  0.4326E-05  0.8267E+00
    -12.243  0.5560E-04  0.8267E+00
    -12.239  0.5401E-03  0.8267E+00
    -12.235  0.3938E-02  0.8267E+00
    -12.231  0.2155E-01  0.8268E+00
    -12.228  0.8855E-01  0.8271E+00
    -12.224  0.2733E+00  0.8282E+00
    -12.220  0.6337E+00  0.8306E+00
    -12.216  0.1104E+01  0.8348E+00
    -12.212  0.1445E+01  0.8403E+00
    -12.208  0.1422E+01  0.8458E+00
    -12.205  0.1051E+01  0.8498E+00
    -12.201  0.5840E+00  0.8520E+00
    -12.197  0.2437E+00  0.8530E+00
    -12.193  0.7643E-01  0.8533E+00
    -12.189  0.1800E-01  0.8533E+00
    -12.186  0.3183E-02  0.8533E+00
    -12.182  0.4224E-03  0.8533E+00
    -12.178  0.4208E-04  0.8533E+00
    -12.174  0.3157E-05  0.8533E+00
    -12.170  0.4691E-06  0.8533E+00
    -12.166  0.4986E-05  0.8533E+00
    -12.163  0.6346E-04  0.8533E+00
    -12.159  0.6068E-03  0.8533E+00
    -12.155  0.4355E-02  0.8534E+00
    -12.151  0.2346E-01  0.8534E+00
    -12.147  0.9490E-01  0.8538E+00
    -12.143  0.2884E+00  0.8549E+00
    -12.140  0.6582E+00  0.8574E+00
    -12.136  0.1129E+01  0.8617E+00
    -12.132  0.1455E+01  0.8673E+00
    -12.128  0.1409E+01  0.8727E+00
    -12.124  0.1025E+01  0.8766E+00
    -12.120  0.5608E+00  0.8788E+00
    -12.117  0.2304E+00  0.8797E+00
    -12.113  0.7112E-01  0.8799E+00
    -12.109  0.1649E-01  0.8800E+00
    -12.105  0.2870E-02  0.8800E+00
    -12.101  0.3750E-03  0.8800E+00
    -12.098  0.3677E-04  0.8800E+00
    -12.094  0.2710E-05  0.8800E+00
    -12.090  0.2734E-06  0.8800E+00
    -12.086  0.2297E-05  0.8800E+00
    -12.082  0.3169E-04  0.8800E+00
    -12.078  0.3288E-03  0.8800E+00
    -12.075  0.2560E-02  0.8800E+00
    -12.071  0.1496E-01  0.8801E+00
    -12.067  0.6567E-01  0.8803E+00
    -12.063  0.2164E+00  0.8811E+00
    -12.059  0.5359E+00  0.8832E+00
    -12.055  0.9969E+00  0.8870E+00
    -12.052  0.1393E+01  0.8923E+00
    -12.048  0.1464E+01  0.8979E+00
    -12.044  0.1155E+01  0.9024E+00
    -12.040  0.6854E+00  0.9050E+00
    -12.036  0.3055E+00  0.9062E+00
    -12.032  0.1023E+00  0.9065E+00
    -12.029  0.2572E-01  0.9066E+00
    -12.025  0.4858E-02  0.9067E+00
    -12.021  0.6887E-03  0.9067E+00
    -12.017  0.7327E-04  0.9067E+00
    -12.013  0.5849E-05  0.9067E+00
    -12.010  0.3685E-06  0.9067E+00
    -12.006  0.4189E-06  0.9067E+00
    -12.002  0.6643E-05  0.9067E+00
    -11.998  0.8208E-04  0.9067E+00
    -11.994  0.7610E-03  0.9067E+00
    -11.990  0.5295E-02  0.9067E+00
    -11.987  0.2766E-01  0.9068E+00
    -11.983  0.1085E+00  0.9072E+00
    -11.979  0.3196E+00  0.9084E+00
    -11.975  0.7073E+00  0.9111E+00
    -11.971  0.1176E+01  0.9156E+00
    -11.967  0.1470E+01  0.9213E+00
    -11.964  0.1380E+01  0.9265E+00
    -11.960  0.9741E+00  0.9303E+00
    -11.956  0.5165E+00  0.9322E+00
    -11.952  0.2058E+00  0.9330E+00
    -11.948  0.6159E-01  0.9333E+00
    -11.944  0.1384E-01  0.9333E+00
    -11.941  0.2336E-02  0.9333E+00
    -11.937  0.2960E-03  0.9333E+00
    -11.933  0.2814E-04  0.9333E+00
    -11.929  0.2007E-05  0.9333E+00
    -11.925  0.1370E-06  0.9333E+00
    -11.922  0.6292E-06  0.9333E+00
    -11.918  0.9861E-05  0.9333E+00
    -11.914  0.1167E-03  0.9333E+00
    -11.910  0.1036E-02  0.9333E+00
    -11.906  0.6908E-02  0.9334E+00
    -11.902  0.3457E-01  0.9335E+00
    -11.899  0.1299E+00  0.9340E+00
    -11.895  0.3666E+00  0.9354E+00
    -11.891  0.7773E+00  0.9384E+00
    -11.887  0.1238E+01  0.9431E+00
    -11.883  0.1483E+01  0.9488E+00
    -11.879  0.1334E+01  0.9539E+00
    -11.876  0.9020E+00  0.9573E+00
    -11.872  0.4583E+00  0.9591E+00
    -11.868  0.1749E+00  0.9598E+00
    -11.864  0.5015E-01  0.9600E+00
    -11.860  0.1080E-01  0.9600E+00
    -11.856  0.1746E-02  0.9600E+00
    -11.853  0.2119E-03  0.9600E+00
    -11.849  0.1929E-04  0.9600E+00
    -11.845  0.1318E-05  0.9600E+00
    -11.841  0.9057E-07  0.9600E+00
    -11.837  0.4998E-06  0.9600E+00
    -11.834  0.8026E-05  0.9600E+00
    -11.830  0.9716E-04  0.9600E+00
    -11.826  0.8825E-03  0.9600E+00
    -11.822  0.6015E-02  0.9600E+00
    -11.818  0.3078E-01  0.9601E+00
    -11.814  0.1183E+00  0.9606E+00
    -11.811  0.3415E+00  0.9619E+00
    -11.807  0.7404E+00  0.9647E+00
    -11.803  0.1206E+01  0.9694E+00
    -11.799  0.1477E+01  0.9750E+00
    -11.795  0.1359E+01  0.9802E+00
    -11.791  0.9398E+00  0.9838E+00
    -11.788  0.4883E+00  0.9857E+00
    -11.784  0.1906E+00  0.9864E+00
    -11.780  0.5589E-01  0.9866E+00
    -11.776  0.1231E-01  0.9867E+00
    -11.772  0.2035E-02  0.9867E+00
    -11.768  0.2526E-03  0.9867E+00
    -11.765  0.2352E-04  0.9867E+00
    -11.761  0.1643E-05  0.9867E+00
    -11.757  0.9744E-07  0.9867E+00
    -11.753  0.2639E-06  0.9867E+00
    -11.749  0.4478E-05  0.9867E+00
    -11.746  0.5773E-04  0.9867E+00
    -11.742  0.5583E-03  0.9867E+00
    -11.738  0.4052E-02  0.9867E+00
    -11.734  0.2208E-01  0.9868E+00
    -11.730  0.9032E-01  0.9871E+00
    -11.726  0.2775E+00  0.9882E+00
    -11.723  0.6406E+00  0.9906E+00
    -11.719  0.1111E+01  0.9949E+00
    -11.715  0.1448E+01  0.1000E+01
    -11.711  0.1418E+01  0.1006E+01
    -11.707  0.1044E+01  0.1010E+01
    -11.703  0.5773E+00  0.1012E+01
    -11.700  0.2399E+00  0.1013E+01
    -11.696  0.7489E-01  0.1013E+01
    -11.692  0.1756E-01  0.1013E+01
    -11.688  0.3091E-02  0.1013E+01
    -11.684  0.4085E-03  0.1013E+01
    -11.680  0.4050E-04  0.1013E+01
    -11.677  0.3014E-05  0.1013E+01
    -11.673  0.1792E-06  0.1013E+01
    -11.669  0.2803E-06  0.1013E+01
    -11.665  0.5063E-05  0.1013E+01
    -11.661  0.7057E-04  0.1013E+01
    -11.658  0.7406E-03  0.1013E+01
    -11.654  0.5858E-02  0.1013E+01
    -11.650  0.3498E-01  0.1013E+01
    -11.646  0.1580E+00  0.1014E+01
    -11.642  0.5409E+00  0.1016E+01
    -11.638  0.1410E+01  0.1022E+01
    -11.635  0.2817E+01  0.1032E+01
    -11.631  0.4360E+01  0.1049E+01
    -11.627  0.5324E+01  0.1069E+01
    -11.623  0.5304E+01  0.1090E+01
    -11.619  0.4559E+01  0.1107E+01
    -11.615  0.3661E+01  0.1121E+01
    -11.612  0.2964E+01  0.1132E+01
    -11.608  0.2516E+01  0.1142E+01
    -11.604  0.2259E+01  0.1151E+01
    -11.600  0.2097E+01  0.1159E+01
    -11.596  0.1929E+01  0.1166E+01
    -11.592  0.1767E+01  0.1173E+01
    -11.589  0.1714E+01  0.1179E+01
    -11.585  0.1728E+01  0.1186E+01
    -11.581  0.1636E+01  0.1192E+01
    -11.577  0.1427E+01  0.1198E+01
    -11.573  0.1320E+01  0.1203E+01
    -11.570  0.1431E+01  0.1208E+01
    -11.566  0.1569E+01  0.1214E+01
    -11.562  0.1499E+01  0.1220E+01
    -11.558  0.1306E+01  0.1225E+01
    -11.554  0.1365E+01  0.1230E+01
    -11.550  0.1903E+01  0.1238E+01
    -11.547  0.2646E+01  0.1248E+01
    -11.543  0.2988E+01  0.1259E+01
    -11.539  0.2600E+01  0.1269E+01
    -11.535  0.1786E+01  0.1276E+01
    -11.531  0.1152E+01  0.1280E+01
    -11.527  0.1031E+01  0.1284E+01
    -11.524  0.1280E+01  0.1289E+01
    -11.520  0.1493E+01  0.1295E+01
    -11.516  0.1373E+01  0.1300E+01
    -11.512  0.9752E+00  0.1304E+01
    -11.508  0.5948E+00  0.1306E+01
    -11.504  0.4902E+00  0.1308E+01
    -11.501  0.7264E+00  0.1311E+01
    -11.497  0.1152E+01  0.1315E+01
    -11.493  0.1461E+01  0.1321E+01
    -11.489  0.1404E+01  0.1326E+01
    -11.485  0.1020E+01  0.1330E+01
    -11.482  0.5829E+00  0.1332E+01
    -11.478  0.3565E+00  0.1334E+01
    -11.474  0.4825E+00  0.1335E+01
    -11.470  0.1009E+01  0.1339E+01
    -11.466  0.1833E+01  0.1346E+01
    -11.462  0.2595E+01  0.1356E+01
    -11.459  0.2834E+01  0.1367E+01
    -11.455  0.2386E+01  0.1376E+01
    -11.451  0.1555E+01  0.1382E+01
    -11.447  0.8149E+00  0.1385E+01
    -11.443  0.4539E+00  0.1387E+01
    -11.439  0.5142E+00  0.1389E+01
    -11.436  0.8821E+00  0.1392E+01