 running   16 mpi-ranks, on    1 nodes
 distrk:  each k-point on   16 cores,    1 groups
 distr:  one band on    4 cores,    4 groups
 vasp.6.4.2 20Jul23 (build Nov 14 2023 13:24:25) complex                        
  
 POSCAR found type information on POSCAR Sb
 POSCAR found :  1 types and       2 ions
 Reading from existing POTCAR
 -----------------------------------------------------------------------------
|                                                                             |
|           W    W    AA    RRRRR   N    N  II  N    N   GGGG   !!!           |
|           W    W   A  A   R    R  NN   N  II  NN   N  G    G  !!!           |
|           W    W  A    A  R    R  N N  N  II  N N  N  G       !!!           |
|           W WW W  AAAAAA  RRRRR   N  N N  II  N  N N  G  GGG   !            |
|           WW  WW  A    A  R   R   N   NN  II  N   NN  G    G                |
|           W    W  A    A  R    R  N    N  II  N    N   GGGG   !!!           |
|                                                                             |
|     You use a magnetic or noncollinear calculation, but did not specify     |
|     the initial magnetic moment with the MAGMOM tag. Note that a            |
|     default of 1 will be used for all atoms. This ferromagnetic setup       |
|     may break the symmetry of the crystal, in particular it may rule        |
|     out finding an antiferromagnetic solution. Thence, we recommend         |
|     setting the initial magnetic moment manually or verifying carefully     |
|     that this magnetic setup is desired.                                    |
|                                                                             |
 -----------------------------------------------------------------------------

 scaLAPACK will be used
 Reading from existing POTCAR
 LDA part: xc-table for Pade appr. of Perdew
 WARNING: stress and forces are not correct
 POSCAR, INCAR and KPOINTS ok, starting setup
 FFT: planning ... GRIDC
 FFT: planning ... GRID_SOFT
 FFT: planning ... GRID
 WAVECAR not read
 reading imaginary part of occupancies ...
 charge-density read from file: unknown                                 
 reading imaginary part of occupancies ...
 magnetization density read from file 1
 reading imaginary part of occupancies ...
 magnetization density read from file 2
 reading imaginary part of occupancies ...
 magnetization density read from file 3
 entering main loop
       N       E                     dE             d eps       ncg     rms          rms(c)
DAV:   1     0.339825933089E+02    0.33983E+02   -0.14839E+03  9680   0.196E+02
DAV:   2    -0.474637723879E+01   -0.38729E+02   -0.35823E+02 14136   0.673E+01
DAV:   3    -0.811755837468E+01   -0.33712E+01   -0.33344E+01 12744   0.208E+01
DAV:   4    -0.824326871285E+01   -0.12571E+00   -0.12563E+00 14280   0.468E+00
DAV:   5    -0.824563708498E+01   -0.23684E-02   -0.23683E-02 12416   0.564E-01
DAV:   6    -0.824567871416E+01   -0.41629E-04   -0.41629E-04 14752   0.865E-02
DAV:   7    -0.824567942730E+01   -0.71314E-06   -0.71319E-06 12464   0.855E-03
DAV:   8    -0.824567943202E+01   -0.47124E-08   -0.46902E-08  9320   0.962E-04
DAV:   9    -0.824567943279E+01   -0.76818E-09   -0.75240E-09  8048   0.508E-04
DAV:  10    -0.824567943307E+01   -0.28098E-09   -0.29348E-09  8104   0.350E-04
DAV:  11    -0.824567943322E+01   -0.14916E-09   -0.14015E-09  7200   0.245E-04
DAV:  12    -0.824567943316E+01    0.53092E-10   -0.71222E-10  7272   0.181E-04
DAV:  13    -0.824567943334E+01   -0.17604E-09   -0.37358E-10  6752   0.131E-04
   1 F= -.82456794E+01 E0= -.82456794E+01  d E =-.359002E-12  mag=    -0.0001    -0.0001    -0.0001
