 vasp.6.4.2 20Jul23 (build Nov 14 2023 13:24:25) complex                        
  
 executed on             LinuxIFC date 2023.12.17  08:45:27
 running   16 mpi-ranks, on    1 nodes
 distrk:  each k-point on   16 cores,    1 groups
 distr:  one band on NCORE=   4 cores,    4 groups


--------------------------------------------------------------------------------------------------------


 INCAR:
   ENCUT = 193.577625
   ALGO = Normal
   NELM = 200
   NELMIN = 6
   NELMDL = -12
   EDIFF = 1.0E-6
   AMIX = 0.1
   BMIX = 0.0001
   NBANDS = 32
   PREC = Accurate
   IVDW = 0
   ISPIN = 1
   ADDGRID = .TRUE.
   LASPH = .TRUE.
   LSORBIT = .TRUE.
   NSW = 0
   EDIFFG = -0.010
   IBRION = 2
   ISIF = -1
   POTIM = 0.5
   STRESSTYPE = 2
   ISMEAR = 0
   SIGMA = 0.01
   LORBIT = 10
   NEDOS = 6001
   NWRITE = 1
   LWAVE = .FALSE.
   LCHARG = .FALSE.
   ICHARG = 11
   NCORE = 4
   LPLANE = .TRUE.

 POTCAR:    PAW_PBE Sb_GW 21Mar2012               
 -----------------------------------------------------------------------------
|                                                                             |
|           W    W    AA    RRRRR   N    N  II  N    N   GGGG   !!!           |
|           W    W   A  A   R    R  NN   N  II  NN   N  G    G  !!!           |
|           W    W  A    A  R    R  N N  N  II  N N  N  G       !!!           |
|           W WW W  AAAAAA  RRRRR   N  N N  II  N  N N  G  GGG   !            |
|           WW  WW  A    A  R   R   N   NN  II  N   NN  G    G                |
|           W    W  A    A  R    R  N    N  II  N    N   GGGG   !!!           |
|                                                                             |
|     You use a magnetic or noncollinear calculation, but did not specify     |
|     the initial magnetic moment with the MAGMOM tag. Note that a            |
|     default of 1 will be used for all atoms. This ferromagnetic setup       |
|     may break the symmetry of the crystal, in particular it may rule        |
|     out finding an antiferromagnetic solution. Thence, we recommend         |
|     setting the initial magnetic moment manually or verifying carefully     |
|     that this magnetic setup is desired.                                    |
|                                                                             |
 -----------------------------------------------------------------------------

 POTCAR:    PAW_PBE Sb_GW 21Mar2012               
  local pseudopotential read in
  partial core-charges read in
  partial kinetic energy density read in
  kinetic energy density of atom read in
  atomic valenz-charges read in
  non local Contribution for L=           0  read in
    real space projection operators read in
  non local Contribution for L=           0  read in
    real space projection operators read in
  non local Contribution for L=           1  read in
    real space projection operators read in
  non local Contribution for L=           1  read in
    real space projection operators read in
  non local Contribution for L=           2  read in
    real space projection operators read in
  non local Contribution for L=           2  read in
    real space projection operators read in
  non local Contribution for L=           3  read in
    real space projection operators read in
  non local Contribution for L=           3  read in
    real space projection operators read in
    PAW grid and wavefunctions read in
 
   number of l-projection  operators is LMAX  =           8
   number of lm-projection operators is LMMAX =          32
 
  PAW_PBE Sb_GW 21Mar2012               :
 energy of atom  1       EATOM= -149.9515
 kinetic energy error for atom=    0.0054 (will be added to EATOM!!)
 
 
 POSCAR: pnictogen honeycomb monolayer
  positions in direct lattice
  velocities in cartesian coordinates
 exchange correlation table for  LEXCH =        8
   RHO(1)=    0.500       N(1)  =     2000
   RHO(2)=  100.500       N(2)  =     4000
 


--------------------------------------------------------------------------------------------------------


 ion  position               nearest neighbor table
   1  0.667  0.333  0.449-   2 2.89   2 2.89   2 2.89
   2  0.333  0.667  0.551-   1 2.89   1 2.89   1 2.89
 
  LATTYP: Found a hexagonal cell.
 ALAT       =     4.1133665497
 C/A-ratio  =     3.8897578922
  
  Lattice vectors:
  
 A1 = (   4.1133665497,   0.0000000000,   0.0000000000)
 A2 = (  -2.0566832748,   3.5622799271,   0.0000000000)
 A3 = (   0.0000000000,   0.0000000000,  16.0000000000)


Analysis of symmetry for initial positions (statically):
=====================================================================
 Subroutine PRICEL returns:
 Original cell was already a primitive cell.
 

 Routine SETGRP: Setting up the symmetry group for a 
 hexagonal supercell.


 Subroutine GETGRP returns: Found 12 space group operations
 (whereof 12 operations were pure point group operations)
 out of a pool of 24 trial point group operations.


The static configuration has the point symmetry D_3d.


Analysis of symmetry for dynamics (positions and initial velocities):
=====================================================================
 Subroutine PRICEL returns:
 Original cell was already a primitive cell.
 

 Routine SETGRP: Setting up the symmetry group for a 
 hexagonal supercell.


 Subroutine GETGRP returns: Found 12 space group operations
 (whereof 12 operations were pure point group operations)
 out of a pool of 24 trial point group operations.


The dynamic configuration has the point symmetry D_3d.


Analysis of structural, dynamic, and magnetic symmetry:
=====================================================================
 Subroutine PRICEL returns:
 Original cell was already a primitive cell.
 

 Routine SETGRP: Setting up the symmetry group for a 
 hexagonal supercell.


 Subroutine GETGRP returns: Found  2 space group operations
 (whereof  2 operations were pure point group operations)
 out of a pool of 24 trial point group operations.


The overall configuration has the point symmetry S_2 .


 Subroutine INISYM returns: Found  2 space group operations
 (whereof  2 operations are pure point group operations),
 and found     1 'primitive' translations


----------------------------------------------------------------------------------------

                                     Primitive cell                                     

  volume of cell :     234.4474

  direct lattice vectors                    reciprocal lattice vectors
     4.113366550  0.000000000  0.000000000     0.243109868  0.140359548  0.000000000
    -2.056683275  3.562279927  0.000000000     0.000000000  0.280719096  0.000000000
     0.000000000  0.000000000 16.000000000     0.000000000  0.000000000  0.062500000

  length of vectors
     4.113366550  4.113366550 16.000000000     0.280719096  0.280719096  0.062500000

  position of ions in fractional coordinates (direct lattice)
     0.666666667  0.333333333  0.448625398
     0.333333333  0.666666667  0.551374602

  ion indices of the primitive-cell ions
   primitive index   ion index
                 1           1
                 2           2

----------------------------------------------------------------------------------------

 
 
 KPOINTS: kpoints along symmetry lines            

Interpolating k-points between supplied coordinates.

 Line segments in fractional coordinates (reciprocal lattice):
    0.000000  0.000000  0.000000  ...  0.666667 -0.333333  0.000000
    0.666667 -0.333333  0.000000  ...  0.333333  0.333333  0.000000
    0.333333  0.333333  0.000000  ...  0.000000  0.000000  0.000000

 Generated    50 points on each line segment, for a total of    150 k-points:

 Following reciprocal coordinates:
            Coordinates               Weight
  0.000000  0.000000  0.000000      0.006667
  0.013605 -0.006803  0.000000      0.006667
  0.027211 -0.013605  0.000000      0.006667
  0.040816 -0.020408  0.000000      0.006667
  0.054422 -0.027211  0.000000      0.006667
  0.068027 -0.034014  0.000000      0.006667
  0.081633 -0.040816  0.000000      0.006667
  0.095238 -0.047619  0.000000      0.006667
  0.108844 -0.054422  0.000000      0.006667
  0.122449 -0.061224  0.000000      0.006667
  0.136054 -0.068027  0.000000      0.006667
  0.149660 -0.074830  0.000000      0.006667
  0.163265 -0.081633  0.000000      0.006667
  0.176871 -0.088435  0.000000      0.006667
  0.190476 -0.095238  0.000000      0.006667
  0.204082 -0.102041  0.000000      0.006667
  0.217687 -0.108844  0.000000      0.006667
  0.231293 -0.115646  0.000000      0.006667
  0.244898 -0.122449  0.000000      0.006667
  0.258503 -0.129252  0.000000      0.006667
  0.272109 -0.136054  0.000000      0.006667
  0.285714 -0.142857  0.000000      0.006667
  0.299320 -0.149660  0.000000      0.006667
  0.312925 -0.156463  0.000000      0.006667
  0.326531 -0.163265  0.000000      0.006667
  0.340136 -0.170068  0.000000      0.006667
  0.353741 -0.176871  0.000000      0.006667
  0.367347 -0.183673  0.000000      0.006667
  0.380952 -0.190476  0.000000      0.006667
  0.394558 -0.197279  0.000000      0.006667
  0.408163 -0.204082  0.000000      0.006667
  0.421769 -0.210884  0.000000      0.006667
  0.435374 -0.217687  0.000000      0.006667
  0.448980 -0.224490  0.000000      0.006667
  0.462585 -0.231293  0.000000      0.006667
  0.476190 -0.238095  0.000000      0.006667
  0.489796 -0.244898  0.000000      0.006667
  0.503401 -0.251701  0.000000      0.006667
  0.517007 -0.258503  0.000000      0.006667
  0.530612 -0.265306  0.000000      0.006667
  0.544218 -0.272109  0.000000      0.006667
  0.557823 -0.278912  0.000000      0.006667
  0.571429 -0.285714  0.000000      0.006667
  0.585034 -0.292517  0.000000      0.006667
  0.598639 -0.299320  0.000000      0.006667
  0.612245 -0.306122  0.000000      0.006667
  0.625850 -0.312925  0.000000      0.006667
  0.639456 -0.319728  0.000000      0.006667
  0.653061 -0.326531  0.000000      0.006667
  0.666667 -0.333333  0.000000      0.006667
  0.666667 -0.333333  0.000000      0.006667
  0.659864 -0.319728  0.000000      0.006667
  0.653061 -0.306122  0.000000      0.006667
  0.646259 -0.292517  0.000000      0.006667
  0.639456 -0.278912  0.000000      0.006667
  0.632653 -0.265306  0.000000      0.006667
  0.625850 -0.251701  0.000000      0.006667
  0.619048 -0.238095  0.000000      0.006667
  0.612245 -0.224490  0.000000      0.006667
  0.605442 -0.210884  0.000000      0.006667
  0.598639 -0.197279  0.000000      0.006667
  0.591837 -0.183673  0.000000      0.006667
  0.585034 -0.170068  0.000000      0.006667
  0.578231 -0.156463  0.000000      0.006667
  0.571429 -0.142857  0.000000      0.006667
  0.564626 -0.129252  0.000000      0.006667
  0.557823 -0.115646  0.000000      0.006667
  0.551020 -0.102041  0.000000      0.006667
  0.544218 -0.088435  0.000000      0.006667
  0.537415 -0.074830  0.000000      0.006667
  0.530612 -0.061224  0.000000      0.006667
  0.523810 -0.047619  0.000000      0.006667
  0.517007 -0.034014  0.000000      0.006667
  0.510204 -0.020408  0.000000      0.006667
  0.503401 -0.006803  0.000000      0.006667
  0.496599  0.006803  0.000000      0.006667
  0.489796  0.020408  0.000000      0.006667
  0.482993  0.034014  0.000000      0.006667
  0.476190  0.047619  0.000000      0.006667
  0.469388  0.061224  0.000000      0.006667
  0.462585  0.074830  0.000000      0.006667
  0.455782  0.088435  0.000000      0.006667
  0.448980  0.102041  0.000000      0.006667
  0.442177  0.115646  0.000000      0.006667
  0.435374  0.129252  0.000000      0.006667
  0.428571  0.142857  0.000000      0.006667
  0.421769  0.156463  0.000000      0.006667
  0.414966  0.170068  0.000000      0.006667
  0.408163  0.183673  0.000000      0.006667
  0.401361  0.197279  0.000000      0.006667
  0.394558  0.210884  0.000000      0.006667
  0.387755  0.224490  0.000000      0.006667
  0.380952  0.238095  0.000000      0.006667
  0.374150  0.251701  0.000000      0.006667
  0.367347  0.265306  0.000000      0.006667
  0.360544  0.278912  0.000000      0.006667
  0.353741  0.292517  0.000000      0.006667
  0.346939  0.306122  0.000000      0.006667
  0.340136  0.319728  0.000000      0.006667
  0.333333  0.333333  0.000000      0.006667
  0.333333  0.333333  0.000000      0.006667
  0.326531  0.326531  0.000000      0.006667
  0.319728  0.319728  0.000000      0.006667
  0.312925  0.312925  0.000000      0.006667
  0.306122  0.306122  0.000000      0.006667
  0.299320  0.299320  0.000000      0.006667
  0.292517  0.292517  0.000000      0.006667
  0.285714  0.285714  0.000000      0.006667
  0.278912  0.278912  0.000000      0.006667
  0.272109  0.272109  0.000000      0.006667
  0.265306  0.265306  0.000000      0.006667
  0.258503  0.258503  0.000000      0.006667
  0.251701  0.251701  0.000000      0.006667
  0.244898  0.244898  0.000000      0.006667
  0.238095  0.238095  0.000000      0.006667
  0.231293  0.231293  0.000000      0.006667
  0.224490  0.224490  0.000000      0.006667
  0.217687  0.217687  0.000000      0.006667
  0.210884  0.210884  0.000000      0.006667
  0.204082  0.204082  0.000000      0.006667
  0.197279  0.197279  0.000000      0.006667
  0.190476  0.190476  0.000000      0.006667
  0.183673  0.183673  0.000000      0.006667
  0.176871  0.176871  0.000000      0.006667
  0.170068  0.170068  0.000000      0.006667
  0.163265  0.163265  0.000000      0.006667
  0.156463  0.156463  0.000000      0.006667
  0.149660  0.149660  0.000000      0.006667
  0.142857  0.142857  0.000000      0.006667
  0.136054  0.136054  0.000000      0.006667
  0.129252  0.129252  0.000000      0.006667
  0.122449  0.122449  0.000000      0.006667
  0.115646  0.115646  0.000000      0.006667
  0.108844  0.108844  0.000000      0.006667
  0.102041  0.102041  0.000000      0.006667
  0.095238  0.095238  0.000000      0.006667
  0.088435  0.088435  0.000000      0.006667
  0.081633  0.081633  0.000000      0.006667
  0.074830  0.074830  0.000000      0.006667
  0.068027  0.068027  0.000000      0.006667
  0.061224  0.061224  0.000000      0.006667
  0.054422  0.054422  0.000000      0.006667
  0.047619  0.047619  0.000000      0.006667
  0.040816  0.040816  0.000000      0.006667
  0.034014  0.034014  0.000000      0.006667
  0.027211  0.027211  0.000000      0.006667
  0.020408  0.020408  0.000000      0.006667
  0.013605  0.013605  0.000000      0.006667
  0.006803  0.006803  0.000000      0.006667
  0.000000  0.000000  0.000000      0.006667

 Following cartesian coordinates:
            Coordinates               Weight
  0.000000  0.000000  0.000000      0.006667
  0.003308  0.000000  0.000000      0.006667
  0.006615  0.000000  0.000000      0.006667
  0.009923  0.000000  0.000000      0.006667
  0.013230  0.000000  0.000000      0.006667
  0.016538  0.000000  0.000000      0.006667
  0.019846  0.000000  0.000000      0.006667
  0.023153  0.000000  0.000000      0.006667
  0.026461  0.000000  0.000000      0.006667
  0.029769  0.000000  0.000000      0.006667
  0.033076  0.000000  0.000000      0.006667
  0.036384  0.000000  0.000000      0.006667
  0.039691  0.000000  0.000000      0.006667
  0.042999  0.000000  0.000000      0.006667
  0.046307  0.000000  0.000000      0.006667
  0.049614  0.000000  0.000000      0.006667
  0.052922  0.000000  0.000000      0.006667
  0.056229  0.000000  0.000000      0.006667
  0.059537  0.000000  0.000000      0.006667
  0.062845  0.000000  0.000000      0.006667
  0.066152  0.000000  0.000000      0.006667
  0.069460  0.000000  0.000000      0.006667
  0.072768  0.000000  0.000000      0.006667
  0.076075  0.000000  0.000000      0.006667
  0.079383  0.000000  0.000000      0.006667
  0.082690  0.000000  0.000000      0.006667
  0.085998  0.000000  0.000000      0.006667
  0.089306  0.000000  0.000000      0.006667
  0.092613  0.000000  0.000000      0.006667
  0.095921  0.000000  0.000000      0.006667
  0.099229  0.000000  0.000000      0.006667
  0.102536  0.000000  0.000000      0.006667
  0.105844  0.000000  0.000000      0.006667
  0.109151  0.000000  0.000000      0.006667
  0.112459  0.000000  0.000000      0.006667
  0.115767  0.000000  0.000000      0.006667
  0.119074  0.000000  0.000000      0.006667
  0.122382  0.000000  0.000000      0.006667
  0.125689  0.000000  0.000000      0.006667
  0.128997  0.000000  0.000000      0.006667
  0.132305  0.000000  0.000000      0.006667
  0.135612  0.000000  0.000000      0.006667
  0.138920  0.000000  0.000000      0.006667
  0.142228  0.000000  0.000000      0.006667
  0.145535  0.000000  0.000000      0.006667
  0.148843  0.000000  0.000000      0.006667
  0.152150  0.000000  0.000000      0.006667
  0.155458  0.000000  0.000000      0.006667
  0.158766  0.000000  0.000000      0.006667
  0.162073  0.000000  0.000000      0.006667
  0.162073  0.000000  0.000000      0.006667
  0.160419  0.002864  0.000000      0.006667
  0.158766  0.005729  0.000000      0.006667
  0.157112  0.008593  0.000000      0.006667
  0.155458  0.011458  0.000000      0.006667
  0.153804  0.014322  0.000000      0.006667
  0.152150  0.017187  0.000000      0.006667
  0.150497  0.020051  0.000000      0.006667
  0.148843  0.022916  0.000000      0.006667
  0.147189  0.025780  0.000000      0.006667
  0.145535  0.028645  0.000000      0.006667
  0.143881  0.031509  0.000000      0.006667
  0.142228  0.034374  0.000000      0.006667
  0.140574  0.037238  0.000000      0.006667
  0.138920  0.040103  0.000000      0.006667
  0.137266  0.042967  0.000000      0.006667
  0.135612  0.045832  0.000000      0.006667
  0.133958  0.048696  0.000000      0.006667
  0.132305  0.051561  0.000000      0.006667
  0.130651  0.054425  0.000000      0.006667
  0.128997  0.057290  0.000000      0.006667
  0.127343  0.060154  0.000000      0.006667
  0.125689  0.063019  0.000000      0.006667
  0.124036  0.065883  0.000000      0.006667
  0.122382  0.068748  0.000000      0.006667
  0.120728  0.071612  0.000000      0.006667
  0.119074  0.074476  0.000000      0.006667
  0.117420  0.077341  0.000000      0.006667
  0.115767  0.080205  0.000000      0.006667
  0.114113  0.083070  0.000000      0.006667
  0.112459  0.085934  0.000000      0.006667
  0.110805  0.088799  0.000000      0.006667
  0.109151  0.091663  0.000000      0.006667
  0.107498  0.094528  0.000000      0.006667
  0.105844  0.097392  0.000000      0.006667
  0.104190  0.100257  0.000000      0.006667
  0.102536  0.103121  0.000000      0.006667
  0.100882  0.105986  0.000000      0.006667
  0.099229  0.108850  0.000000      0.006667
  0.097575  0.111715  0.000000      0.006667
  0.095921  0.114579  0.000000      0.006667
  0.094267  0.117444  0.000000      0.006667
  0.092613  0.120308  0.000000      0.006667
  0.090959  0.123173  0.000000      0.006667
  0.089306  0.126037  0.000000      0.006667
  0.087652  0.128902  0.000000      0.006667
  0.085998  0.131766  0.000000      0.006667
  0.084344  0.134631  0.000000      0.006667
  0.082690  0.137495  0.000000      0.006667
  0.081037  0.140360  0.000000      0.006667
  0.081037  0.140360  0.000000      0.006667
  0.079383  0.137495  0.000000      0.006667
  0.077729  0.134631  0.000000      0.006667
  0.076075  0.131766  0.000000      0.006667
  0.074421  0.128902  0.000000      0.006667
  0.072768  0.126037  0.000000      0.006667
  0.071114  0.123173  0.000000      0.006667
  0.069460  0.120308  0.000000      0.006667
  0.067806  0.117444  0.000000      0.006667
  0.066152  0.114579  0.000000      0.006667
  0.064499  0.111715  0.000000      0.006667
  0.062845  0.108850  0.000000      0.006667
  0.061191  0.105986  0.000000      0.006667
  0.059537  0.103121  0.000000      0.006667
  0.057883  0.100257  0.000000      0.006667
  0.056229  0.097392  0.000000      0.006667
  0.054576  0.094528  0.000000      0.006667
  0.052922  0.091663  0.000000      0.006667
  0.051268  0.088799  0.000000      0.006667
  0.049614  0.085934  0.000000      0.006667
  0.047960  0.083070  0.000000      0.006667
  0.046307  0.080205  0.000000      0.006667
  0.044653  0.077341  0.000000      0.006667
  0.042999  0.074476  0.000000      0.006667
  0.041345  0.071612  0.000000      0.006667
  0.039691  0.068748  0.000000      0.006667
  0.038038  0.065883  0.000000      0.006667
  0.036384  0.063019  0.000000      0.006667
  0.034730  0.060154  0.000000      0.006667
  0.033076  0.057290  0.000000      0.006667
  0.031422  0.054425  0.000000      0.006667
  0.029769  0.051561  0.000000      0.006667
  0.028115  0.048696  0.000000      0.006667
  0.026461  0.045832  0.000000      0.006667
  0.024807  0.042967  0.000000      0.006667
  0.023153  0.040103  0.000000      0.006667
  0.021500  0.037238  0.000000      0.006667
  0.019846  0.034374  0.000000      0.006667
  0.018192  0.031509  0.000000      0.006667
  0.016538  0.028645  0.000000      0.006667
  0.014884  0.025780  0.000000      0.006667
  0.013230  0.022916  0.000000      0.006667
  0.011577  0.020051  0.000000      0.006667
  0.009923  0.017187  0.000000      0.006667
  0.008269  0.014322  0.000000      0.006667
  0.006615  0.011458  0.000000      0.006667
  0.004961  0.008593  0.000000      0.006667
  0.003308  0.005729  0.000000      0.006667
  0.001654  0.002864  0.000000      0.006667
  0.000000  0.000000  0.000000      0.006667
 


--------------------------------------------------------------------------------------------------------




 Dimension of arrays:
   k-points           NKPTS =    150   k-points in BZ     NKDIM =    150   number of bands    NBANDS=     32
   number of dos      NEDOS =   6001   number of ions     NIONS =      2
   non local maximal  LDIM  =      8   non local SUM 2l+1 LMDIM =     32
   total plane-waves  NPLWV =  32000
   max r-space proj   IRMAX =      1   max aug-charges    IRDMAX=  60791
   dimension x,y,z NGX =    20 NGY =   20 NGZ =   80
   dimension x,y,z NGXF=    40 NGYF=   40 NGZF=  160
   support grid    NGXF=    80 NGYF=   80 NGZF=  320
   ions per type =               2
   NGX,Y,Z   is equivalent  to a cutoff of   8.08,  8.08,  8.31 a.u.
   NGXF,Y,Z  is equivalent  to a cutoff of  16.17, 16.17, 16.62 a.u.

 SYSTEM =  unknown system                          
 POSCAR =  pnictogen honeycomb monolayer           

 Startparameter for this run:
   NWRITE =      1    write-flag & timer
   PREC   = accura    normal or accurate (medium, high low for compatibility)
   ISTART =      0    job   : 0-new  1-cont  2-samecut
   ICHARG =     11    charge: 1-file 2-atom 10-const
   ISPIN  =      1    spin polarized calculation?
   LNONCOLLINEAR =      T non collinear calculations
   LSORBIT =      T    spin-orbit coupling
   INIWAV =      1    electr: 0-lowe 1-rand  2-diag
   LASPH  =      T    aspherical Exc in radial PAW
 Electronic Relaxation 1
   ENCUT  =  193.6 eV  14.23 Ry    3.77 a.u.   4.67  4.67 18.15*2*pi/ulx,y,z
   ENINI  =  193.6     initial cutoff
   ENAUG  =  560.6 eV  augmentation charge cutoff
   NELM   =    200;   NELMIN=  6; NELMDL=-12     # of ELM steps 
   EDIFF  = 0.1E-05   stopping-criterion for ELM
   LREAL  =      F    real-space projection
   NLSPLINE    = F    spline interpolate recip. space projectors
   LCOMPAT=      F    compatible to vasp.4.4
   GGA_COMPAT  = T    GGA compatible to vasp.4.4-vasp.4.6
   LMAXPAW     = -100 max onsite density
   LMAXMIX     =    2 max onsite mixed and CHGCAR
   VOSKOWN=      0    Vosko Wilk Nusair interpolation
   ROPT   =    0.00000
 Ionic relaxation
   EDIFFG = -.1E-01   stopping-criterion for IOM
   NSW    =      0    number of steps for IOM
   NBLOCK =      1;   KBLOCK =      1    inner block; outer block 
   IBRION =     -1    ionic relax: 0-MD 1-quasi-New 2-CG
   NFREE  =      1    steps in history (QN), initial steepest desc. (CG)
   ISIF   =     -1    stress and relaxation
   IWAVPR =     10    prediction:  0-non 1-charg 2-wave 3-comb
   ISYM   =      2    0-nonsym 1-usesym 2-fastsym
   LCORR  =      T    Harris-Foulkes like correction to forces

   POTIM  = 0.5000    time-step for ionic-motion
   TEIN   =    0.0    initial temperature
   TEBEG  =    0.0;   TEEND  =   0.0 temperature during run
   SMASS  =  -3.00    Nose mass-parameter (am)
   estimated Nose-frequenzy (Omega)   =  0.10E-29 period in steps = 0.13E+47 mass=  -0.387E-27a.u.
   SCALEE = 1.0000    scale energy and forces
   NPACO  =    256;   APACO  = 10.0  distance and # of slots for P.C.
   PSTRESS=    0.0 pullay stress

  Mass of Ions in am
   POMASS = 121.75
  Ionic Valenz
   ZVAL   =   5.00
  Atomic Wigner-Seitz radii
   RWIGS  =  -1.00
  virtual crystal weights 
   VCA    =   1.00
   NELECT =      10.0000    total number of electrons
   NUPDOWN=      -1.0000    fix difference up-down

 DOS related values:
   EMIN   =  10.00;   EMAX   =-10.00  energy-range for DOS
   EFERMI =   0.00;   METHOD = LEGACY      
   ISMEAR =     0;   SIGMA  =   0.01  broadening in eV -4-tet -1-fermi 0-gaus

 Electronic relaxation 2 (details)
   IALGO  =     38    algorithm
   LDIAG  =      T    sub-space diagonalisation (order eigenvalues)
   LSUBROT=      F    optimize rotation matrix (better conditioning)
   TURBO    =      0    0=normal 1=particle mesh
   IRESTART =      0    0=no restart 2=restart with 2 vectors
   NREBOOT  =      0    no. of reboots
   NMIN     =      0    reboot dimension
   EREF     =   0.00    reference energy to select bands
   IMIX   =      4    mixing-type and parameters
     AMIX     =   0.10;   BMIX     =  0.00
     AMIX_MAG =   0.40;   BMIX_MAG =  0.00
     AMIN     =   0.10
     WC   =   100.;   INIMIX=   1;  MIXPRE=   1;  MAXMIX= -45

 Intra band minimization:
   WEIMIN = 0.0000     energy-eigenvalue tresh-hold
   EBREAK =  0.78E-08  absolut break condition
   DEPER  =   0.30     relativ break condition  

   TIME   =   0.40     timestep for ELM

  volume/ion in A,a.u.               =     117.22       791.06
  Fermi-wavevector in a.u.,A,eV,Ry     =   0.571996  1.080916  4.451547  0.327179
  Thomas-Fermi vector in A             =   1.612688
 
 Write flags
   LWAVE        =      F    write WAVECAR
   LDOWNSAMPLE  =      F    k-point downsampling of WAVECAR
   LCHARG       =      F    write CHGCAR
   LVTOT        =      F    write LOCPOT, total local potential
   LVHAR        =      F    write LOCPOT, Hartree potential only
   LELF         =      F    write electronic localiz. function (ELF)
   LORBIT       =     10    0 simple, 1 ext, 2 COOP (PROOUT), +10 PAW based schemes


 Dipole corrections
   LMONO  =      F    monopole corrections only (constant potential shift)
   LDIPOL =      F    correct potential (dipole corrections)
   IDIPOL =      0    1-x, 2-y, 3-z, 4-all directions 
   EPSILON=  1.0000000 bulk dielectric constant

 Exchange correlation treatment:
   GGA     =    --    GGA type
   LEXCH   =     8    internal setting for exchange type
   LIBXC   =     F    Libxc                    
   VOSKOWN =     0    Vosko Wilk Nusair interpolation
   LHFCALC =     F    Hartree Fock is set to
   LHFONE  =     F    Hartree Fock one center treatment
   AEXX    =    0.0000 exact exchange contribution

 Linear response parameters
   LEPSILON=     F    determine dielectric tensor
   LRPA    =     F    only Hartree local field effects (RPA)
   LNABLA  =     F    use nabla operator in PAW spheres
   LVEL    =     F    velocity operator in full k-point grid
   CSHIFT  =0.1000    complex shift for real part using Kramers Kronig
   OMEGAMAX=  -1.0    maximum frequency
   DEG_THRESHOLD= 0.2000000E-02 threshold for treating states as degnerate
   RTIME   =   -0.100 relaxation time in fs
  (WPLASMAI=    0.000 imaginary part of plasma frequency in eV, 0.658/RTIME)
   DFIELD  = 0.0000000 0.0000000 0.0000000 field for delta impulse in time
 
  Optional k-point grid parameters
   LKPOINTS_OPT  =     F    use optional k-point grid
   KPOINTS_OPT_MODE=     1    mode for optional k-point grid
 
 Orbital magnetization related:
   ORBITALMAG=     F  switch on orbital magnetization
   LCHIMAG   =     F  perturbation theory with respect to B field
   DQ        =  0.001000  dq finite difference perturbation B field
   LLRAUG    =     F  two centre corrections for induced B field
   LBONE     =     F  B-component reconstruction in AE one-centre
   LVGVCALC  =     T  calculate vGv susceptibility
   LVGVAPPL  =     F  apply vGv susceptibility instead of pGv for G=0

 Random number generation:
   RANDOM_GENERATOR = DEFAULT
   PCG_SEED         = not used


--------------------------------------------------------------------------------------------------------


 Static calculation
 charge density and potential remain constant during run
 non collinear spin polarized calculation
 Variant of blocked Davidson
 Davidson routine will perform the subspace rotation
 perform sub-space diagonalisation
    after iterative eigenvector-optimisation
 no mixing
 using additional bands           27
 reciprocal scheme for non local part
 use partial core corrections
 calculate Harris-corrections to forces 
   (improved forces if not selfconsistent)
 use gradient corrections 
 WARNING: stress and forces are not correct
  (second derivative of E(xc) not defined)
 use of overlap-Matrix (Vanderbilt PP)
 Gauss-broadening in eV      SIGMA  =   0.01


--------------------------------------------------------------------------------------------------------


  energy-cutoff  :      193.58
  volume of cell :      234.45
      direct lattice vectors                 reciprocal lattice vectors
     4.113366550  0.000000000  0.000000000     0.243109868  0.140359548  0.000000000
    -2.056683275  3.562279927  0.000000000     0.000000000  0.280719096  0.000000000
     0.000000000  0.000000000 16.000000000     0.000000000  0.000000000  0.062500000

  length of vectors
     4.113366550  4.113366550 16.000000000     0.280719096  0.280719096  0.062500000


 
 k-points in units of 2pi/SCALE and weight: kpoints along symmetry lines            
   0.00000000  0.00000000  0.00000000       0.007
   0.00330762  0.00000000  0.00000000       0.007
   0.00661523  0.00000000  0.00000000       0.007
   0.00992285  0.00000000  0.00000000       0.007
   0.01323047  0.00000000  0.00000000       0.007
   0.01653809  0.00000000  0.00000000       0.007
   0.01984570  0.00000000  0.00000000       0.007
   0.02315332  0.00000000  0.00000000       0.007
   0.02646094  0.00000000  0.00000000       0.007
   0.02976856  0.00000000  0.00000000       0.007
   0.03307617  0.00000000  0.00000000       0.007
   0.03638379  0.00000000  0.00000000       0.007
   0.03969141  0.00000000  0.00000000       0.007
   0.04299902  0.00000000  0.00000000       0.007
   0.04630664  0.00000000  0.00000000       0.007
   0.04961426  0.00000000  0.00000000       0.007
   0.05292188  0.00000000  0.00000000       0.007
   0.05622949  0.00000000  0.00000000       0.007
   0.05953711  0.00000000  0.00000000       0.007
   0.06284473  0.00000000  0.00000000       0.007
   0.06615235  0.00000000  0.00000000       0.007
   0.06945996  0.00000000  0.00000000       0.007
   0.07276758  0.00000000  0.00000000       0.007
   0.07607520  0.00000000  0.00000000       0.007
   0.07938281  0.00000000  0.00000000       0.007
   0.08269043  0.00000000  0.00000000       0.007
   0.08599805  0.00000000  0.00000000       0.007
   0.08930567  0.00000000  0.00000000       0.007
   0.09261328  0.00000000  0.00000000       0.007
   0.09592090  0.00000000  0.00000000       0.007
   0.09922852  0.00000000  0.00000000       0.007
   0.10253613  0.00000000  0.00000000       0.007
   0.10584375  0.00000000  0.00000000       0.007
   0.10915137  0.00000000  0.00000000       0.007
   0.11245899  0.00000000  0.00000000       0.007
   0.11576660  0.00000000  0.00000000       0.007
   0.11907422  0.00000000  0.00000000       0.007
   0.12238184  0.00000000  0.00000000       0.007
   0.12568946  0.00000000  0.00000000       0.007
   0.12899707  0.00000000  0.00000000       0.007
   0.13230469  0.00000000  0.00000000       0.007
   0.13561231  0.00000000  0.00000000       0.007
   0.13891992  0.00000000  0.00000000       0.007
   0.14222754  0.00000000  0.00000000       0.007
   0.14553516  0.00000000  0.00000000       0.007
   0.14884278  0.00000000  0.00000000       0.007
   0.15215039  0.00000000  0.00000000       0.007
   0.15545801  0.00000000  0.00000000       0.007
   0.15876563  0.00000000  0.00000000       0.007
   0.16207325  0.00000000  0.00000000       0.007
   0.16207325  0.00000000  0.00000000       0.007
   0.16041944  0.00286448  0.00000000       0.007
   0.15876563  0.00572896  0.00000000       0.007
   0.15711182  0.00859344  0.00000000       0.007
   0.15545801  0.01145792  0.00000000       0.007
   0.15380420  0.01432240  0.00000000       0.007
   0.15215039  0.01718688  0.00000000       0.007
   0.15049659  0.02005136  0.00000000       0.007
   0.14884278  0.02291584  0.00000000       0.007
   0.14718897  0.02578033  0.00000000       0.007
   0.14553516  0.02864481  0.00000000       0.007
   0.14388135  0.03150929  0.00000000       0.007
   0.14222754  0.03437377  0.00000000       0.007
   0.14057373  0.03723825  0.00000000       0.007
   0.13891992  0.04010273  0.00000000       0.007
   0.13726612  0.04296721  0.00000000       0.007
   0.13561231  0.04583169  0.00000000       0.007
   0.13395850  0.04869617  0.00000000       0.007
   0.13230469  0.05156065  0.00000000       0.007
   0.13065088  0.05442513  0.00000000       0.007
   0.12899707  0.05728961  0.00000000       0.007
   0.12734326  0.06015409  0.00000000       0.007
   0.12568946  0.06301857  0.00000000       0.007
   0.12403565  0.06588305  0.00000000       0.007
   0.12238184  0.06874753  0.00000000       0.007
   0.12072803  0.07161201  0.00000000       0.007
   0.11907422  0.07447649  0.00000000       0.007
   0.11742041  0.07734098  0.00000000       0.007
   0.11576660  0.08020546  0.00000000       0.007
   0.11411280  0.08306994  0.00000000       0.007
   0.11245899  0.08593442  0.00000000       0.007
   0.11080518  0.08879890  0.00000000       0.007
   0.10915137  0.09166338  0.00000000       0.007
   0.10749756  0.09452786  0.00000000       0.007
   0.10584375  0.09739234  0.00000000       0.007
   0.10418994  0.10025682  0.00000000       0.007
   0.10253613  0.10312130  0.00000000       0.007
   0.10088233  0.10598578  0.00000000       0.007
   0.09922852  0.10885026  0.00000000       0.007
   0.09757471  0.11171474  0.00000000       0.007
   0.09592090  0.11457922  0.00000000       0.007
   0.09426709  0.11744370  0.00000000       0.007
   0.09261328  0.12030818  0.00000000       0.007
   0.09095947  0.12317266  0.00000000       0.007
   0.08930567  0.12603715  0.00000000       0.007
   0.08765186  0.12890163  0.00000000       0.007
   0.08599805  0.13176611  0.00000000       0.007
   0.08434424  0.13463059  0.00000000       0.007
   0.08269043  0.13749507  0.00000000       0.007
   0.08103662  0.14035955  0.00000000       0.007
   0.08103662  0.14035955  0.00000000       0.007
   0.07938281  0.13749507  0.00000000       0.007
   0.07772901  0.13463059  0.00000000       0.007
   0.07607520  0.13176611  0.00000000       0.007
   0.07442139  0.12890163  0.00000000       0.007
   0.07276758  0.12603715  0.00000000       0.007
   0.07111377  0.12317266  0.00000000       0.007
   0.06945996  0.12030818  0.00000000       0.007
   0.06780615  0.11744370  0.00000000       0.007
   0.06615235  0.11457922  0.00000000       0.007
   0.06449854  0.11171474  0.00000000       0.007
   0.06284473  0.10885026  0.00000000       0.007
   0.06119092  0.10598578  0.00000000       0.007
   0.05953711  0.10312130  0.00000000       0.007
   0.05788330  0.10025682  0.00000000       0.007
   0.05622949  0.09739234  0.00000000       0.007
   0.05457568  0.09452786  0.00000000       0.007
   0.05292188  0.09166338  0.00000000       0.007
   0.05126807  0.08879890  0.00000000       0.007
   0.04961426  0.08593442  0.00000000       0.007
   0.04796045  0.08306994  0.00000000       0.007
   0.04630664  0.08020546  0.00000000       0.007
   0.04465283  0.07734098  0.00000000       0.007
   0.04299902  0.07447649  0.00000000       0.007
   0.04134522  0.07161201  0.00000000       0.007
   0.03969141  0.06874753  0.00000000       0.007
   0.03803760  0.06588305  0.00000000       0.007
   0.03638379  0.06301857  0.00000000       0.007
   0.03472998  0.06015409  0.00000000       0.007
   0.03307617  0.05728961  0.00000000       0.007
   0.03142236  0.05442513  0.00000000       0.007
   0.02976856  0.05156065  0.00000000       0.007
   0.02811475  0.04869617  0.00000000       0.007
   0.02646094  0.04583169  0.00000000       0.007
   0.02480713  0.04296721  0.00000000       0.007
   0.02315332  0.04010273  0.00000000       0.007
   0.02149951  0.03723825  0.00000000       0.007
   0.01984570  0.03437377  0.00000000       0.007
   0.01819189  0.03150929  0.00000000       0.007
   0.01653809  0.02864481  0.00000000       0.007
   0.01488428  0.02578033  0.00000000       0.007
   0.01323047  0.02291584  0.00000000       0.007
   0.01157666  0.02005136  0.00000000       0.007
   0.00992285  0.01718688  0.00000000       0.007
   0.00826904  0.01432240  0.00000000       0.007
   0.00661523  0.01145792  0.00000000       0.007
   0.00496143  0.00859344  0.00000000       0.007
   0.00330762  0.00572896  0.00000000       0.007
   0.00165381  0.00286448  0.00000000       0.007
   0.00000000  0.00000000  0.00000000       0.007
 
 k-points in reciprocal lattice and weights: kpoints along symmetry lines            
   0.00000000  0.00000000  0.00000000       0.007
   0.01360544 -0.00680272  0.00000000       0.007
   0.02721088 -0.01360544  0.00000000       0.007
   0.04081633 -0.02040816  0.00000000       0.007
   0.05442177 -0.02721088  0.00000000       0.007
   0.06802721 -0.03401361  0.00000000       0.007
   0.08163265 -0.04081633  0.00000000       0.007
   0.09523810 -0.04761905  0.00000000       0.007
   0.10884354 -0.05442177  0.00000000       0.007
   0.12244898 -0.06122449  0.00000000       0.007
   0.13605442 -0.06802721  0.00000000       0.007
   0.14965986 -0.07482993  0.00000000       0.007
   0.16326531 -0.08163265  0.00000000       0.007
   0.17687075 -0.08843537  0.00000000       0.007
   0.19047619 -0.09523810  0.00000000       0.007
   0.20408163 -0.10204082  0.00000000       0.007
   0.21768707 -0.10884354  0.00000000       0.007
   0.23129252 -0.11564626  0.00000000       0.007
   0.24489796 -0.12244898  0.00000000       0.007
   0.25850340 -0.12925170  0.00000000       0.007
   0.27210884 -0.13605442  0.00000000       0.007
   0.28571429 -0.14285714  0.00000000       0.007
   0.29931973 -0.14965986  0.00000000       0.007
   0.31292517 -0.15646259  0.00000000       0.007
   0.32653061 -0.16326531  0.00000000       0.007
   0.34013605 -0.17006803  0.00000000       0.007
   0.35374150 -0.17687075  0.00000000       0.007
   0.36734694 -0.18367347  0.00000000       0.007
   0.38095238 -0.19047619  0.00000000       0.007
   0.39455782 -0.19727891  0.00000000       0.007
   0.40816327 -0.20408163  0.00000000       0.007
   0.42176871 -0.21088435  0.00000000       0.007
   0.43537415 -0.21768707  0.00000000       0.007
   0.44897959 -0.22448980  0.00000000       0.007
   0.46258503 -0.23129252  0.00000000       0.007
   0.47619048 -0.23809524  0.00000000       0.007
   0.48979592 -0.24489796  0.00000000       0.007
   0.50340136 -0.25170068  0.00000000       0.007
   0.51700680 -0.25850340  0.00000000       0.007
   0.53061224 -0.26530612  0.00000000       0.007
   0.54421769 -0.27210884  0.00000000       0.007
   0.55782313 -0.27891156  0.00000000       0.007
   0.57142857 -0.28571429  0.00000000       0.007
   0.58503401 -0.29251701  0.00000000       0.007
   0.59863946 -0.29931973  0.00000000       0.007
   0.61224490 -0.30612245  0.00000000       0.007
   0.62585034 -0.31292517  0.00000000       0.007
   0.63945578 -0.31972789  0.00000000       0.007
   0.65306122 -0.32653061  0.00000000       0.007
   0.66666667 -0.33333333  0.00000000       0.007
   0.66666667 -0.33333333  0.00000000       0.007
   0.65986395 -0.31972789  0.00000000       0.007
   0.65306122 -0.30612245  0.00000000       0.007
   0.64625850 -0.29251701  0.00000000       0.007
   0.63945578 -0.27891156  0.00000000       0.007
   0.63265306 -0.26530612  0.00000000       0.007
   0.62585034 -0.25170068  0.00000000       0.007
   0.61904762 -0.23809524  0.00000000       0.007
   0.61224490 -0.22448980  0.00000000       0.007
   0.60544218 -0.21088435  0.00000000       0.007
   0.59863946 -0.19727891  0.00000000       0.007
   0.59183673 -0.18367347  0.00000000       0.007
   0.58503401 -0.17006803  0.00000000       0.007
   0.57823129 -0.15646259  0.00000000       0.007
   0.57142857 -0.14285714  0.00000000       0.007
   0.56462585 -0.12925170  0.00000000       0.007
   0.55782313 -0.11564626  0.00000000       0.007
   0.55102041 -0.10204082  0.00000000       0.007
   0.54421769 -0.08843537  0.00000000       0.007
   0.53741497 -0.07482993  0.00000000       0.007
   0.53061224 -0.06122449  0.00000000       0.007
   0.52380952 -0.04761905  0.00000000       0.007
   0.51700680 -0.03401361  0.00000000       0.007
   0.51020408 -0.02040816  0.00000000       0.007
   0.50340136 -0.00680272  0.00000000       0.007
   0.49659864  0.00680272  0.00000000       0.007
   0.48979592  0.02040816  0.00000000       0.007
   0.48299320  0.03401361  0.00000000       0.007
   0.47619048  0.04761905  0.00000000       0.007
   0.46938776  0.06122449  0.00000000       0.007
   0.46258503  0.07482993  0.00000000       0.007
   0.45578231  0.08843537  0.00000000       0.007
   0.44897959  0.10204082  0.00000000       0.007
   0.44217687  0.11564626  0.00000000       0.007
   0.43537415  0.12925170  0.00000000       0.007
   0.42857143  0.14285714  0.00000000       0.007
   0.42176871  0.15646259  0.00000000       0.007
   0.41496599  0.17006803  0.00000000       0.007
   0.40816327  0.18367347  0.00000000       0.007
   0.40136054  0.19727891  0.00000000       0.007
   0.39455782  0.21088435  0.00000000       0.007
   0.38775510  0.22448980  0.00000000       0.007
   0.38095238  0.23809524  0.00000000       0.007
   0.37414966  0.25170068  0.00000000       0.007
   0.36734694  0.26530612  0.00000000       0.007
   0.36054422  0.27891156  0.00000000       0.007
   0.35374150  0.29251701  0.00000000       0.007
   0.34693878  0.30612245  0.00000000       0.007
   0.34013605  0.31972789  0.00000000       0.007
   0.33333333  0.33333333  0.00000000       0.007
   0.33333333  0.33333333  0.00000000       0.007
   0.32653061  0.32653061  0.00000000       0.007
   0.31972789  0.31972789  0.00000000       0.007
   0.31292517  0.31292517  0.00000000       0.007
   0.30612245  0.30612245  0.00000000       0.007
   0.29931973  0.29931973  0.00000000       0.007
   0.29251701  0.29251701  0.00000000       0.007
   0.28571429  0.28571429  0.00000000       0.007
   0.27891156  0.27891156  0.00000000       0.007
   0.27210884  0.27210884  0.00000000       0.007
   0.26530612  0.26530612  0.00000000       0.007
   0.25850340  0.25850340  0.00000000       0.007
   0.25170068  0.25170068  0.00000000       0.007
   0.24489796  0.24489796  0.00000000       0.007
   0.23809524  0.23809524  0.00000000       0.007
   0.23129252  0.23129252  0.00000000       0.007
   0.22448980  0.22448980  0.00000000       0.007
   0.21768707  0.21768707  0.00000000       0.007
   0.21088435  0.21088435  0.00000000       0.007
   0.20408163  0.20408163  0.00000000       0.007
   0.19727891  0.19727891  0.00000000       0.007
   0.19047619  0.19047619  0.00000000       0.007
   0.18367347  0.18367347  0.00000000       0.007
   0.17687075  0.17687075  0.00000000       0.007
   0.17006803  0.17006803  0.00000000       0.007
   0.16326531  0.16326531  0.00000000       0.007
   0.15646259  0.15646259  0.00000000       0.007
   0.14965986  0.14965986  0.00000000       0.007
   0.14285714  0.14285714  0.00000000       0.007
   0.13605442  0.13605442  0.00000000       0.007
   0.12925170  0.12925170  0.00000000       0.007
   0.12244898  0.12244898  0.00000000       0.007
   0.11564626  0.11564626  0.00000000       0.007
   0.10884354  0.10884354  0.00000000       0.007
   0.10204082  0.10204082  0.00000000       0.007
   0.09523810  0.09523810  0.00000000       0.007
   0.08843537  0.08843537  0.00000000       0.007
   0.08163265  0.08163265  0.00000000       0.007
   0.07482993  0.07482993  0.00000000       0.007
   0.06802721  0.06802721  0.00000000       0.007
   0.06122449  0.06122449  0.00000000       0.007
   0.05442177  0.05442177  0.00000000       0.007
   0.04761905  0.04761905  0.00000000       0.007
   0.04081633  0.04081633  0.00000000       0.007
   0.03401361  0.03401361  0.00000000       0.007
   0.02721088  0.02721088  0.00000000       0.007
   0.02040816  0.02040816  0.00000000       0.007
   0.01360544  0.01360544  0.00000000       0.007
   0.00680272  0.00680272  0.00000000       0.007
   0.00000000  0.00000000  0.00000000       0.007
 
 position of ions in fractional coordinates (direct lattice) 
   0.66666667  0.33333333  0.44862540
   0.33333333  0.66666667  0.55137460
 
 position of ions in cartesian coordinates  (Angst):
   2.05668327  1.18742664  7.17800637
   0.00000000  2.37485328  8.82199363
 
 Euler angles ALPHA=     0.0000000  BETA=     0.0000000

 transformation matrix from SAXIS to cartesian coordinates
 ---------------------------------------------------------
     1.0000000 m_x     0.0000000 m_y     0.0000000 m_z
     0.0000000 m_x     1.0000000 m_y     0.0000000 m_z
     0.0000000 m_x     0.0000000 m_y     1.0000000 m_z

 transformation matrix from cartesian coordinates to SAXIS
 ---------------------------------------------------------
     1.0000000 m_x     0.0000000 m_y     0.0000000 m_z
     0.0000000 m_x     1.0000000 m_y     0.0000000 m_z
     0.0000000 m_x     0.0000000 m_y     1.0000000 m_z




--------------------------------------------------------------------------------------------------------


 k-point   1 :   0.0000 0.0000 0.0000  plane waves:    2906
 k-point   2 :   0.0136-0.0068 0.0000  plane waves:    2906
 k-point   3 :   0.0272-0.0136 0.0000  plane waves:    2898
 k-point   4 :   0.0408-0.0204 0.0000  plane waves:    2890
 k-point   5 :   0.0544-0.0272 0.0000  plane waves:    2870
 k-point   6 :   0.0680-0.0340 0.0000  plane waves:    2866
 k-point   7 :   0.0816-0.0408 0.0000  plane waves:    2874
 k-point   8 :   0.0952-0.0476 0.0000  plane waves:    2882
 k-point   9 :   0.1088-0.0544 0.0000  plane waves:    2870
 k-point  10 :   0.1224-0.0612 0.0000  plane waves:    2878
 k-point  11 :   0.1361-0.0680 0.0000  plane waves:    2894
 k-point  12 :   0.1497-0.0748 0.0000  plane waves:    2886
 k-point  13 :   0.1633-0.0816 0.0000  plane waves:    2902
 k-point  14 :   0.1769-0.0884 0.0000  plane waves:    2902
 k-point  15 :   0.1905-0.0952 0.0000  plane waves:    2898
 k-point  16 :   0.2041-0.1020 0.0000  plane waves:    2886
 k-point  17 :   0.2177-0.1088 0.0000  plane waves:    2878
 k-point  18 :   0.2313-0.1156 0.0000  plane waves:    2886
 k-point  19 :   0.2449-0.1224 0.0000  plane waves:    2894
 k-point  20 :   0.2585-0.1293 0.0000  plane waves:    2894
 k-point  21 :   0.2721-0.1361 0.0000  plane waves:    2894
 k-point  22 :   0.2857-0.1429 0.0000  plane waves:    2894
 k-point  23 :   0.2993-0.1497 0.0000  plane waves:    2890
 k-point  24 :   0.3129-0.1565 0.0000  plane waves:    2894
 k-point  25 :   0.3265-0.1633 0.0000  plane waves:    2886
 k-point  26 :   0.3401-0.1701 0.0000  plane waves:    2878
 k-point  27 :   0.3537-0.1769 0.0000  plane waves:    2878
 k-point  28 :   0.3673-0.1837 0.0000  plane waves:    2866
 k-point  29 :   0.3810-0.1905 0.0000  plane waves:    2878
 k-point  30 :   0.3946-0.1973 0.0000  plane waves:    2886
 k-point  31 :   0.4082-0.2041 0.0000  plane waves:    2882
 k-point  32 :   0.4218-0.2109 0.0000  plane waves:    2874
 k-point  33 :   0.4354-0.2177 0.0000  plane waves:    2874
 k-point  34 :   0.4490-0.2245 0.0000  plane waves:    2882
 k-point  35 :   0.4626-0.2313 0.0000  plane waves:    2866
 k-point  36 :   0.4762-0.2381 0.0000  plane waves:    2874
 k-point  37 :   0.4898-0.2449 0.0000  plane waves:    2862
 k-point  38 :   0.5034-0.2517 0.0000  plane waves:    2858
 k-point  39 :   0.5170-0.2585 0.0000  plane waves:    2842
 k-point  40 :   0.5306-0.2653 0.0000  plane waves:    2822
 k-point  41 :   0.5442-0.2721 0.0000  plane waves:    2822
 k-point  42 :   0.5578-0.2789 0.0000  plane waves:    2818
 k-point  43 :   0.5714-0.2857 0.0000  plane waves:    2818
 k-point  44 :   0.5850-0.2925 0.0000  plane waves:    2810
 k-point  45 :   0.5986-0.2993 0.0000  plane waves:    2818
 k-point  46 :   0.6122-0.3061 0.0000  plane waves:    2810
 k-point  47 :   0.6259-0.3129 0.0000  plane waves:    2802
 k-point  48 :   0.6395-0.3197 0.0000  plane waves:    2786
 k-point  49 :   0.6531-0.3265 0.0000  plane waves:    2786
 k-point  50 :   0.6667-0.3333 0.0000  plane waves:    2772
 k-point  51 :   0.6667-0.3333 0.0000  plane waves:    2772
 k-point  52 :   0.6599-0.3197 0.0000  plane waves:    2788
 k-point  53 :   0.6531-0.3061 0.0000  plane waves:    2796
 k-point  54 :   0.6463-0.2925 0.0000  plane waves:    2820
 k-point  55 :   0.6395-0.2789 0.0000  plane waves:    2812
 k-point  56 :   0.6327-0.2653 0.0000  plane waves:    2828
 k-point  57 :   0.6259-0.2517 0.0000  plane waves:    2840
 k-point  58 :   0.6190-0.2381 0.0000  plane waves:    2832
 k-point  59 :   0.6122-0.2245 0.0000  plane waves:    2832
 k-point  60 :   0.6054-0.2109 0.0000  plane waves:    2832
 k-point  61 :   0.5986-0.1973 0.0000  plane waves:    2848
 k-point  62 :   0.5918-0.1837 0.0000  plane waves:    2840
 k-point  63 :   0.5850-0.1701 0.0000  plane waves:    2840
 k-point  64 :   0.5782-0.1565 0.0000  plane waves:    2856
 k-point  65 :   0.5714-0.1429 0.0000  plane waves:    2848
 k-point  66 :   0.5646-0.1293 0.0000  plane waves:    2864
 k-point  67 :   0.5578-0.1156 0.0000  plane waves:    2884
 k-point  68 :   0.5510-0.1020 0.0000  plane waves:    2884
 k-point  69 :   0.5442-0.0884 0.0000  plane waves:    2884
 k-point  70 :   0.5374-0.0748 0.0000  plane waves:    2892
 k-point  71 :   0.5306-0.0612 0.0000  plane waves:    2892
 k-point  72 :   0.5238-0.0476 0.0000  plane waves:    2884
 k-point  73 :   0.5170-0.0340 0.0000  plane waves:    2884
 k-point  74 :   0.5102-0.0204 0.0000  plane waves:    2880
 k-point  75 :   0.5034-0.0068 0.0000  plane waves:    2880
 k-point  76 :   0.4966 0.0068 0.0000  plane waves:    2880
 k-point  77 :   0.4898 0.0204 0.0000  plane waves:    2880
 k-point  78 :   0.4830 0.0340 0.0000  plane waves:    2884
 k-point  79 :   0.4762 0.0476 0.0000  plane waves:    2884
 k-point  80 :   0.4694 0.0612 0.0000  plane waves:    2892
 k-point  81 :   0.4626 0.0748 0.0000  plane waves:    2892
 k-point  82 :   0.4558 0.0884 0.0000  plane waves:    2884
 k-point  83 :   0.4490 0.1020 0.0000  plane waves:    2884
 k-point  84 :   0.4422 0.1156 0.0000  plane waves:    2884
 k-point  85 :   0.4354 0.1293 0.0000  plane waves:    2864
 k-point  86 :   0.4286 0.1429 0.0000  plane waves:    2848
 k-point  87 :   0.4218 0.1565 0.0000  plane waves:    2856
 k-point  88 :   0.4150 0.1701 0.0000  plane waves:    2840
 k-point  89 :   0.4082 0.1837 0.0000  plane waves:    2840
 k-point  90 :   0.4014 0.1973 0.0000  plane waves:    2848
 k-point  91 :   0.3946 0.2109 0.0000  plane waves:    2832
 k-point  92 :   0.3878 0.2245 0.0000  plane waves:    2832
 k-point  93 :   0.3810 0.2381 0.0000  plane waves:    2832
 k-point  94 :   0.3741 0.2517 0.0000  plane waves:    2840
 k-point  95 :   0.3673 0.2653 0.0000  plane waves:    2828
 k-point  96 :   0.3605 0.2789 0.0000  plane waves:    2812
 k-point  97 :   0.3537 0.2925 0.0000  plane waves:    2820
 k-point  98 :   0.3469 0.3061 0.0000  plane waves:    2796
 k-point  99 :   0.3401 0.3197 0.0000  plane waves:    2788
 k-point 100 :   0.3333 0.3333 0.0000  plane waves:    2772
 k-point 101 :   0.3333 0.3333 0.0000  plane waves:    2772
 k-point 102 :   0.3265 0.3265 0.0000  plane waves:    2786
 k-point 103 :   0.3197 0.3197 0.0000  plane waves:    2786
 k-point 104 :   0.3129 0.3129 0.0000  plane waves:    2802
 k-point 105 :   0.3061 0.3061 0.0000  plane waves:    2810
 k-point 106 :   0.2993 0.2993 0.0000  plane waves:    2818
 k-point 107 :   0.2925 0.2925 0.0000  plane waves:    2810
 k-point 108 :   0.2857 0.2857 0.0000  plane waves:    2818
 k-point 109 :   0.2789 0.2789 0.0000  plane waves:    2818
 k-point 110 :   0.2721 0.2721 0.0000  plane waves:    2822
 k-point 111 :   0.2653 0.2653 0.0000  plane waves:    2822
 k-point 112 :   0.2585 0.2585 0.0000  plane waves:    2842
 k-point 113 :   0.2517 0.2517 0.0000  plane waves:    2858
 k-point 114 :   0.2449 0.2449 0.0000  plane waves:    2862
 k-point 115 :   0.2381 0.2381 0.0000  plane waves:    2874
 k-point 116 :   0.2313 0.2313 0.0000  plane waves:    2866
 k-point 117 :   0.2245 0.2245 0.0000  plane waves:    2882
 k-point 118 :   0.2177 0.2177 0.0000  plane waves:    2874
 k-point 119 :   0.2109 0.2109 0.0000  plane waves:    2874
 k-point 120 :   0.2041 0.2041 0.0000  plane waves:    2882
 k-point 121 :   0.1973 0.1973 0.0000  plane waves:    2886
 k-point 122 :   0.1905 0.1905 0.0000  plane waves:    2878
 k-point 123 :   0.1837 0.1837 0.0000  plane waves:    2866
 k-point 124 :   0.1769 0.1769 0.0000  plane waves:    2878
 k-point 125 :   0.1701 0.1701 0.0000  plane waves:    2878
 k-point 126 :   0.1633 0.1633 0.0000  plane waves:    2886
 k-point 127 :   0.1565 0.1565 0.0000  plane waves:    2894
 k-point 128 :   0.1497 0.1497 0.0000  plane waves:    2890
 k-point 129 :   0.1429 0.1429 0.0000  plane waves:    2894
 k-point 130 :   0.1361 0.1361 0.0000  plane waves:    2894
 k-point 131 :   0.1293 0.1293 0.0000  plane waves:    2894
 k-point 132 :   0.1224 0.1224 0.0000  plane waves:    2894
 k-point 133 :   0.1156 0.1156 0.0000  plane waves:    2886
 k-point 134 :   0.1088 0.1088 0.0000  plane waves:    2878
 k-point 135 :   0.1020 0.1020 0.0000  plane waves:    2886
 k-point 136 :   0.0952 0.0952 0.0000  plane waves:    2898
 k-point 137 :   0.0884 0.0884 0.0000  plane waves:    2902
 k-point 138 :   0.0816 0.0816 0.0000  plane waves:    2902
 k-point 139 :   0.0748 0.0748 0.0000  plane waves:    2886
 k-point 140 :   0.0680 0.0680 0.0000  plane waves:    2894
 k-point 141 :   0.0612 0.0612 0.0000  plane waves:    2878
 k-point 142 :   0.0544 0.0544 0.0000  plane waves:    2870
 k-point 143 :   0.0476 0.0476 0.0000  plane waves:    2882
 k-point 144 :   0.0408 0.0408 0.0000  plane waves:    2874
 k-point 145 :   0.0340 0.0340 0.0000  plane waves:    2866
 k-point 146 :   0.0272 0.0272 0.0000  plane waves:    2870
 k-point 147 :   0.0204 0.0204 0.0000  plane waves:    2890
 k-point 148 :   0.0136 0.0136 0.0000  plane waves:    2898
 k-point 149 :   0.0068 0.0068 0.0000  plane waves:    2906
 k-point 150 :   0.0000 0.0000 0.0000  plane waves:    2906

 maximum and minimum number of plane-waves per node :       736      686

 maximum number of plane-waves:      2906
 maximum index in each direction: 
   IXMAX=    4   IYMAX=    4   IZMAX=   18
   IXMIN=   -5   IYMIN=   -4   IZMIN=  -18


 parallel 3D FFT for wavefunctions:
    minimum data exchange during FFTs selected (reduces bandwidth)
 parallel 3D FFT for charge:
    minimum data exchange during FFTs selected (reduces bandwidth)


 total amount of memory used by VASP MPI-rank0    69759. kBytes
=======================================================================

   base      :      30000. kBytes
   nonl-proj :      13989. kBytes
   fftplans  :       5044. kBytes
   grid      :       5324. kBytes
   one-center:        196. kBytes
   wavefun   :      15206. kBytes
 
     INWAV:  cpu time      0.0000: real time      0.0000
 initial charge density was supplied:
 number of electron      10.0000000 magnetization      -0.0000673     -0.0000674     -0.0000685
 keeping initial charge density in first step


--------------------------------------------------------------------------------------------------------


 Maximum index for augmentation-charges         3590 (set IRDMAX)


--------------------------------------------------------------------------------------------------------


 First call to EWALD:  gamma=   0.287
 Maximum number of real-space cells 4x 4x 1
 Maximum number of reciprocal cells 2x 2x 6

    FEWALD:  cpu time      0.0012: real time      0.0012


--------------------------------------- Ionic step        1  -------------------------------------------




--------------------------------------- Iteration      1(   1)  ---------------------------------------


    POTLOK:  cpu time      0.0516: real time      0.1386
    SETDIJ:  cpu time      1.9724: real time      1.9732
     EDDAV:  cpu time      4.7506: real time      4.7564
       DOS:  cpu time      0.0078: real time      0.0078
    --------------------------------------------
      LOOP:  cpu time      6.7824: real time      6.8759

 eigenvalue-minimisations  :  9680
 total energy-change (2. order) : 0.3398259E+02  (-0.1483895E+03)
 number of electron      10.0000000 magnetization      -0.0000673     -0.0000674     -0.0000685
 augmentation part       10.0000000 magnetization      -0.0000673     -0.0000674     -0.0000685

 Free energy of the ion-electron system (eV)
  ---------------------------------------------------
  alpha Z        PSCENC =         2.97593478
  Ewald energy   TEWEN  =       213.91894841
  -Hartree energ DENC   =      -472.99248438
  -exchange      EXHF   =         0.00000000
  -V(xc)+E(xc)   XCENC  =       -92.30401033
  PAW double counting   =       366.51953697     -258.76151351
  entropy T*S    EENTRO =        -0.00007889
  eigenvalues    EBANDS =       -25.26591167
  atomic energy  EATOM  =       299.89217194
  Solvation  Ediel_sol  =         0.00000000
  ---------------------------------------------------
  free energy    TOTEN  =        33.98259331 eV

  energy without entropy =       33.98267220  energy(sigma->0) =       33.98263276


--------------------------------------------------------------------------------------------------------




--------------------------------------- Iteration      1(   2)  ---------------------------------------


     EDDAV:  cpu time      6.2395: real time      6.2460
       DOS:  cpu time      0.0065: real time      0.0065
    --------------------------------------------
      LOOP:  cpu time      6.2460: real time      6.2525

 eigenvalue-minimisations  : 14136
 total energy-change (2. order) :-0.3872897E+02  (-0.3582325E+02)
 number of electron      10.0000000 magnetization      -0.0000673     -0.0000674     -0.0000685
 augmentation part       10.0000000 magnetization      -0.0000673     -0.0000674     -0.0000685

 Free energy of the ion-electron system (eV)
  ---------------------------------------------------
  alpha Z        PSCENC =         2.97593478
  Ewald energy   TEWEN  =       213.91894841
  -Hartree energ DENC   =      -472.99248438
  -exchange      EXHF   =         0.00000000
  -V(xc)+E(xc)   XCENC  =       -92.30401033
  PAW double counting   =       366.51953697     -258.76151351
  entropy T*S    EENTRO =        -0.00000000
  eigenvalues    EBANDS =       -63.99496111
  atomic energy  EATOM  =       299.89217194
  Solvation  Ediel_sol  =         0.00000000
  ---------------------------------------------------
  free energy    TOTEN  =        -4.74637724 eV

  energy without entropy =       -4.74637724  energy(sigma->0) =       -4.74637724


--------------------------------------------------------------------------------------------------------




--------------------------------------- Iteration      1(   3)  ---------------------------------------


     EDDAV:  cpu time      5.7715: real time      5.7783
       DOS:  cpu time      0.0067: real time      0.0067
    --------------------------------------------
      LOOP:  cpu time      5.7781: real time      5.7850

 eigenvalue-minimisations  : 12744
 total energy-change (2. order) :-0.3371181E+01  (-0.3334413E+01)
 number of electron      10.0000000 magnetization      -0.0000673     -0.0000674     -0.0000685
 augmentation part       10.0000000 magnetization      -0.0000673     -0.0000674     -0.0000685

 Free energy of the ion-electron system (eV)
  ---------------------------------------------------
  alpha Z        PSCENC =         2.97593478
  Ewald energy   TEWEN  =       213.91894841
  -Hartree energ DENC   =      -472.99248438
  -exchange      EXHF   =         0.00000000
  -V(xc)+E(xc)   XCENC  =       -92.30401033
  PAW double counting   =       366.51953697     -258.76151351
  entropy T*S    EENTRO =        -0.00000000
  eigenvalues    EBANDS =       -67.36614224
  atomic energy  EATOM  =       299.89217194
  Solvation  Ediel_sol  =         0.00000000
  ---------------------------------------------------
  free energy    TOTEN  =        -8.11755837 eV

  energy without entropy =       -8.11755837  energy(sigma->0) =       -8.11755837


--------------------------------------------------------------------------------------------------------




--------------------------------------- Iteration      1(   4)  ---------------------------------------


     EDDAV:  cpu time      6.2557: real time      6.2623
       DOS:  cpu time      0.0065: real time      0.0065
    --------------------------------------------
      LOOP:  cpu time      6.2622: real time      6.2688

 eigenvalue-minimisations  : 14280
 total energy-change (2. order) :-0.1257103E+00  (-0.1256334E+00)
 number of electron      10.0000000 magnetization      -0.0000673     -0.0000674     -0.0000685
 augmentation part       10.0000000 magnetization      -0.0000673     -0.0000674     -0.0000685

 Free energy of the ion-electron system (eV)
  ---------------------------------------------------
  alpha Z        PSCENC =         2.97593478
  Ewald energy   TEWEN  =       213.91894841
  -Hartree energ DENC   =      -472.99248438
  -exchange      EXHF   =         0.00000000
  -V(xc)+E(xc)   XCENC  =       -92.30401033
  PAW double counting   =       366.51953697     -258.76151351
  entropy T*S    EENTRO =        -0.00000000
  eigenvalues    EBANDS =       -67.49185258
  atomic energy  EATOM  =       299.89217194
  Solvation  Ediel_sol  =         0.00000000
  ---------------------------------------------------
  free energy    TOTEN  =        -8.24326871 eV

  energy without entropy =       -8.24326871  energy(sigma->0) =       -8.24326871


--------------------------------------------------------------------------------------------------------




--------------------------------------- Iteration      1(   5)  ---------------------------------------


     EDDAV:  cpu time      5.6437: real time      5.6495
       DOS:  cpu time      0.0065: real time      0.0065



 total charge

# of ion       s       p       d       f       tot
--------------------------------------------------
    1        1.577   1.843   0.081   0.012   3.513
    2        1.577   1.843   0.081   0.012   3.513
--------------------------------------------------
tot          3.153   3.687   0.161   0.024   7.025



 magnetization (x)

# of ion       s       p       d       f       tot
--------------------------------------------------
    1       -0.001   0.002  -0.000  -0.000   0.001
    2        0.001  -0.002   0.000   0.000  -0.001
--------------------------------------------------
tot         -0.000  -0.000  -0.000  -0.000  -0.000



 magnetization (y)

# of ion       s       p       d       f       tot
--------------------------------------------------
    1        0.002  -0.003   0.000   0.000  -0.001
    2       -0.002   0.003  -0.000  -0.000   0.001
--------------------------------------------------
tot          0.000  -0.000  -0.000  -0.000  -0.000



 magnetization (z)

# of ion       s       p       d       f       tot
--------------------------------------------------
    1        0.000  -0.000  -0.000   0.000  -0.000
    2        0.000  -0.000   0.000  -0.000  -0.000
--------------------------------------------------
tot          0.000  -0.000   0.000  -0.000  -0.000
 
    --------------------------------------------
      LOOP:  cpu time      5.6746: real time      5.6804

 eigenvalue-minimisations  : 12416
 total energy-change (2. order) :-0.2368372E-02  (-0.2368282E-02)
 number of electron      10.0000000 magnetization      -0.0000673     -0.0000674     -0.0000685
 augmentation part       10.0000000 magnetization      -0.0000673     -0.0000674     -0.0000685

 Free energy of the ion-electron system (eV)
  ---------------------------------------------------
  alpha Z        PSCENC =         2.97593478
  Ewald energy   TEWEN  =       213.91894841
  -Hartree energ DENC   =      -472.99248438
  -exchange      EXHF   =         0.00000000
  -V(xc)+E(xc)   XCENC  =       -92.30401033
  PAW double counting   =       366.51953697     -258.76151351
  entropy T*S    EENTRO =        -0.00000000
  eigenvalues    EBANDS =       -67.49422095
  atomic energy  EATOM  =       299.89217194
  Solvation  Ediel_sol  =         0.00000000
  ---------------------------------------------------
  free energy    TOTEN  =        -8.24563708 eV

  energy without entropy =       -8.24563708  energy(sigma->0) =       -8.24563708


--------------------------------------------------------------------------------------------------------




--------------------------------------- Iteration      1(   6)  ---------------------------------------


     EDDAV:  cpu time      6.4318: real time      6.4386
       DOS:  cpu time      0.0065: real time      0.0065
    --------------------------------------------
      LOOP:  cpu time      6.4139: real time      6.4207

 eigenvalue-minimisations  : 14752
 total energy-change (2. order) :-0.4162919E-04  (-0.4162887E-04)
 number of electron      10.0000000 magnetization      -0.0000673     -0.0000674     -0.0000685
 augmentation part       10.0000000 magnetization      -0.0000673     -0.0000674     -0.0000685

 Free energy of the ion-electron system (eV)
  ---------------------------------------------------
  alpha Z        PSCENC =         2.97593478
  Ewald energy   TEWEN  =       213.91894841
  -Hartree energ DENC   =      -472.99248438
  -exchange      EXHF   =         0.00000000
  -V(xc)+E(xc)   XCENC  =       -92.30401033
  PAW double counting   =       366.51953697     -258.76151351
  entropy T*S    EENTRO =        -0.00000000
  eigenvalues    EBANDS =       -67.49426258
  atomic energy  EATOM  =       299.89217194
  Solvation  Ediel_sol  =         0.00000000
  ---------------------------------------------------
  free energy    TOTEN  =        -8.24567871 eV

  energy without entropy =       -8.24567871  energy(sigma->0) =       -8.24567871


--------------------------------------------------------------------------------------------------------




--------------------------------------- Iteration      1(   7)  ---------------------------------------


     EDDAV:  cpu time      5.6372: real time      5.6431
       DOS:  cpu time      0.0065: real time      0.0065
    --------------------------------------------
      LOOP:  cpu time      5.6437: real time      5.6496

 eigenvalue-minimisations  : 12464
 total energy-change (2. order) :-0.7131397E-06  (-0.7131894E-06)
 number of electron      10.0000000 magnetization      -0.0000673     -0.0000674     -0.0000685
 augmentation part       10.0000000 magnetization      -0.0000673     -0.0000674     -0.0000685

 Free energy of the ion-electron system (eV)
  ---------------------------------------------------
  alpha Z        PSCENC =         2.97593478
  Ewald energy   TEWEN  =       213.91894841
  -Hartree energ DENC   =      -472.99248438
  -exchange      EXHF   =         0.00000000
  -V(xc)+E(xc)   XCENC  =       -92.30401033
  PAW double counting   =       366.51953697     -258.76151351
  entropy T*S    EENTRO =        -0.00000000
  eigenvalues    EBANDS =       -67.49426330
  atomic energy  EATOM  =       299.89217194
  Solvation  Ediel_sol  =         0.00000000
  ---------------------------------------------------
  free energy    TOTEN  =        -8.24567943 eV

  energy without entropy =       -8.24567943  energy(sigma->0) =       -8.24567943


--------------------------------------------------------------------------------------------------------




--------------------------------------- Iteration      1(   8)  ---------------------------------------


     EDDAV:  cpu time      4.6764: real time      4.6815
       DOS:  cpu time      0.0066: real time      0.0066
    --------------------------------------------
      LOOP:  cpu time      4.6830: real time      4.6881

 eigenvalue-minimisations  :  9320
 total energy-change (2. order) :-0.4712376E-08  (-0.4690173E-08)
 number of electron      10.0000000 magnetization      -0.0000673     -0.0000674     -0.0000685
 augmentation part       10.0000000 magnetization      -0.0000673     -0.0000674     -0.0000685

 Free energy of the ion-electron system (eV)
  ---------------------------------------------------
  alpha Z        PSCENC =         2.97593478
  Ewald energy   TEWEN  =       213.91894841
  -Hartree energ DENC   =      -472.99248438
  -exchange      EXHF   =         0.00000000
  -V(xc)+E(xc)   XCENC  =       -92.30401033
  PAW double counting   =       366.51953697     -258.76151351
  entropy T*S    EENTRO =        -0.00000000
  eigenvalues    EBANDS =       -67.49426330
  atomic energy  EATOM  =       299.89217194
  Solvation  Ediel_sol  =         0.00000000
  ---------------------------------------------------
  free energy    TOTEN  =        -8.24567943 eV

  energy without entropy =       -8.24567943  energy(sigma->0) =       -8.24567943


--------------------------------------------------------------------------------------------------------




--------------------------------------- Iteration      1(   9)  ---------------------------------------


     EDDAV:  cpu time      4.2603: real time      4.2650
       DOS:  cpu time      0.0065: real time      0.0065
    --------------------------------------------
      LOOP:  cpu time      4.2668: real time      4.2715

 eigenvalue-minimisations  :  8048
 total energy-change (2. order) :-0.7681820E-09  (-0.7523998E-09)
 number of electron      10.0000000 magnetization      -0.0000673     -0.0000674     -0.0000685
 augmentation part       10.0000000 magnetization      -0.0000673     -0.0000674     -0.0000685

 Free energy of the ion-electron system (eV)
  ---------------------------------------------------
  alpha Z        PSCENC =         2.97593478
  Ewald energy   TEWEN  =       213.91894841
  -Hartree energ DENC   =      -472.99248438
  -exchange      EXHF   =         0.00000000
  -V(xc)+E(xc)   XCENC  =       -92.30401033
  PAW double counting   =       366.51953697     -258.76151351
  entropy T*S    EENTRO =        -0.00000000
  eigenvalues    EBANDS =       -67.49426330
  atomic energy  EATOM  =       299.89217194
  Solvation  Ediel_sol  =         0.00000000
  ---------------------------------------------------
  free energy    TOTEN  =        -8.24567943 eV

  energy without entropy =       -8.24567943  energy(sigma->0) =       -8.24567943


--------------------------------------------------------------------------------------------------------




--------------------------------------- Iteration      1(  10)  ---------------------------------------


     EDDAV:  cpu time      4.2778: real time      4.2824
       DOS:  cpu time      0.0066: real time      0.0066



 total charge

# of ion       s       p       d       f       tot
--------------------------------------------------
    1        1.577   1.843   0.081   0.012   3.513
    2        1.577   1.843   0.081   0.012   3.513
--------------------------------------------------
tot          3.154   3.687   0.161   0.024   7.026



 magnetization (x)

# of ion       s       p       d       f       tot
--------------------------------------------------
    1       -0.001   0.002  -0.000  -0.000   0.001
    2        0.001  -0.002   0.000   0.000  -0.001
--------------------------------------------------
tot         -0.000  -0.000  -0.000  -0.000  -0.000



 magnetization (y)

# of ion       s       p       d       f       tot
--------------------------------------------------
    1        0.002  -0.003   0.000   0.000  -0.001
    2       -0.002   0.003  -0.000  -0.000   0.001
--------------------------------------------------
tot         -0.000  -0.000  -0.000  -0.000  -0.000



 magnetization (z)

# of ion       s       p       d       f       tot
--------------------------------------------------
    1       -0.000  -0.000  -0.000  -0.000  -0.000
    2       -0.000  -0.000  -0.000  -0.000  -0.000
--------------------------------------------------
tot         -0.000  -0.000  -0.000  -0.000  -0.000
 
    --------------------------------------------
      LOOP:  cpu time      4.3086: real time      4.3132

 eigenvalue-minimisations  :  8104
 total energy-change (2. order) :-0.2809770E-09  (-0.2934814E-09)
 number of electron      10.0000000 magnetization      -0.0000673     -0.0000674     -0.0000685
 augmentation part       10.0000000 magnetization      -0.0000673     -0.0000674     -0.0000685

 Free energy of the ion-electron system (eV)
  ---------------------------------------------------
  alpha Z        PSCENC =         2.97593478
  Ewald energy   TEWEN  =       213.91894841
  -Hartree energ DENC   =      -472.99248438
  -exchange      EXHF   =         0.00000000
  -V(xc)+E(xc)   XCENC  =       -92.30401033
  PAW double counting   =       366.51953697     -258.76151351
  entropy T*S    EENTRO =        -0.00000000
  eigenvalues    EBANDS =       -67.49426330
  atomic energy  EATOM  =       299.89217194
  Solvation  Ediel_sol  =         0.00000000
  ---------------------------------------------------
  free energy    TOTEN  =        -8.24567943 eV

  energy without entropy =       -8.24567943  energy(sigma->0) =       -8.24567943


--------------------------------------------------------------------------------------------------------




--------------------------------------- Iteration      1(  11)  ---------------------------------------


     EDDAV:  cpu time      4.0117: real time      4.0159
       DOS:  cpu time      0.0066: real time      0.0066
    --------------------------------------------
      LOOP:  cpu time      3.9941: real time      3.9983

 eigenvalue-minimisations  :  7200
 total energy-change (2. order) :-0.1491571E-09  (-0.1401459E-09)
 number of electron      10.0000000 magnetization      -0.0000673     -0.0000674     -0.0000685
 augmentation part       10.0000000 magnetization      -0.0000673     -0.0000674     -0.0000685

 Free energy of the ion-electron system (eV)
  ---------------------------------------------------
  alpha Z        PSCENC =         2.97593478
  Ewald energy   TEWEN  =       213.91894841
  -Hartree energ DENC   =      -472.99248438
  -exchange      EXHF   =         0.00000000
  -V(xc)+E(xc)   XCENC  =       -92.30401033
  PAW double counting   =       366.51953697     -258.76151351
  entropy T*S    EENTRO =        -0.00000000
  eigenvalues    EBANDS =       -67.49426330
  atomic energy  EATOM  =       299.89217194
  Solvation  Ediel_sol  =         0.00000000
  ---------------------------------------------------
  free energy    TOTEN  =        -8.24567943 eV

  energy without entropy =       -8.24567943  energy(sigma->0) =       -8.24567943


--------------------------------------------------------------------------------------------------------




--------------------------------------- Iteration      1(  12)  ---------------------------------------


     EDDAV:  cpu time      3.9617: real time      3.9659
       DOS:  cpu time      0.0061: real time      0.0061
    --------------------------------------------
      LOOP:  cpu time      3.9678: real time      3.9720

 eigenvalue-minimisations  :  7272
 total energy-change (2. order) : 0.5309175E-10  (-0.7122168E-10)
 number of electron      10.0000000 magnetization      -0.0000673     -0.0000674     -0.0000685
 augmentation part       10.0000000 magnetization      -0.0000673     -0.0000674     -0.0000685

 Free energy of the ion-electron system (eV)
  ---------------------------------------------------
  alpha Z        PSCENC =         2.97593478
  Ewald energy   TEWEN  =       213.91894841
  -Hartree energ DENC   =      -472.99248438
  -exchange      EXHF   =         0.00000000
  -V(xc)+E(xc)   XCENC  =       -92.30401033
  PAW double counting   =       366.51953697     -258.76151351
  entropy T*S    EENTRO =        -0.00000000
  eigenvalues    EBANDS =       -67.49426330
  atomic energy  EATOM  =       299.89217194
  Solvation  Ediel_sol  =         0.00000000
  ---------------------------------------------------
  free energy    TOTEN  =        -8.24567943 eV

  energy without entropy =       -8.24567943  energy(sigma->0) =       -8.24567943


--------------------------------------------------------------------------------------------------------




--------------------------------------- Iteration      1(  13)  ---------------------------------------


     EDDAV:  cpu time      2.8938: real time      2.8967
       DOS:  cpu time      0.0038: real time      0.0038
    --------------------------------------------
      LOOP:  cpu time      2.8976: real time      2.9005

 eigenvalue-minimisations  :  6752
 total energy-change (2. order) :-0.1760441E-09  (-0.3735795E-10)
 number of electron      10.0000000 magnetization      -0.0000673     -0.0000674     -0.0000685
 augmentation part       10.0000000 magnetization      -0.0000673     -0.0000674     -0.0000685

 Free energy of the ion-electron system (eV)
  ---------------------------------------------------
  alpha Z        PSCENC =         2.97593478
  Ewald energy   TEWEN  =       213.91894841
  -Hartree energ DENC   =      -472.99248438
  -exchange      EXHF   =         0.00000000
  -V(xc)+E(xc)   XCENC  =       -92.30401033
  PAW double counting   =       366.51953697     -258.76151351
  entropy T*S    EENTRO =        -0.00000000
  eigenvalues    EBANDS =       -67.49426330
  atomic energy  EATOM  =       299.89217194
  Solvation  Ediel_sol  =         0.00000000
  ---------------------------------------------------
  free energy    TOTEN  =        -8.24567943 eV

  energy without entropy =       -8.24567943  energy(sigma->0) =       -8.24567943


--------------------------------------------------------------------------------------------------------




 average (electrostatic) potential at core
  the test charge radii are     1.1712
  (the norm of the test charge is              1.0000)
       1 -80.8595       2 -80.8595
 
 
 
 E-fermi :  -1.9738     XC(G=0):  -3.3503     alpha+bet : -2.6626

 Fermi energy:        -1.9737796782

 k-point     1 :       0.0000    0.0000    0.0000
  band No.  band energies     occupation 
      1     -13.5486      1.00000
      2     -13.5486      1.00000
      3      -8.5762      1.00000
      4      -8.5761      1.00000
      5      -3.0801      1.00000
      6      -3.0801      1.00000
      7      -2.3702      1.00000
      8      -2.3702      1.00000
      9      -2.0176      1.00000
     10      -2.0175      1.00000
     11      -0.7735      0.00000
     12      -0.7733      0.00000
     13       0.2971      0.00000
     14       0.2971      0.00000
     15       0.7595      0.00000
     16       0.7595      0.00000
     17       2.0915      0.00000
     18       2.0916      0.00000
     19       2.1660      0.00000
     20       2.1661      0.00000
     21       3.6275      0.00000
     22       3.6276      0.00000
     23       4.5271      0.00000
     24       4.5271      0.00000
     25       4.8533      0.00000
     26       4.8533      0.00000
     27       5.8646      0.00000
[...]
  0.000   0.000   0.000   0.000   0.000   0.000   0.000   0.000   0.000   0.000   0.000   0.000   0.000   0.000   0.000   0.000
  0.000   0.000   0.000   0.000   0.000   0.000   0.000   0.000   0.000   0.000   0.000   0.000   0.000   0.000   0.000   0.000
  0.000   0.000   0.000   0.000   0.000   0.000   0.000   0.000   0.000   0.000   0.000   0.000   0.000   0.000   0.000   0.000
  0.000   0.000   0.000   0.000   0.000   0.000   0.000   0.000   0.000   0.000   0.000   0.000   0.000   0.000   0.000   0.000
 total augmentation occupancy for first ion, spin component:           2
  0.400   0.000   0.000   0.000   0.000   0.000   0.000   0.000   0.000   0.000   0.000   0.000   0.000   0.000   0.000   0.000
  0.000   0.000   0.000   0.000   0.000   0.000   0.000   0.000   0.000   0.000   0.000   0.000   0.000   0.000   0.000   0.000
  0.000   0.000   0.200   0.000   0.000   0.000   0.000   0.000   0.000   0.000   0.000   0.000   0.000   0.000   0.000   0.000
  0.000   0.000   0.000   0.200   0.000   0.000   0.000   0.000   0.000   0.000   0.000   0.000   0.000   0.000   0.000   0.000
  0.000   0.000   0.000   0.000   0.200   0.000   0.000   0.000   0.000   0.000   0.000   0.000   0.000   0.000   0.000   0.000
  0.000   0.000   0.000   0.000   0.000   0.000   0.000   0.000   0.000   0.000   0.000   0.000   0.000   0.000   0.000   0.000
  0.000   0.000   0.000   0.000   0.000   0.000   0.000   0.000   0.000   0.000   0.000   0.000   0.000   0.000   0.000   0.000
  0.000   0.000   0.000   0.000   0.000   0.000   0.000   0.000   0.000   0.000   0.000   0.000   0.000   0.000   0.000   0.000
  0.000   0.000   0.000   0.000   0.000   0.000   0.000   0.000   0.000   0.000   0.000   0.000   0.000   0.000   0.000   0.000
  0.000   0.000   0.000   0.000   0.000   0.000   0.000   0.000   0.000   0.000   0.000   0.000   0.000   0.000   0.000   0.000
  0.000   0.000   0.000   0.000   0.000   0.000   0.000   0.000   0.000   0.000   0.000   0.000   0.000   0.000   0.000   0.000
  0.000   0.000   0.000   0.000   0.000   0.000   0.000   0.000   0.000   0.000   0.000   0.000   0.000   0.000   0.000   0.000
  0.000   0.000   0.000   0.000   0.000   0.000   0.000   0.000   0.000   0.000   0.000   0.000   0.000   0.000   0.000   0.000
  0.000   0.000   0.000   0.000   0.000   0.000   0.000   0.000   0.000   0.000   0.000   0.000   0.000   0.000   0.000   0.000
  0.000   0.000   0.000   0.000   0.000   0.000   0.000   0.000   0.000   0.000   0.000   0.000   0.000   0.000   0.000   0.000
  0.000   0.000   0.000   0.000   0.000   0.000   0.000   0.000   0.000   0.000   0.000   0.000   0.000   0.000   0.000   0.000
  0.000   0.000   0.000   0.000   0.000   0.000   0.000   0.000   0.000   0.000   0.000   0.000   0.000   0.000   0.000   0.000
  0.000   0.000   0.000   0.000   0.000   0.000   0.000   0.000   0.000   0.000   0.000   0.000   0.000   0.000   0.000   0.000
  0.000   0.000   0.000   0.000   0.000   0.000   0.000   0.000   0.000   0.000   0.000   0.000   0.000   0.000   0.000   0.000
  0.000   0.000   0.000   0.000   0.000   0.000   0.000   0.000   0.000   0.000   0.000   0.000   0.000   0.000   0.000   0.000
  0.000   0.000   0.000   0.000   0.000   0.000   0.000   0.000   0.000   0.000   0.000   0.000   0.000   0.000   0.000   0.000
  0.000   0.000   0.000   0.000   0.000   0.000   0.000   0.000   0.000   0.000   0.000   0.000   0.000   0.000   0.000   0.000
  0.000   0.000   0.000   0.000   0.000   0.000   0.000   0.000   0.000   0.000   0.000   0.000   0.000   0.000   0.000   0.000
  0.000   0.000   0.000   0.000   0.000   0.000   0.000   0.000   0.000   0.000   0.000   0.000   0.000   0.000   0.000   0.000
  0.000   0.000   0.000   0.000   0.000   0.000   0.000   0.000   0.000   0.000   0.000   0.000   0.000   0.000   0.000   0.000
  0.000   0.000   0.000   0.000   0.000   0.000   0.000   0.000   0.000   0.000   0.000   0.000   0.000   0.000   0.000   0.000
  0.000   0.000   0.000   0.000   0.000   0.000   0.000   0.000   0.000   0.000   0.000   0.000   0.000   0.000   0.000   0.000
  0.000   0.000   0.000   0.000   0.000   0.000   0.000   0.000   0.000   0.000   0.000   0.000   0.000   0.000   0.000   0.000
  0.000   0.000   0.000   0.000   0.000   0.000   0.000   0.000   0.000   0.000   0.000   0.000   0.000   0.000   0.000   0.000
  0.000   0.000   0.000   0.000   0.000   0.000   0.000   0.000   0.000   0.000   0.000   0.000   0.000   0.000   0.000   0.000
  0.000   0.000   0.000   0.000   0.000   0.000   0.000   0.000   0.000   0.000   0.000   0.000   0.000   0.000   0.000   0.000
  0.000   0.000   0.000   0.000   0.000   0.000   0.000   0.000   0.000   0.000   0.000   0.000   0.000   0.000   0.000   0.000
 total augmentation occupancy for first ion, spin component:           3
  0.400   0.000   0.000   0.000   0.000   0.000   0.000   0.000   0.000   0.000   0.000   0.000   0.000   0.000   0.000   0.000
  0.000   0.000   0.000   0.000   0.000   0.000   0.000   0.000   0.000   0.000   0.000   0.000   0.000   0.000   0.000   0.000
  0.000   0.000   0.200   0.000   0.000   0.000   0.000   0.000   0.000   0.000   0.000   0.000   0.000   0.000   0.000   0.000
  0.000   0.000   0.000   0.200   0.000   0.000   0.000   0.000   0.000   0.000   0.000   0.000   0.000   0.000   0.000   0.000
  0.000   0.000   0.000   0.000   0.200   0.000   0.000   0.000   0.000   0.000   0.000   0.000   0.000   0.000   0.000   0.000
  0.000   0.000   0.000   0.000   0.000   0.000   0.000   0.000   0.000   0.000   0.000   0.000   0.000   0.000   0.000   0.000
  0.000   0.000   0.000   0.000   0.000   0.000   0.000   0.000   0.000   0.000   0.000   0.000   0.000   0.000   0.000   0.000
  0.000   0.000   0.000   0.000   0.000   0.000   0.000   0.000   0.000   0.000   0.000   0.000   0.000   0.000   0.000   0.000
  0.000   0.000   0.000   0.000   0.000   0.000   0.000   0.000   0.000   0.000   0.000   0.000   0.000   0.000   0.000   0.000
  0.000   0.000   0.000   0.000   0.000   0.000   0.000   0.000   0.000   0.000   0.000   0.000   0.000   0.000   0.000   0.000
  0.000   0.000   0.000   0.000   0.000   0.000   0.000   0.000   0.000   0.000   0.000   0.000   0.000   0.000   0.000   0.000
  0.000   0.000   0.000   0.000   0.000   0.000   0.000   0.000   0.000   0.000   0.000   0.000   0.000   0.000   0.000   0.000
  0.000   0.000   0.000   0.000   0.000   0.000   0.000   0.000   0.000   0.000   0.000   0.000   0.000   0.000   0.000   0.000
  0.000   0.000   0.000   0.000   0.000   0.000   0.000   0.000   0.000   0.000   0.000   0.000   0.000   0.000   0.000   0.000
  0.000   0.000   0.000   0.000   0.000   0.000   0.000   0.000   0.000   0.000   0.000   0.000   0.000   0.000   0.000   0.000
  0.000   0.000   0.000   0.000   0.000   0.000   0.000   0.000   0.000   0.000   0.000   0.000   0.000   0.000   0.000   0.000
  0.000   0.000   0.000   0.000   0.000   0.000   0.000   0.000   0.000   0.000   0.000   0.000   0.000   0.000   0.000   0.000
  0.000   0.000   0.000   0.000   0.000   0.000   0.000   0.000   0.000   0.000   0.000   0.000   0.000   0.000   0.000   0.000
  0.000   0.000   0.000   0.000   0.000   0.000   0.000   0.000   0.000   0.000   0.000   0.000   0.000   0.000   0.000   0.000
  0.000   0.000   0.000   0.000   0.000   0.000   0.000   0.000   0.000   0.000   0.000   0.000   0.000   0.000   0.000   0.000
  0.000   0.000   0.000   0.000   0.000   0.000   0.000   0.000   0.000   0.000   0.000   0.000   0.000   0.000   0.000   0.000
  0.000   0.000   0.000   0.000   0.000   0.000   0.000   0.000   0.000   0.000   0.000   0.000   0.000   0.000   0.000   0.000
  0.000   0.000   0.000   0.000   0.000   0.000   0.000   0.000   0.000   0.000   0.000   0.000   0.000   0.000   0.000   0.000
  0.000   0.000   0.000   0.000   0.000   0.000   0.000   0.000   0.000   0.000   0.000   0.000   0.000   0.000   0.000   0.000
  0.000   0.000   0.000   0.000   0.000   0.000   0.000   0.000   0.000   0.000   0.000   0.000   0.000   0.000   0.000   0.000
  0.000   0.000   0.000   0.000   0.000   0.000   0.000   0.000   0.000   0.000   0.000   0.000   0.000   0.000   0.000   0.000
  0.000   0.000   0.000   0.000   0.000   0.000   0.000   0.000   0.000   0.000   0.000   0.000   0.000   0.000   0.000   0.000
  0.000   0.000   0.000   0.000   0.000   0.000   0.000   0.000   0.000   0.000   0.000   0.000   0.000   0.000   0.000   0.000
  0.000   0.000   0.000   0.000   0.000   0.000   0.000   0.000   0.000   0.000   0.000   0.000   0.000   0.000   0.000   0.000
  0.000   0.000   0.000   0.000   0.000   0.000   0.000   0.000   0.000   0.000   0.000   0.000   0.000   0.000   0.000   0.000
  0.000   0.000   0.000   0.000   0.000   0.000   0.000   0.000   0.000   0.000   0.000   0.000   0.000   0.000   0.000   0.000
  0.000   0.000   0.000   0.000   0.000   0.000   0.000   0.000   0.000   0.000   0.000   0.000   0.000   0.000   0.000   0.000
 total augmentation occupancy for first ion, spin component:           4
  0.400   0.000   0.000   0.000   0.000   0.000   0.000   0.000   0.000   0.000   0.000   0.000   0.000   0.000   0.000   0.000
  0.000   0.000   0.000   0.000   0.000   0.000   0.000   0.000   0.000   0.000   0.000   0.000   0.000   0.000   0.000   0.000
  0.000   0.000   0.200   0.000   0.000   0.000   0.000   0.000   0.000   0.000   0.000   0.000   0.000   0.000   0.000   0.000
  0.000   0.000   0.000   0.200   0.000   0.000   0.000   0.000   0.000   0.000   0.000   0.000   0.000   0.000   0.000   0.000
  0.000   0.000   0.000   0.000   0.200   0.000   0.000   0.000   0.000   0.000   0.000   0.000   0.000   0.000   0.000   0.000
  0.000   0.000   0.000   0.000   0.000   0.000   0.000   0.000   0.000   0.000   0.000   0.000   0.000   0.000   0.000   0.000
  0.000   0.000   0.000   0.000   0.000   0.000   0.000   0.000   0.000   0.000   0.000   0.000   0.000   0.000   0.000   0.000
  0.000   0.000   0.000   0.000   0.000   0.000   0.000   0.000   0.000   0.000   0.000   0.000   0.000   0.000   0.000   0.000
  0.000   0.000   0.000   0.000   0.000   0.000   0.000   0.000   0.000   0.000   0.000   0.000   0.000   0.000   0.000   0.000
  0.000   0.000   0.000   0.000   0.000   0.000   0.000   0.000   0.000   0.000   0.000   0.000   0.000   0.000   0.000   0.000
  0.000   0.000   0.000   0.000   0.000   0.000   0.000   0.000   0.000   0.000   0.000   0.000   0.000   0.000   0.000   0.000
  0.000   0.000   0.000   0.000   0.000   0.000   0.000   0.000   0.000   0.000   0.000   0.000   0.000   0.000   0.000   0.000
  0.000   0.000   0.000   0.000   0.000   0.000   0.000   0.000   0.000   0.000   0.000   0.000   0.000   0.000   0.000   0.000
  0.000   0.000   0.000   0.000   0.000   0.000   0.000   0.000   0.000   0.000   0.000   0.000   0.000   0.000   0.000   0.000
  0.000   0.000   0.000   0.000   0.000   0.000   0.000   0.000   0.000   0.000   0.000   0.000   0.000   0.000   0.000   0.000
  0.000   0.000   0.000   0.000   0.000   0.000   0.000   0.000   0.000   0.000   0.000   0.000   0.000   0.000   0.000   0.000
  0.000   0.000   0.000   0.000   0.000   0.000   0.000   0.000   0.000   0.000   0.000   0.000   0.000   0.000   0.000   0.000
  0.000   0.000   0.000   0.000   0.000   0.000   0.000   0.000   0.000   0.000   0.000   0.000   0.000   0.000   0.000   0.000
  0.000   0.000   0.000   0.000   0.000   0.000   0.000   0.000   0.000   0.000   0.000   0.000   0.000   0.000   0.000   0.000
  0.000   0.000   0.000   0.000   0.000   0.000   0.000   0.000   0.000   0.000   0.000   0.000   0.000   0.000   0.000   0.000
  0.000   0.000   0.000   0.000   0.000   0.000   0.000   0.000   0.000   0.000   0.000   0.000   0.000   0.000   0.000   0.000
  0.000   0.000   0.000   0.000   0.000   0.000   0.000   0.000   0.000   0.000   0.000   0.000   0.000   0.000   0.000   0.000
  0.000   0.000   0.000   0.000   0.000   0.000   0.000   0.000   0.000   0.000   0.000   0.000   0.000   0.000   0.000   0.000
  0.000   0.000   0.000   0.000   0.000   0.000   0.000   0.000   0.000   0.000   0.000   0.000   0.000   0.000   0.000   0.000
  0.000   0.000   0.000   0.000   0.000   0.000   0.000   0.000   0.000   0.000   0.000   0.000   0.000   0.000   0.000   0.000
  0.000   0.000   0.000   0.000   0.000   0.000   0.000   0.000   0.000   0.000   0.000   0.000   0.000   0.000   0.000   0.000
  0.000   0.000   0.000   0.000   0.000   0.000   0.000   0.000   0.000   0.000   0.000   0.000   0.000   0.000   0.000   0.000
  0.000   0.000   0.000   0.000   0.000   0.000   0.000   0.000   0.000   0.000   0.000   0.000   0.000   0.000   0.000   0.000
  0.000   0.000   0.000   0.000   0.000   0.000   0.000   0.000   0.000   0.000   0.000   0.000   0.000   0.000   0.000   0.000
  0.000   0.000   0.000   0.000   0.000   0.000   0.000   0.000   0.000   0.000   0.000   0.000   0.000   0.000   0.000   0.000
  0.000   0.000   0.000   0.000   0.000   0.000   0.000   0.000   0.000   0.000   0.000   0.000   0.000   0.000   0.000   0.000
  0.000   0.000   0.000   0.000   0.000   0.000   0.000   0.000   0.000   0.000   0.000   0.000   0.000   0.000   0.000   0.000


------------------------ aborting loop because EDIFF is reached ----------------------------------------





 total charge

# of ion       s       p       d       f       tot
--------------------------------------------------
    1        1.577   1.843   0.081   0.012   3.513
    2        1.577   1.843   0.081   0.012   3.513
--------------------------------------------------
tot          3.154   3.687   0.161   0.024   7.026



 magnetization (x)

# of ion       s       p       d       f       tot
--------------------------------------------------
    1       -0.000  -0.000  -0.000  -0.000  -0.000
    2       -0.000  -0.000  -0.000  -0.000  -0.000
--------------------------------------------------
tot         -0.000  -0.000  -0.000  -0.000  -0.000



 magnetization (y)

# of ion       s       p       d       f       tot
--------------------------------------------------
    1       -0.000  -0.000  -0.000  -0.000  -0.000
    2       -0.000  -0.000  -0.000  -0.000  -0.000
--------------------------------------------------
tot         -0.000  -0.000  -0.000  -0.000  -0.000



 magnetization (z)

# of ion       s       p       d       f       tot
--------------------------------------------------
    1       -0.000  -0.000  -0.000  -0.000  -0.000
    2       -0.000  -0.000  -0.000  -0.000  -0.000
--------------------------------------------------
tot         -0.000  -0.000  -0.000  -0.000  -0.000
 


--------------------------------------------------------------------------------------------------------



  FREE ENERGIE OF THE ION-ELECTRON SYSTEM (eV)
  ---------------------------------------------------
  free  energy   TOTEN  =        -8.24567943 eV

  energy  without entropy=       -8.24567943  energy(sigma->0) =       -8.24567943
 


--------------------------------------------------------------------------------------------------------




--------------------------------------------------------------------------------------------------------


     LOOP+:  cpu time     66.9471: real time     67.2714
    4ORBIT:  cpu time      0.0000: real time      0.0000

 Spin-Orbit-Coupling matrix elements

 Ion:    1  E_soc:      0.0000000
 l=   1
     0.0000000     0.0000000     0.0000000
     0.0000000     0.0000000     0.0000000
     0.0000000     0.0000000     0.0000000
 l=   2
     0.0000000     0.0000000     0.0000000     0.0000000     0.0000000
     0.0000000     0.0000000     0.0000000     0.0000000     0.0000000
     0.0000000     0.0000000     0.0000000     0.0000000     0.0000000
     0.0000000     0.0000000     0.0000000     0.0000000     0.0000000
     0.0000000     0.0000000     0.0000000     0.0000000     0.0000000
 l=   3
     0.0000000     0.0000000     0.0000000     0.0000000     0.0000000     0.0000000     0.0000000
     0.0000000     0.0000000     0.0000000     0.0000000     0.0000000     0.0000000     0.0000000
     0.0000000     0.0000000     0.0000000     0.0000000     0.0000000     0.0000000     0.0000000
     0.0000000     0.0000000     0.0000000     0.0000000     0.0000000     0.0000000     0.0000000
     0.0000000     0.0000000     0.0000000     0.0000000     0.0000000     0.0000000     0.0000000
     0.0000000     0.0000000     0.0000000     0.0000000     0.0000000     0.0000000     0.0000000
     0.0000000     0.0000000     0.0000000     0.0000000     0.0000000     0.0000000     0.0000000

 Ion:    2  E_soc:      0.0000000
 l=   1
     0.0000000     0.0000000     0.0000000
     0.0000000     0.0000000     0.0000000
     0.0000000     0.0000000     0.0000000
 l=   2
     0.0000000     0.0000000     0.0000000     0.0000000     0.0000000
     0.0000000     0.0000000     0.0000000     0.0000000     0.0000000
     0.0000000     0.0000000     0.0000000     0.0000000     0.0000000
     0.0000000     0.0000000     0.0000000     0.0000000     0.0000000
     0.0000000     0.0000000     0.0000000     0.0000000     0.0000000
 l=   3
     0.0000000     0.0000000     0.0000000     0.0000000     0.0000000     0.0000000     0.0000000
     0.0000000     0.0000000     0.0000000     0.0000000     0.0000000     0.0000000     0.0000000
     0.0000000     0.0000000     0.0000000     0.0000000     0.0000000     0.0000000     0.0000000
     0.0000000     0.0000000     0.0000000     0.0000000     0.0000000     0.0000000     0.0000000
     0.0000000     0.0000000     0.0000000     0.0000000     0.0000000     0.0000000     0.0000000
     0.0000000     0.0000000     0.0000000     0.0000000     0.0000000     0.0000000     0.0000000
     0.0000000     0.0000000     0.0000000     0.0000000     0.0000000     0.0000000     0.0000000



 total charge

# of ion       s       p       d       f       tot
--------------------------------------------------
    1        1.577   1.843   0.081   0.012   3.513
    2        1.577   1.843   0.081   0.012   3.513
--------------------------------------------------
tot          3.154   3.687   0.161   0.024   7.026



 magnetization (x)

# of ion       s       p       d       f       tot
--------------------------------------------------
    1       -0.000  -0.000  -0.000  -0.000  -0.000
    2       -0.000  -0.000  -0.000  -0.000  -0.000
--------------------------------------------------
tot         -0.000  -0.000  -0.000  -0.000  -0.000



 magnetization (y)

# of ion       s       p       d       f       tot
--------------------------------------------------
    1       -0.000  -0.000  -0.000  -0.000  -0.000
    2       -0.000  -0.000  -0.000  -0.000  -0.000
--------------------------------------------------
tot         -0.000  -0.000  -0.000  -0.000  -0.000



 magnetization (z)

# of ion       s       p       d       f       tot
--------------------------------------------------
    1       -0.000  -0.000  -0.000  -0.000  -0.000
    2       -0.000  -0.000  -0.000  -0.000  -0.000
--------------------------------------------------
tot         -0.000  -0.000  -0.000  -0.000  -0.000
 

 total amount of memory used by VASP MPI-rank0    69759. kBytes
=======================================================================

   base      :      30000. kBytes
   nonl-proj :      13989. kBytes
   fftplans  :       5044. kBytes
   grid      :       5324. kBytes
   one-center:        196. kBytes
   wavefun   :      15206. kBytes
 
  
  
 General timing and accounting informations for this job:
 ========================================================
  
                  Total CPU time used (sec):       70.061
                            User time (sec):       69.749
                          System time (sec):        0.312
                         Elapsed time (sec):       72.802
  
                   Maximum memory used (kb):      189940.
                   Average memory used (kb):          N/A
  
                          Minor page faults:        23988
                          Major page faults:         3760
                 Voluntary context switches:          418
