PROCAR new format
# of k-points:  150         # of bands:   32         # of ions:    2

 k-point     1 :    0.00000000 0.00000000 0.00000000     weight = 0.00666667

band     1 # energy  -13.54861856 # occ.  1.00000000
 
ion      s      p      d      f    tot
    1  0.335  0.015  0.000  0.001  0.351
    2  0.335  0.015  0.000  0.001  0.351
tot    0.670  0.030  0.000  0.001  0.702
    1 -0.199 -0.009 -0.000 -0.000 -0.209
    2 -0.199 -0.009 -0.000 -0.000 -0.209
tot   -0.399 -0.018 -0.000 -0.001 -0.418
    1 -0.198 -0.009 -0.000 -0.000 -0.208
    2 -0.198 -0.009 -0.000 -0.000 -0.208
tot   -0.397 -0.018 -0.000 -0.001 -0.416
    1 -0.182 -0.008 -0.000 -0.000 -0.191
    2 -0.182 -0.008 -0.000 -0.000 -0.191
tot   -0.364 -0.016 -0.000 -0.001 -0.381
 
band     2 # energy  -13.54855751 # occ.  1.00000000
 
ion      s      p      d      f    tot
    1  0.335  0.015  0.000  0.001  0.351
    2  0.335  0.015  0.000  0.001  0.351
tot    0.670  0.030  0.000  0.001  0.702
    1  0.199  0.009  0.000  0.000  0.209
    2  0.199  0.009  0.000  0.000  0.209
tot    0.399  0.018  0.000  0.001  0.418
    1  0.198  0.009  0.000  0.000  0.208
    2  0.198  0.009  0.000  0.000  0.208
tot    0.397  0.018  0.000  0.001  0.416
    1  0.182  0.008  0.000  0.000  0.190
    2  0.182  0.008  0.000  0.000  0.190
tot    0.364  0.016  0.000  0.001  0.381
 
band     3 # energy   -8.57617023 # occ.  1.00000000
 
ion      s      p      d      f    tot
    1  0.355  0.031  0.001  0.000  0.388
    2  0.355  0.031  0.001  0.000  0.388
tot    0.710  0.063  0.002  0.001  0.775
    1 -0.204 -0.018 -0.001 -0.000 -0.223
    2 -0.204 -0.018 -0.001 -0.000 -0.223
tot   -0.409 -0.036 -0.001 -0.000 -0.446
    1 -0.226 -0.020 -0.001 -0.000 -0.247
    2 -0.226 -0.020 -0.001 -0.000 -0.247
tot   -0.453 -0.040 -0.002 -0.000 -0.495
    1 -0.181 -0.016 -0.001 -0.000 -0.198
    2 -0.181 -0.016 -0.001 -0.000 -0.198
tot   -0.363 -0.032 -0.001 -0.000 -0.396
 
band     4 # energy   -8.57612111 # occ.  1.00000000
 
ion      s      p      d      f    tot
    1  0.355  0.031  0.001  0.000  0.388
    2  0.355  0.031  0.001  0.000  0.388
tot    0.710  0.063  0.002  0.001  0.775
    1  0.204  0.018  0.001  0.000  0.223
    2  0.204  0.018  0.001  0.000  0.223
tot    0.409  0.036  0.001  0.000  0.446
    1  0.226  0.020  0.001  0.000  0.247
    2  0.226  0.020  0.001  0.000  0.247
tot    0.453  0.040  0.002  0.000  0.495
    1  0.181  0.016  0.001  0.000  0.198
    2  0.181  0.016  0.001  0.000  0.198
tot    0.363  0.032  0.001  0.000  0.396
 
band     5 # energy   -3.08013848 # occ.  1.00000000
 
ion      s      p      d      f    tot
    1  0.007  0.301  0.007  0.003  0.318
    2  0.007  0.301  0.007  0.003  0.318
tot    0.013  0.602  0.015  0.005  0.635
    1 -0.004 -0.132 -0.001 -0.001 -0.139
    2 -0.004 -0.132 -0.001 -0.001 -0.139
tot   -0.009 -0.264 -0.003 -0.002 -0.278
    1 -0.004 -0.135 -0.001 -0.001 -0.142
    2 -0.004 -0.135 -0.001 -0.001 -0.142
tot   -0.009 -0.270 -0.003 -0.002 -0.283
    1 -0.002 -0.033  0.001 -0.000 -0.034
    2 -0.002 -0.033  0.001 -0.000 -0.034
tot   -0.004 -0.066  0.002 -0.000 -0.068
 
band     6 # energy   -3.08009837 # occ.  1.00000000
 
ion      s      p      d      f    tot
    1  0.007  0.301  0.007  0.003  0.318
    2  0.007  0.301  0.007  0.003  0.318
tot    0.013  0.602  0.015  0.005  0.635
    1  0.004  0.132  0.001  0.001  0.139
    2  0.004  0.132  0.001  0.001  0.139
tot    0.009  0.264  0.003  0.002  0.277
    1  0.004  0.135  0.001  0.001  0.142
    2  0.004  0.135  0.001  0.001  0.142
tot    0.009  0.270  0.003  0.002  0.283
    1  0.002  0.033 -0.001  0.000  0.034
    2  0.002  0.033 -0.001  0.000  0.034
tot    0.004  0.066 -0.002  0.000  0.068
 
band     7 # energy   -2.37018491 # occ.  1.00000000
 
ion      s      p      d      f    tot
    1  0.002  0.347  0.018  0.004  0.371
    2  0.002  0.347  0.018  0.004  0.371
tot    0.003  0.694  0.036  0.008  0.742
    1 -0.001 -0.039 -0.001 -0.000 -0.041
    2 -0.001 -0.039 -0.001 -0.000 -0.041
tot   -0.002 -0.078 -0.001 -0.001 -0.082
    1 -0.001 -0.041 -0.001 -0.000 -0.043
    2 -0.001 -0.041 -0.001 -0.000 -0.043
tot   -0.002 -0.083 -0.001 -0.001 -0.087
    1  0.001 -0.115 -0.009 -0.002 -0.125
    2  0.001 -0.115 -0.009 -0.002 -0.125
tot    0.002 -0.231 -0.018 -0.003 -0.250
 
band     8 # energy   -2.37016664 # occ.  1.00000000
 
ion      s      p      d      f    tot
    1  0.002  0.347  0.018  0.004  0.371
    2  0.002  0.347  0.018  0.004  0.371
tot    0.003  0.694  0.036  0.008  0.742
    1  0.001  0.039  0.001  0.000  0.041
    2  0.001  0.039  0.001  0.000  0.041
tot    0.002  0.078  0.001  0.001  0.082
    1  0.001  0.041  0.001  0.000  0.043
    2  0.001  0.041  0.001  0.000  0.043
tot    0.002  0.083  0.001  0.001  0.087
    1 -0.001  0.115  0.009  0.002  0.125
    2 -0.001  0.115  0.009  0.002  0.125
tot   -0.002  0.231  0.018  0.003  0.250
 
band     9 # energy   -2.01756680 # occ.  1.00000000
 
ion      s      p      d      f    tot
    1  0.000  0.383  0.025  0.005  0.413
    2  0.000  0.383  0.025  0.005  0.413
tot    0.000  0.766  0.051  0.010  0.826
    1  0.000  0.000  0.000  0.000  0.000
    2  0.000  0.000  0.000  0.000  0.000
tot    0.000  0.000  0.000  0.000  0.000
    1  0.000  0.000  0.000  0.000  0.000
    2  0.000  0.000  0.000  0.000  0.000
tot    0.000  0.000  0.000  0.000  0.000
    1 -0.000 -0.371 -0.025 -0.005 -0.400
    2 -0.000 -0.371 -0.025 -0.005 -0.400
tot   -0.000 -0.741 -0.049 -0.009 -0.800
 
band    10 # energy   -2.01753798 # occ.  1.00000000
 
ion      s      p      d      f    tot
    1  0.000  0.383  0.025  0.005  0.413
    2  0.000  0.383  0.025  0.005  0.413
tot    0.000  0.766  0.051  0.010  0.826
    1  0.000  0.000  0.000  0.000  0.000
    2  0.000  0.000  0.000  0.000  0.000
tot    0.000  0.000  0.000  0.000  0.000
    1  0.000  0.000  0.000  0.000  0.000
    2  0.000  0.000  0.000  0.000  0.000
tot    0.000  0.000  0.000  0.000  0.000
    1  0.000  0.371  0.025  0.005  0.400
    2  0.000  0.371  0.025  0.005  0.400
tot    0.000  0.741  0.049  0.009  0.800
 
band    11 # energy   -0.77345832 # occ.  0.00000000
 
ion      s      p      d      f    tot
    1  0.138  0.178  0.018  0.007  0.341
    2  0.138  0.178  0.018  0.007  0.341
tot    0.276  0.356  0.035  0.015  0.682
    1 -0.082 -0.093 -0.010 -0.004 -0.189
    2 -0.082 -0.093 -0.010 -0.004 -0.189
tot   -0.164 -0.186 -0.020 -0.008 -0.379
    1 -0.082 -0.093 -0.010 -0.004 -0.189
    2 -0.082 -0.093 -0.010 -0.004 -0.189
tot   -0.164 -0.186 -0.020 -0.008 -0.379
    1 -0.075 -0.074 -0.008 -0.004 -0.160
    2 -0.075 -0.074 -0.008 -0.004 -0.160
tot   -0.150 -0.147 -0.017 -0.007 -0.321
 
band    12 # energy   -0.77334647 # occ.  0.00000000
 
ion      s      p      d      f    tot
    1  0.138  0.178  0.018  0.007  0.341
    2  0.138  0.178  0.018  0.007  0.341
tot    0.276  0.356  0.035  0.015  0.682
    1  0.082  0.093  0.010  0.004  0.189
    2  0.082  0.093  0.010  0.004  0.189
tot    0.164  0.186  0.020  0.008  0.379
    1  0.082  0.093  0.010  0.004  0.189
    2  0.082  0.093  0.010  0.004  0.189
tot    0.164  0.186  0.020  0.008  0.379
    1  0.075  0.074  0.008  0.004  0.160
    2  0.075  0.074  0.008  0.004  0.160
tot    0.150  0.147  0.017  0.007  0.321
 
band    13 # energy    0.29708930 # occ.  0.00000000
 
ion      s      p      d      f    tot
    1  0.008  0.329  0.027  0.005  0.369
    2  0.008  0.329  0.027  0.005  0.369
tot    0.016  0.657  0.054  0.011  0.738
    1 -0.002 -0.001 -0.000 -0.000 -0.003
    2 -0.002 -0.001 -0.000 -0.000 -0.003
tot   -0.003 -0.002 -0.000 -0.000 -0.006
    1 -0.004 -0.003 -0.001 -0.000 -0.007
    2 -0.004 -0.003 -0.001 -0.000 -0.007
tot   -0.007 -0.006 -0.001 -0.000 -0.015
    1  0.007 -0.274 -0.021 -0.004 -0.292
    2  0.007 -0.274 -0.021 -0.004 -0.292
tot    0.014 -0.547 -0.042 -0.008 -0.583
 
band    14 # energy    0.29710368 # occ.  0.00000000
 
ion      s      p      d      f    tot
    1  0.008  0.329  0.027  0.005  0.369
    2  0.008  0.329  0.027  0.005  0.369
tot    0.016  0.657  0.054  0.011  0.738
    1  0.002  0.001  0.000  0.000  0.003
    2  0.002  0.001  0.000  0.000  0.003
tot    0.003  0.002  0.000  0.000  0.006
    1  0.004  0.003  0.001  0.000  0.007
    2  0.004  0.003  0.001  0.000  0.007
tot    0.007  0.006  0.001  0.000  0.015
    1 -0.007  0.274  0.021  0.004  0.292
    2 -0.007  0.274  0.021  0.004  0.292
tot   -0.014  0.547  0.042  0.008  0.583
 
band    15 # energy    0.75947146 # occ.  0.00000000
 
ion      s      p      d      f    tot
    1  0.000  0.335  0.032  0.006  0.373
    2  0.000  0.335  0.032  0.006  0.373
tot    0.000  0.670  0.065  0.011  0.746
    1 -0.000  0.000  0.000  0.000  0.000
    2 -0.000  0.000  0.000  0.000  0.000
tot   -0.000  0.000  0.000  0.000  0.000
    1 -0.000  0.000  0.000  0.000  0.000
    2 -0.000  0.000  0.000  0.000  0.000
tot   -0.000  0.000  0.000  0.000  0.000
    1 -0.000 -0.317 -0.031 -0.005 -0.353
    2 -0.000 -0.317 -0.031 -0.005 -0.353
tot   -0.000 -0.634 -0.061 -0.011 -0.706
 
band    16 # energy    0.75949069 # occ.  0.00000000
 
ion      s      p      d      f    tot
    1  0.000  0.335  0.032  0.006  0.373
    2  0.000  0.335  0.032  0.006  0.373
tot    0.000  0.670  0.065  0.011  0.746
    1  0.000  0.000  0.000  0.000  0.000
    2  0.000  0.000  0.000  0.000  0.000
tot    0.000  0.000  0.000  0.000  0.000
    1 -0.000  0.000  0.000  0.000  0.000
    2 -0.000  0.000  0.000  0.000  0.000
tot   -0.000  0.000  0.000  0.000  0.000
    1  0.000  0.317  0.031  0.005  0.353
    2  0.000  0.317  0.031  0.005  0.353
tot    0.000  0.634  0.061  0.011  0.706
 
band    17 # energy    2.09148426 # occ.  0.00000000
 
ion      s      p      d      f    tot
    1  0.000  0.016  0.027  0.001  0.044
    2  0.000  0.016  0.027  0.001  0.044
tot    0.000  0.032  0.054  0.002  0.088
    1 -0.000 -0.009 -0.017 -0.001 -0.027
    2 -0.000 -0.009 -0.017 -0.001 -0.027
tot   -0.000 -0.019 -0.033 -0.001 -0.054
    1 -0.000 -0.009 -0.015 -0.001 -0.025
    2 -0.000 -0.009 -0.015 -0.001 -0.025
tot   -0.000 -0.017 -0.031 -0.001 -0.049
    1 -0.000 -0.008 -0.015 -0.001 -0.024
    2 -0.000 -0.008 -0.015 -0.001 -0.024
tot   -0.000 -0.016 -0.030 -0.001 -0.047
 
band    18 # energy    2.09161998 # occ.  0.00000000
 
ion      s      p      d      f    tot
    1  0.000  0.016  0.027  0.001  0.044
    2  0.000  0.016  0.027  0.001  0.044
tot    0.000  0.032  0.054  0.002  0.088
    1  0.000  0.009  0.017  0.001  0.027
    2  0.000  0.009  0.017  0.001  0.027
tot    0.000  0.019  0.033  0.001  0.054
    1  0.000  0.009  0.015  0.001  0.025
    2  0.000  0.009  0.015  0.001  0.025
tot    0.000  0.017  0.031  0.001  0.049
    1  0.000  0.008  0.015  0.001  0.024
    2  0.000  0.008  0.015  0.001  0.024
tot    0.000  0.016  0.030  0.001  0.047
 
band    19 # energy    2.16595799 # occ.  0.00000000
 
ion      s      p      d      f    tot
    1  0.007  0.025  0.000  0.000  0.032
    2  0.007  0.025  0.000  0.000  0.032
tot    0.014  0.049  0.000  0.000  0.064
    1 -0.005 -0.018 -0.000 -0.000 -0.023
    2 -0.005 -0.018 -0.000 -0.000 -0.023
tot   -0.010 -0.036 -0.000 -0.000 -0.046
    1 -0.004 -0.012 -0.000 -0.000 -0.016
    2 -0.004 -0.012 -0.000 -0.000 -0.016
tot   -0.007 -0.025 -0.000 -0.000 -0.032
    1 -0.003 -0.011  0.000 -0.000 -0.014
    2 -0.003 -0.011  0.000 -0.000 -0.014
tot   -0.006 -0.022  0.000 -0.000 -0.029
 
band    20 # energy    2.16607637 # occ.  0.00000000
 
ion      s      p      d      f    tot
    1  0.007  0.025  0.000  0.000  0.032
    2  0.007  0.025  0.000  0.000  0.032
tot    0.014  0.049  0.000  0.000  0.064
    1  0.005  0.018  0.000  0.000  0.023
    2  0.005  0.018  0.000  0.000  0.023
tot    0.010  0.036  0.000  0.000  0.046
    1  0.004  0.012  0.000  0.000  0.016
    2  0.004  0.012  0.000  0.000  0.016
tot    0.007  0.025  0.000  0.000  0.032
    1  0.003  0.011 -0.000  0.000  0.014
    2  0.003  0.011 -0.000  0.000  0.014
tot    0.006  0.022 -0.000  0.000  0.029
 
band    21 # energy    3.62749108 # occ.  0.00000000
 
ion      s      p      d      f    tot
    1  0.025  0.037  0.000  0.000  0.061
    2  0.025  0.037  0.000  0.000  0.061
tot    0.050  0.073  0.000  0.000  0.123
    1 -0.013 -0.019 -0.000 -0.000 -0.032
    2 -0.013 -0.019 -0.000 -0.000 -0.032
tot   -0.025 -0.037 -0.000 -0.000 -0.063
    1 -0.015 -0.022 -0.000 -0.000 -0.038
    2 -0.015 -0.022 -0.000 -0.000 -0.038
tot   -0.030 -0.045 -0.000 -0.000 -0.075
    1 -0.015 -0.022 -0.000 -0.000 -0.036
    2 -0.015 -0.022 -0.000 -0.000 -0.036
tot   -0.030 -0.043 -0.000 -0.000 -0.073
 
band    22 # energy    3.62759653 # occ.  0.00000000
 
ion      s      p      d      f    tot
    1  0.025  0.037  0.000  0.000  0.062
    2  0.025  0.037  0.000  0.000  0.062
tot    0.050  0.073  0.000  0.000  0.123
    1  0.013  0.019  0.000  0.000  0.032
    2  0.013  0.019  0.000  0.000  0.032
tot    0.025  0.037  0.000  0.000  0.063
    1  0.015  0.022  0.000  0.000  0.038
    2  0.015  0.022  0.000  0.000  0.038
tot    0.030  0.045  0.000  0.000  0.075
    1  0.015  0.022  0.000  0.000  0.036
    2  0.015  0.022  0.000  0.000  0.036
tot    0.030  0.043  0.000  0.000  0.073
 
band    23 # energy    4.52707259 # occ.  0.00000000
 
ion      s      p      d      f    tot
    1  0.003  0.000  0.041  0.001  0.045
    2  0.003  0.000  0.041  0.001  0.045
tot    0.005  0.000  0.083  0.001  0.089
    1 -0.003 -0.000 -0.041 -0.001 -0.044
    2 -0.003 -0.000 -0.041 -0.001 -0.044
tot   -0.005 -0.000 -0.082 -0.001 -0.088
    1 -0.000 -0.000 -0.002 -0.000 -0.002
    2 -0.000 -0.000 -0.002 -0.000 -0.002
tot   -0.000 -0.000 -0.004 -0.000 -0.004
    1  0.000  0.000  0.006  0.000  0.006
    2  0.000  0.000  0.006  0.000  0.006
tot    0.001  0.000  0.011  0.000  0.012
 
band    24 # energy    4.52714928 # occ.  0.00000000
 
ion      s      p      d      f    tot
    1  0.003  0.000  0.041  0.001  0.045
    2  0.003  0.000  0.041  0.001  0.045
tot    0.005  0.000  0.083  0.001  0.089
    1  0.003  0.000  0.041  0.001  0.044
    2  0.003  0.000  0.041  0.001  0.044
tot    0.005  0.000  0.082  0.001  0.088
    1  0.000  0.000  0.002  0.000  0.002
    2  0.000  0.000  0.002  0.000  0.002
tot    0.000  0.000  0.004  0.000  0.004
    1 -0.000 -0.000 -0.006 -0.000 -0.006
    2 -0.000 -0.000 -0.006 -0.000 -0.006
tot   -0.001 -0.000 -0.011 -0.000 -0.012
 
band    25 # energy    4.85325710 # occ.  0.00000000
 
ion      s      p      d      f    tot
    1  0.066  0.001  0.024  0.024  0.115
    2  0.066  0.001  0.024  0.024  0.115
tot    0.133  0.002  0.048  0.048  0.231
    1 -0.035 -0.000 -0.013 -0.013 -0.061
    2 -0.035 -0.000 -0.013 -0.013 -0.061
tot   -0.070 -0.001 -0.025 -0.026 -0.121
    1 -0.039 -0.001 -0.014 -0.014 -0.068
    2 -0.039 -0.001 -0.014 -0.014 -0.068
tot   -0.078 -0.001 -0.028 -0.029 -0.136
    1 -0.041 -0.001 -0.015 -0.015 -0.070
    2 -0.041 -0.001 -0.015 -0.015 -0.070
tot   -0.081 -0.001 -0.029 -0.030 -0.141
 
band    26 # energy    4.85329154 # occ.  0.00000000
 
ion      s      p      d      f    tot
    1  0.066  0.001  0.024  0.024  0.115
    2  0.066  0.001  0.024  0.024  0.115
tot    0.133  0.002  0.048  0.048  0.231
    1  0.035  0.000  0.013  0.013  0.061
    2  0.035  0.000  0.013  0.013  0.061
tot    0.070  0.001  0.025  0.026  0.121
    1  0.039  0.001  0.014  0.014  0.068
    2  0.039  0.001  0.014  0.014  0.068
tot    0.078  0.001  0.028  0.029  0.136
    1  0.041  0.001  0.015  0.015  0.070
    2  0.041  0.001  0.015  0.015  0.070
tot    0.081  0.001  0.029  0.030  0.141
 
band    27 # energy    5.86456817 # occ.  0.00000000
 
ion      s      p      d      f    tot
    1  0.000  0.036  0.180  0.006  0.222
    2  0.000  0.036  0.180  0.006  0.222
tot    0.000  0.071  0.361  0.012  0.444
    1 -0.000 -0.000 -0.000 -0.000 -0.000
    2 -0.000 -0.000 -0.000 -0.000 -0.000
tot   -0.000 -0.000 -0.000 -0.000 -0.000
    1 -0.000 -0.000 -0.000 -0.000 -0.001
    2 -0.000 -0.000 -0.000 -0.000 -0.001
tot   -0.000 -0.001 -0.001 -0.000 -0.002
    1  0.000 -0.031 -0.173 -0.006 -0.209
    2  0.000 -0.031 -0.173 -0.006 -0.209
tot    0.000 -0.062 -0.346 -0.011 -0.419
 
band    28 # energy    5.86458351 # occ.  0.00000000
 
ion      s      p      d      f    tot
    1  0.000  0.036  0.180  0.006  0.222
    2  0.000  0.036  0.180  0.006  0.222
tot    0.000  0.071  0.361  0.012  0.444
    1  0.000  0.000 -0.000 -0.000 -0.000
    2  0.000  0.000 -0.000 -0.000 -0.000
tot    0.000  0.000 -0.000 -0.000 -0.000
    1  0.000  0.000  0.000  0.000  0.001
    2  0.000  0.000  0.000  0.000  0.001
tot    0.000  0.001  0.000  0.000  0.001
    1 -0.000  0.031  0.173  0.006  0.209
    2 -0.000  0.031  0.173  0.006  0.209
tot   -0.000  0.062  0.346  0.011  0.419
 
band    29 # energy    5.91211777 # occ.  0.00000000
 
ion      s      p      d      f    tot
    1  0.000  0.044  0.179  0.006  0.229
    2  0.000  0.044  0.179  0.006  0.229
tot    0.000  0.089  0.357  0.012  0.457
    1 -0.000  0.000  0.000  0.000  0.000
    2 -0.000  0.000  0.000  0.000  0.000
tot   -0.000  0.000  0.000  0.000  0.000
    1  0.000  0.000  0.000  0.000  0.000
    2  0.000  0.000  0.000  0.000  0.000
tot    0.000  0.000  0.000  0.000  0.000
    1 -0.000 -0.044 -0.176 -0.006 -0.225
    2 -0.000 -0.044 -0.176 -0.006 -0.225
tot   -0.000 -0.087 -0.352 -0.012 -0.451
 
band    30 # energy    5.91213582 # occ.  0.00000000
 
ion      s      p      d      f    tot
    1  0.000  0.044  0.179  0.006  0.229
    2  0.000  0.044  0.179  0.006  0.229
tot    0.000  0.089  0.357  0.012  0.457
    1  0.000  0.000  0.000  0.000  0.000
    2  0.000  0.000  0.000  0.000  0.000
tot    0.000  0.000  0.000  0.000  0.000
    1  0.000  0.000  0.000  0.000  0.000
    2  0.000  0.000  0.000  0.000  0.000
tot    0.000  0.000  0.000  0.000  0.000
    1  0.000  0.044  0.176  0.006  0.225
    2  0.000  0.044  0.176  0.006  0.225
tot    0.000  0.087  0.352  0.012  0.451
 
band    31 # energy    6.49865288 # occ.  0.00000000
 
ion      s      p      d      f    tot
    1  0.018  0.040  0.005  0.024  0.086
    2  0.018  0.040  0.005  0.024  0.086
tot    0.036  0.079  0.010  0.048  0.173
    1 -0.011 -0.024 -0.003 -0.014 -0.052
    2 -0.011 -0.024 -0.003 -0.014 -0.052
tot   -0.022 -0.047 -0.006 -0.029 -0.103
    1 -0.010 -0.022 -0.003 -0.013 -0.049
    2 -0.010 -0.022 -0.003 -0.013 -0.049
tot   -0.020 -0.045 -0.005 -0.027 -0.097
    1 -0.010 -0.022 -0.003 -0.013 -0.049
    2 -0.010 -0.022 -0.003 -0.013 -0.049
tot   -0.020 -0.045 -0.005 -0.027 -0.097
 
band    32 # energy    6.49881499 # occ.  0.00000000
 
ion      s      p      d      f    tot
    1  0.018  0.040  0.005  0.024  0.086
    2  0.018  0.040  0.005  0.024  0.086
tot    0.036  0.079  0.010  0.048  0.173
    1  0.011  0.024  0.003  0.014  0.052
    2  0.011  0.024  0.003  0.014  0.052
tot    0.022  0.047  0.006  0.029  0.103
    1  0.010  0.022  0.003  0.013  0.049
    2  0.010  0.022  0.003  0.013  0.049
tot    0.020  0.045  0.005  0.027  0.097
    1  0.010  0.022  0.003  0.013  0.049
    2  0.010  0.022  0.003  0.013  0.049
tot    0.021  0.045  0.005  0.027  0.097
 

 k-point     2 :    0.01360544-0.00680272 0.00000000     weight = 0.00666667

band     1 # energy  -13.54714211 # occ.  1.00000000
 
ion      s      p      d      f    tot
    1  0.335  0.015  0.000  0.001  0.351
    2  0.335  0.015  0.000  0.001  0.351
tot    0.670  0.030  0.000  0.001  0.702
    1 -0.199 -0.009 -0.000 -0.000 -0.209
    2 -0.199 -0.009 -0.000 -0.000 -0.209
tot   -0.399 -0.018 -0.000 -0.001 -0.418
    1 -0.198 -0.009 -0.000 -0.000 -0.208
    2 -0.198 -0.009 -0.000 -0.000 -0.208
tot   -0.397 -0.018 -0.000 -0.001 -0.416
    1 -0.182 -0.008 -0.000 -0.000 -0.191
    2 -0.182 -0.008 -0.000 -0.000 -0.191
tot   -0.364 -0.016 -0.000 -0.001 -0.381
 
band     2 # energy  -13.54708106 # occ.  1.00000000
 
ion      s      p      d      f    tot
    1  0.335  0.015  0.000  0.001  0.351
    2  0.335  0.015  0.000  0.001  0.351
tot    0.670  0.030  0.000  0.001  0.702
    1  0.199  0.009  0.000  0.000  0.209
    2  0.199  0.009  0.000  0.000  0.209
tot    0.399  0.018  0.000  0.001  0.418
    1  0.198  0.009  0.000  0.000  0.208
    2  0.198  0.009  0.000  0.000  0.208
tot    0.397  0.018  0.000  0.001  0.416
    1  0.182  0.008  0.000  0.000  0.191
    2  0.182  0.008  0.000  0.000  0.191
tot    0.364  0.016  0.000  0.001  0.381
 
band     3 # energy   -8.57605500 # occ.  1.00000000
 
ion      s      p      d      f    tot
    1  0.355  0.031  0.001  0.000  0.388
    2  0.355  0.031  0.001  0.000  0.388
tot    0.710  0.062  0.002  0.001  0.776
    1 -0.205 -0.018 -0.001 -0.000 -0.223
    2 -0.205 -0.018 -0.001 -0.000 -0.223
tot   -0.409 -0.036 -0.001 -0.000 -0.447
    1 -0.227 -0.020 -0.001 -0.000 -0.248
    2 -0.226 -0.020 -0.001 -0.000 -0.247
tot   -0.453 -0.040 -0.002 -0.000 -0.495
    1 -0.181 -0.016 -0.001 -0.000 -0.198
    2 -0.181 -0.016 -0.001 -0.000 -0.198
tot   -0.363 -0.032 -0.001 -0.000 -0.396
 
band     4 # energy   -8.57600587 # occ.  1.00000000
 
ion      s      p      d      f    tot
    1  0.355  0.031  0.001  0.000  0.388
    2  0.355  0.031  0.001  0.000  0.388
tot    0.710  0.062  0.002  0.001  0.776
    1  0.205  0.018  0.001  0.000  0.223
    2  0.205  0.018  0.001  0.000  0.223
tot    0.409  0.036  0.001  0.000  0.447
    1  0.226  0.020  0.001  0.000  0.247
    2  0.227  0.020  0.001  0.000  0.248
tot    0.453  0.040  0.002  0.000  0.495
    1  0.181  0.016  0.001  0.000  0.198
    2  0.181  0.016  0.001  0.000  0.198
tot    0.363  0.032  0.001  0.000  0.396
 
band     5 # energy   -3.08171446 # occ.  1.00000000
 
ion      s      p      d      f    tot
    1  0.008  0.296  0.008  0.003  0.314
    2  0.006  0.307  0.007  0.003  0.322
tot    0.013  0.603  0.015  0.005  0.637
    1 -0.004 -0.130 -0.001 -0.001 -0.137
    2 -0.004 -0.130 -0.001 -0.001 -0.137
tot   -0.008 -0.260 -0.002 -0.002 -0.273
    1 -0.006 -0.128 -0.002 -0.001 -0.137
    2 -0.003 -0.143 -0.001 -0.001 -0.148
tot   -0.009 -0.271 -0.003 -0.002 -0.285
    1 -0.002 -0.031  0.001 -0.000 -0.032
    2 -0.002 -0.031  0.001 -0.000 -0.032
tot   -0.004 -0.063  0.002 -0.000 -0.065
 
band     6 # energy   -3.08167476 # occ.  1.00000000
 
ion      s      p      d      f    tot
    1  0.006  0.307  0.007  0.003  0.322
    2  0.008  0.296  0.008  0.003  0.314
tot    0.013  0.603  0.015  0.005  0.637
    1  0.004  0.130  0.001  0.001  0.137
    2  0.004  0.130  0.001  0.001  0.137
tot    0.008  0.260  0.002  0.002  0.273
    1  0.003  0.143  0.001  0.001  0.148
    2  0.006  0.128  0.002  0.001  0.137
tot    0.009  0.271  0.003  0.002  0.285
    1  0.002  0.031 -0.001  0.000  0.032
    2  0.002  0.031 -0.001  0.000  0.032
tot    0.004  0.063 -0.002  0.000  0.065
 
band     7 # energy   -2.37889448 # occ.  1.00000000
 
ion      s      p      d      f    tot
    1  0.001  0.350  0.018  0.004  0.373
    2  0.003  0.340  0.019  0.004  0.366
tot    0.004  0.691  0.036  0.008  0.739
    1 -0.001 -0.028  0.000 -0.000 -0.029
    2 -0.001 -0.028  0.000 -0.000 -0.029
tot   -0.001 -0.056  0.000 -0.000 -0.057
    1  0.000 -0.070 -0.001 -0.000 -0.070
    2 -0.003 -0.046 -0.002 -0.001 -0.052
tot   -0.003 -0.116 -0.003 -0.001 -0.122
    1  0.001 -0.110 -0.009 -0.001 -0.119
    2  0.001 -0.109 -0.009 -0.001 -0.119
tot    0.001 -0.219 -0.017 -0.003 -0.238
 
band     8 # energy   -2.37887595 # occ.  1.00000000
 
ion      s      p      d      f    tot
    1  0.003  0.340  0.019  0.004  0.366
    2  0.001  0.350  0.018  0.004  0.373
tot    0.004  0.691  0.036  0.008  0.739
    1  0.001  0.028 -0.000  0.000  0.029
    2  0.001  0.028 -0.000  0.000  0.029
tot    0.001  0.056 -0.000  0.000  0.057
    1  0.003  0.046  0.002  0.001  0.052
    2 -0.000  0.070  0.001  0.000  0.070
tot    0.003  0.116  0.003  0.001  0.122
    1 -0.001  0.109  0.009  0.001  0.119
    2 -0.001  0.110  0.009  0.001  0.119
tot   -0.001  0.219  0.017  0.003  0.238
 
band     9 # energy   -2.03318430 # occ.  1.00000000
 
ion      s      p      d      f    tot
    1  0.001  0.380  0.025  0.005  0.412
    2  0.001  0.381  0.025  0.005  0.412
tot    0.002  0.761  0.051  0.010  0.824
    1 -0.000  0.000  0.000  0.000  0.000
    2 -0.000  0.000  0.000  0.000  0.000
tot   -0.000  0.000  0.000  0.000  0.000
    1 -0.000  0.010 -0.000 -0.000  0.010
    2  0.000 -0.006  0.001  0.000 -0.005
tot   -0.000  0.005  0.000  0.000  0.005
    1 -0.001 -0.371 -0.025 -0.005 -0.402
    2 -0.001 -0.372 -0.025 -0.005 -0.402
tot   -0.002 -0.743 -0.050 -0.009 -0.804
 
band    10 # energy   -2.03315531 # occ.  1.00000000
 
ion      s      p      d      f    tot
    1  0.001  0.381  0.025  0.005  0.412
    2  0.001  0.380  0.025  0.005  0.412
tot    0.002  0.761  0.051  0.010  0.824
    1  0.000 -0.000 -0.000 -0.000 -0.000
    2  0.000 -0.000 -0.000 -0.000 -0.000
tot    0.000 -0.000 -0.000 -0.000 -0.000
    1 -0.000  0.006 -0.001 -0.000  0.005
    2  0.000 -0.010  0.000  0.000 -0.010
tot    0.000 -0.005 -0.000 -0.000 -0.005
    1  0.001  0.372  0.025  0.005  0.402
    2  0.001  0.371  0.025  0.005  0.402
tot    0.002  0.743  0.050  0.009  0.804
 
band    11 # energy   -0.75375292 # occ.  0.00000000
 
ion      s      p      d      f    tot
    1  0.135  0.187  0.017  0.007  0.346
    2  0.137  0.176  0.018  0.007  0.339
tot    0.272  0.363  0.035  0.015  0.685
    1 -0.081 -0.095 -0.010 -0.004 -0.189
    2 -0.081 -0.095 -0.010 -0.004 -0.189
tot   -0.162 -0.190 -0.019 -0.008 -0.379
    1 -0.079 -0.109 -0.009 -0.004 -0.201
    2 -0.083 -0.082 -0.010 -0.004 -0.179
tot   -0.162 -0.191 -0.019 -0.008 -0.381
    1 -0.074 -0.075 -0.008 -0.004 -0.161
    2 -0.074 -0.075 -0.008 -0.004 -0.160
tot   -0.147 -0.150 -0.016 -0.007 -0.321
 
band    12 # energy   -0.75364207 # occ.  0.00000000
 
ion      s      p      d      f    tot
    1  0.137  0.176  0.018  0.007  0.339
    2  0.135  0.187  0.017  0.007  0.346
tot    0.272  0.363  0.035  0.015  0.685
    1  0.081  0.095  0.010  0.004  0.189
    2  0.081  0.095  0.010  0.004  0.189
tot    0.162  0.190  0.019  0.008  0.379
    1  0.083  0.082  0.010  0.004  0.179
    2  0.079  0.109  0.009  0.004  0.201
tot    0.162  0.191  0.019  0.008  0.381
    1  0.074  0.075  0.008  0.004  0.160
    2  0.074  0.075  0.008  0.004  0.161
tot    0.147  0.150  0.016  0.007  0.321
 
band    13 # energy    0.29826356 # occ.  0.00000000
 
ion      s      p      d      f    tot
    1  0.009  0.324  0.027  0.005  0.366
    2  0.007  0.332  0.027  0.005  0.371
tot    0.017  0.656  0.053  0.011  0.737
    1 -0.001 -0.000 -0.000 -0.000 -0.002
    2 -0.001 -0.000 -0.000 -0.000 -0.002
tot   -0.003 -0.000 -0.000 -0.000 -0.004
    1 -0.007  0.004 -0.001 -0.000 -0.004
    2 -0.002 -0.015 -0.000 -0.000 -0.018
tot   -0.009 -0.011 -0.002 -0.000 -0.022
    1  0.007 -0.268 -0.021 -0.004 -0.286
    2  0.007 -0.268 -0.021 -0.004 -0.286
tot    0.013 -0.536 -0.041 -0.008 -0.572
 
band    14 # energy    0.29827821 # occ.  0.00000000
 
ion      s      p      d      f    tot
    1  0.007  0.332  0.027  0.005  0.371
    2  0.009  0.324  0.027  0.005  0.366
tot    0.017  0.656  0.053  0.011  0.737
    1  0.001  0.000  0.000  0.000  0.002
    2  0.001  0.000  0.000  0.000  0.002
tot    0.003  0.000  0.000  0.000  0.003
    1  0.002  0.015  0.000  0.000  0.018
    2  0.007 -0.004  0.001  0.000  0.004
tot    0.009  0.011  0.002  0.000  0.022
    1 -0.007  0.268  0.021  0.004  0.286
    2 -0.007  0.268  0.021  0.004  0.286
tot   -0.013  0.536  0.041  0.008  0.572
 
band    15 # energy    0.75806747 # occ.  0.00000000
 
ion      s      p      d      f    tot
    1  0.000  0.335  0.032  0.006  0.373
    2  0.000  0.335  0.032  0.006  0.373
tot    0.000  0.669  0.065  0.011  0.746
    1  0.000 -0.000 -0.000 -0.000 -0.000
    2  0.000 -0.000 -0.000 -0.000 -0.000
tot    0.000 -0.000 -0.000 -0.000 -0.000
    1 -0.000  0.003  0.000  0.000  0.003
    2 -0.000  0.003  0.000  0.000  0.003
tot   -0.000  0.006  0.000  0.000  0.006
    1 -0.000 -0.319 -0.031 -0.005 -0.355
    2 -0.000 -0.319 -0.031 -0.005 -0.355
tot   -0.000 -0.637 -0.061 -0.011 -0.710
 
band    16 # energy    0.75808667 # occ.  0.00000000
 
ion      s      p      d      f    tot
    1  0.000  0.335  0.032  0.006  0.373
    2  0.000  0.335  0.032  0.006  0.373
tot    0.000  0.669  0.065  0.011  0.746
    1 -0.000  0.000  0.000  0.000  0.000
    2 -0.000  0.000  0.000  0.000  0.000
tot   -0.000  0.000  0.000  0.000  0.000
    1  0.000 -0.003 -0.000 -0.000 -0.003
    2  0.000 -0.003 -0.000 -0.000 -0.003
tot    0.000 -0.006 -0.000 -0.000 -0.006
    1  0.000  0.319  0.031  0.005  0.355
    2  0.000  0.319  0.031  0.005  0.355
tot    0.000  0.637  0.061  0.011  0.710
 
band    17 # energy    2.09353289 # occ.  0.00000000
 
ion      s      p      d      f    tot
    1  0.000  0.016  0.027  0.001  0.044
    2  0.000  0.016  0.027  0.001  0.044
tot    0.000  0.032  0.054  0.002  0.089
    1 -0.000 -0.009 -0.017 -0.001 -0.027
    2 -0.000 -0.009 -0.017 -0.001 -0.027
tot   -0.000 -0.019 -0.033 -0.001 -0.054
    1 -0.000 -0.008 -0.015 -0.001 -0.024
    2 -0.000 -0.009 -0.015 -0.001 -0.025
tot   -0.000 -0.017 -0.031 -0.001 -0.049
    1 -0.000 -0.008 -0.015 -0.001 -0.024
    2 -0.000 -0.008 -0.015 -0.001 -0.024
tot   -0.000 -0.016 -0.030 -0.001 -0.047
 
band    18 # energy    2.09366861 # occ.  0.00000000
 
ion      s      p      d      f    tot
    1  0.000  0.016  0.027  0.001  0.044
    2  0.000  0.016  0.027  0.001  0.044
tot    0.000  0.032  0.054  0.002  0.089
    1  0.000  0.009  0.017  0.001  0.027
    2  0.000  0.009  0.017  0.001  0.027
tot    0.000  0.019  0.033  0.001  0.054
    1  0.000  0.009  0.015  0.001  0.025
    2  0.000  0.008  0.015  0.001  0.024
tot    0.000  0.017  0.031  0.001  0.049
    1  0.000  0.008  0.015  0.001  0.024
    2  0.000  0.008  0.015  0.001  0.024
tot    0.000  0.016  0.030  0.001  0.047
 
band    19 # energy    2.16776907 # occ.  0.00000000
 
ion      s      p      d      f    tot
    1  0.007  0.025  0.000  0.000  0.032
    2  0.007  0.025  0.000  0.000  0.032
tot    0.014  0.049  0.000  0.000  0.064
    1 -0.005 -0.018 -0.000 -0.000 -0.023
    2 -0.005 -0.018 -0.000 -0.000 -0.023
tot   -0.010 -0.036 -0.000 -0.000 -0.046