unknown system                          
           1
     4.113367    0.000000    0.000000
    -2.056683    3.562280    0.000000
     0.000000    0.000000   16.000000
   Sb
     2
Direct configuration=     1
   0.66666667  0.33333333  0.44862540
   0.33333333  0.66666667  0.55137460
