unknown system                          
   1.00000000000000     
     3.282343    0.000000    0.000000
    -1.641172    2.842593    0.000000
     0.000000    0.000000   16.000000
  P_GW/715c28f22
               2
Direct
  0.666667  0.333333  0.461183
  0.333333  0.666667  0.538817
 
   36   36  180
 0.57547E-05 0.58763E-05 0.64348E-05 0.76432E-05 0.83849E-05 0.91201E-05 0.86305E-05 0.99991E-05 0.88936E-05 0.96093E-05
 0.91595E-05 0.71523E-05 0.75514E-05 0.10726E-04 0.98004E-05 0.77399E-05 0.84815E-05 0.63638E-05 0.85061E-05 0.63638E-05
 0.84815E-05 0.77399E-05 0.98004E-05 0.10726E-04 0.75514E-05 0.71523E-05 0.91595E-05 0.96093E-05 0.88936E-05 0.99991E-05
 0.86305E-05 0.91201E-05 0.83849E-05 0.76432E-05 0.64348E-05 0.58763E-05 0.58890E-05 0.60286E-05 0.65598E-05 0.67247E-05
 0.71264E-05 0.70363E-05 0.78261E-05 0.65163E-05 0.78912E-05 0.73972E-05 0.84090E-05 0.10675E-04 0.97894E-05 0.66495E-05
 0.76720E-05 0.10206E-04 0.81997E-05 0.70912E-05 0.32899E-05 0.54700E-05 0.45626E-05 0.67727E-05 0.64459E-05 0.63954E-05
 0.10041E-04 0.10329E-04 0.86575E-05 0.81819E-05 0.81665E-05 0.67000E-05 0.77352E-05 0.69966E-05 0.72448E-05 0.71246E-05
 0.71275E-05 0.64374E-05 0.68503E-05 0.61308E-05 0.67862E-05 0.73781E-05 0.86188E-05 0.90596E-05 0.91058E-05 0.10107E-04
 0.93058E-05 0.97310E-05 0.95044E-05 0.67316E-05 0.81892E-05 0.98854E-05 0.92815E-05 0.42704E-05 0.33561E-05 0.38174E-05
 0.73241E-05 0.42226E-05 0.60323E-05 0.49710E-05 0.63308E-05 0.65398E-05 0.48738E-05 0.66668E-05 0.97630E-05 0.98157E-05
 0.10216E-04 0.10375E-04 0.91990E-05 0.90053E-05 0.88272E-05 0.79468E-05 0.75201E-05 0.66984E-05 0.66753E-05 0.77047E-05
 0.68273E-05 0.77544E-05 0.68591E-05 0.76692E-05 0.73084E-05 0.71081E-05 0.75777E-05 0.82539E-05 0.83528E-05 0.12134E-04
 0.87311E-05 0.66563E-05 0.40348E-05 0.48959E-05 0.93680E-05 0.62988E-05 -.57332E-05 -.72001E-05 -.97599E-05 -.46852E-05
 -.11872E-05 0.37103E-05 0.69026E-05 0.67213E-05 0.62821E-05 0.92269E-05 0.83249E-05 0.85553E-05 0.82067E-05 0.81762E-05
 0.71104E-05 0.80831E-05 0.73960E-05 0.81052E-05 0.73055E-05 0.81920E-05 0.71240E-05 0.89072E-05 0.82130E-05 0.10029E-04
 0.82115E-05 0.10909E-04 0.84708E-05 0.11122E-04 0.91281E-05 0.80518E-05 0.73307E-05 0.10657E-04 0.20286E-05 0.78660E-05
 -.45505E-05 -.19616E-04 -.15342E-04 -.10991E-04 -.77363E-05 -.94900E-05 -.12334E-04 -.99745E-05 -.59503E-05 0.41412E-05
 0.52879E-05 0.69429E-05 0.94251E-05 0.11433E-04 0.97326E-05 0.10721E-04 0.88768E-05 0.91566E-05 0.73323E-05 0.83124E-05
 0.69347E-05 0.92344E-05 0.72885E-05 0.88895E-05 0.67650E-05 0.79358E-05 0.66394E-05 0.68400E-05 0.71123E-05 0.81698E-05
 0.88021E-05 0.12250E-04 0.94460E-05 0.33372E-05 0.41000E-05 0.46020E-05 -.18428E-04 -.23666E-05 0.68244E-05 0.13583E-04
 0.64610E-05 0.98858E-05 0.74619E-05 0.40112E-05 -.75620E-05 -.99545E-05 -.18144E-05 0.63915E-05 0.30811E-05 0.85614E-05
 0.77792E-05 0.10036E-04 0.74556E-05 0.93937E-05 0.72342E-05 0.91968E-05 0.81714E-05 0.82734E-05 0.82274E-05 0.87357E-05
 0.88318E-05 0.92870E-05 0.84777E-05 0.97931E-05 0.88192E-05 0.10258E-04 0.10256E-04 0.68634E-05 0.88707E-05 0.67146E-05
 0.67057E-05 -.78224E-05 -.15448E-04 0.41342E-05 0.49519E-06 -.19715E-04 -.33933E-04 -.37826E-04 -.31147E-04 -.10881E-04
 0.41147E-05 0.33727E-05 -.12868E-04 -.50984E-05 0.57751E-05 0.60865E-05 0.89722E-05 0.10427E-04 0.10353E-04 0.96340E-05
 0.83206E-05 0.81825E-05 0.61660E-05 0.10365E-04 0.66874E-05 0.99734E-05 0.59960E-05 0.84884E-05 0.54971E-05 0.69839E-05
 0.58519E-05 0.82574E-05 0.80716E-05 0.13062E-04 0.89475E-05 0.28557E-05 0.46233E-05 -.70513E-05 -.10331E-04 0.13727E-04
 -.18397E-04 -.38273E-04 -.55606E-04 -.51172E-04 -.57827E-04 -.56325E-04 -.46833E-04 -.10767E-04 0.60551E-05 -.81091E-05
 -.11809E-04 0.59806E-05 0.17906E-05 0.10209E-04 0.65213E-05 0.11424E-04 0.69551E-05 0.10546E-04 0.88876E-05 0.78864E-05
 0.88842E-05 0.85499E-05 0.95441E-05 0.93056E-05 0.92722E-05 0.96892E-05 0.91664E-05 0.97104E-05 0.10395E-04 0.62361E-05
 0.95564E-05 0.67496E-05 0.68658E-05 -.12219E-04 -.68803E-05 0.26716E-05 -.33525E-04 -.57924E-04 -.54106E-04 -.41940E-04
 -.36618E-04 -.36615E-04 -.51569E-04 -.57975E-04 -.32466E-04 0.77631E-05 -.74900E-05 -.79682E-05 0.62281E-05 0.52707E-05
 0.10498E-04 0.93007E-05 0.97943E-05 0.81580E-05 0.66153E-05 0.10404E-04 0.71557E-05 0.10278E-04 0.70500E-05 0.89784E-05
 0.68064E-05 0.74132E-05 0.67084E-05 0.75726E-05 0.80759E-05 0.12539E-04 0.97876E-05 0.32228E-05 0.50783E-05 -.40386E-05
 -.92451E-05 0.10655E-04 -.37165E-04 -.50614E-04 -.40688E-04 -.16603E-04 -.11817E-04 -.11881E-04 -.23441E-04 -.37267E-04
 -.58087E-04 -.37638E-04 0.47648E-05 -.89482E-05 -.85500E-05 0.71956E-05 0.28685E-05 0.11253E-04 0.72404E-05 0.11186E-04
 0.93487E-05 0.82046E-05 0.92815E-05 0.91283E-05 0.10397E-04 0.10798E-04 0.10911E-04 0.11716E-04 0.10590E-04 0.10876E-04
 0.10176E-04 0.61161E-05 0.89613E-05 0.93417E-05 0.60506E-05 -.34232E-05 -.12683E-04 0.43256E-05 -.32043E-04 -.59516E-04
 -.37931E-04 -.12611E-04 0.34647E-05 0.99264E-05 0.36525E-05 -.14130E-04 -.37308E-04 -.55287E-04 -.32271E-04 0.96992E-05
 -.12212E-04 0.18131E-06 0.65564E-05 0.70576E-05 0.95401E-05 0.84531E-05 0.11603E-04 0.62341E-05 0.11602E-04 0.67157E-05
 0.11422E-04 0.56093E-05 0.10857E-04 0.47780E-05 0.10683E-04 0.50940E-05 0.10761E-04 0.10442E-04 0.11846E-04 0.38267E-05
 0.58476E-05 0.53184E-05 -.10995E-04 0.58187E-05 -.11588E-04 -.55020E-04 -.36449E-04 -.11270E-04 0.94891E-05 0.74124E-05
 0.13555E-04 0.71150E-05 -.94845E-05 -.44711E-04 -.53533E-04 -.19056E-04 0.73662E-05 -.16591E-04 0.75135E-05 0.13005E-05
 0.11537E-04 0.58911E-05 0.78685E-05 0.94571E-05 0.80908E-05 0.93843E-05 0.87272E-05 0.11312E-04 0.96469E-05 0.12466E-04
 0.98796E-05 0.12462E-04 0.90893E-05 0.70810E-05 0.70425E-05 0.13393E-04 0.55492E-05 0.46561E-05 -.59260E-05 -.10631E-04
 0.34491E-05 -.48815E-04 -.52401E-04 -.24163E-04 0.39705E-05 0.13769E-04 0.14954E-04 0.87847E-05 0.37804E-05 -.20762E-04
 -.51245E-04 -.43319E-04 0.48908E-05 -.56913E-05 -.45538E-05 0.75509E-05 0.47755E-05 0.97134E-05 0.53729E-05 0.12015E-04
 0.49445E-05 0.11046E-04 0.42257E-05 0.65051E-05 0.89725E-06 0.43772E-05 0.13884E-05 0.55820E-05 0.41761E-05 0.13638E-04
 0.83590E-05 0.75763E-05 0.62861E-05 0.93908E-05 0.37583E-05 -.72857E-05 0.34761E-05 -.88843E-05 -.57389E-04 -.36063E-04
 -.14059E-04 0.74294E-05 0.87300E-05 0.17216E-04 0.47609E-05 -.95149E-05 -.41972E-04 -.54805E-04 -.16699E-04 0.71810E-05
 -.16408E-04 0.80957E-05 0.15989E-05 0.11765E-04 0.98515E-05 0.76105E-05 0.89107E-05 0.49532E-05 0.31590E-05 0.62387E-05
 0.72133E-05 0.84103E-05 0.69230E-05 0.80211E-05 0.59028E-05 0.13453E-05 0.52831E-05 0.11595E-04 0.10134E-04 0.40086E-05
 0.59750E-05 -.38115E-05 -.12871E-04 0.54874E-05 -.32737E-04 -.58144E-04 -.36694E-04 -.87507E-05 0.37044E-05 0.49867E-05
 0.33169E-05 -.88746E-05 -.36561E-04 -.54040E-04 -.30640E-04 0.96006E-05 -.11204E-04 -.26873E-06 0.59601E-05 0.63844E-05
 0.11483E-04 0.64799E-05 0.84256E-05 0.18481E-06 0.10529E-04 -.13243E-05 -.45436E-05 -.14628E-04 -.84805E-05 -.10769E-04
 0.50745E-06 0.60260E-05 0.87139E-05 0.29462E-06 0.77963E-05 0.10797E-04 0.68372E-05 0.91830E-05 -.34551E-05 -.62020E-05
 0.10510E-04 -.36857E-04 -.54356E-04 -.45160E-04 -.20100E-04 -.10555E-04 -.86808E-05 -.23340E-04 -.38205E-04 -.58746E-04
 -.34547E-04 0.39572E-05 -.68252E-05 -.93913E-05 0.91263E-05 0.30423E-05 0.10424E-04 0.62476E-05 0.48828E-05 0.83909E-05
 -.15290E-05 -.18182E-04 -.13047E-04 -.84428E-05 -.49321E-05 -.81904E-05 -.10930E-04 -.17391E-04 -.43009E-05 0.71722E-05
 0.78661E-05 0.11491E-05 0.99698E-05 -.92036E-06 0.72679E-05 -.13258E-04 -.62844E-05 0.48277E-05 -.30846E-04 -.53981E-04
 -.50776E-04 -.42839E-04 -.36178E-04 -.39639E-04 -.52158E-04 -.53712E-04 -.31532E-04 0.67014E-05 -.47148E-05 -.10731E-04
 0.75590E-05 0.26048E-05 0.12835E-04 0.63260E-06 0.10709E-04 -.11434E-05 -.14223E-04 -.11023E-04 0.10149E-04 0.34167E-05
 0.91350E-05 0.11897E-05 0.10992E-04 0.37973E-05 -.38396E-05 -.19110E-04 0.27122E-05 0.64469E-05 0.74903E-05 0.87401E-05
 0.73042E-05 0.72213E-05 -.48417E-05 -.89302E-05 0.12011E-04 -.20717E-04 -.42029E-04 -.57041E-04 -.52849E-04 -.60081E-04
 -.51457E-04 -.48578E-04 -.13700E-04 0.49206E-05 -.55998E-05 -.14639E-04 0.11114E-04 -.99226E-06 0.10263E-04 0.15173E-05
 0.86699E-05 -.65258E-05 -.12506E-04 0.72519E-05 0.27194E-05 -.16321E-04 -.31762E-04 -.35933E-04 -.30474E-04 -.17802E-04
 0.48886E-05 0.70735E-05 -.11155E-04 -.89538E-05 0.70824E-05 -.93067E-06 0.78902E-05 -.93067E-06 0.70824E-05 -.89538E-05
 -.11155E-04 0.70735E-05 0.48886E-05 -.17802E-04 -.30474E-04 -.35933E-04 -.31762E-04 -.16321E-04 0.27194E-05 0.72519E-05
 -.12506E-04 -.65258E-05 0.86699E-05 0.15173E-05 0.12835E-04 -.99226E-06 0.11114E-04 -.14639E-04 -.55998E-05 0.49206E-05
 -.13700E-04 -.48578E-04 -.51457E-04 -.60081E-04 -.52849E-04 -.57041E-04 -.42029E-04 -.20717E-04 0.12011E-04 -.89302E-05
 -.48417E-05 0.72213E-05 0.73042E-05 0.87401E-05 0.74903E-05 0.64469E-05 0.27122E-05 -.19110E-04 -.38396E-05 0.37973E-05
 0.10992E-04 0.11897E-05 0.91350E-05 0.34167E-05 0.10149E-04 -.11023E-04 -.14223E-04 -.11434E-05 0.10709E-04 0.63260E-06
 0.10424E-04 0.26048E-05 0.75590E-05 -.10731E-04 -.47148E-05 0.67014E-05 -.31532E-04 -.53712E-04 -.52158E-04 -.39639E-04
 -.36178E-04 -.42839E-04 -.50776E-04 -.53981E-04 -.30846E-04 0.48277E-05 -.62844E-05 -.13258E-04 0.72679E-05 -.92036E-06
 0.99698E-05 0.11491E-05 0.78661E-05 0.71722E-05 -.43009E-05 -.17391E-04 -.10930E-04 -.81904E-05 -.49321E-05 -.84428E-05
 -.13047E-04 -.18182E-04 -.15290E-05 0.83909E-05 0.48828E-05 0.62476E-05 0.11483E-04 0.30423E-05 0.91263E-05 -.93913E-05
 -.68252E-05 0.39572E-05 -.34547E-04 -.58746E-04 -.38205E-04 -.23340E-04 -.86808E-05 -.10555E-04 -.20100E-04 -.45160E-04
 -.54356E-04 -.36857E-04 0.10510E-04 -.62020E-05 -.34551E-05 0.91830E-05 0.68372E-05 0.10797E-04 0.77963E-05 0.29462E-06
 0.87139E-05 0.60260E-05 0.50745E-06 -.10769E-04 -.84805E-05 -.14628E-04 -.45436E-05 -.13243E-05 0.10529E-04 0.18481E-06
 0.84256E-05 0.64799E-05 0.98515E-05 0.63844E-05 0.59601E-05 -.26873E-06 -.11204E-04 0.96006E-05 -.30640E-04 -.54040E-04
 -.36561E-04 -.88746E-05 0.33169E-05 0.49867E-05 0.37044E-05 -.87507E-05 -.36694E-04 -.58144E-04 -.32737E-04 0.54874E-05
 -.12871E-04 -.38115E-05 0.59750E-05 0.40086E-05 0.10134E-04 0.11595E-04 0.52831E-05 0.13453E-05 0.59028E-05 0.80211E-05
 0.69230E-05 0.84103E-05 0.72133E-05 0.62387E-05 0.31590E-05 0.49532E-05 0.89107E-05 0.76105E-05 0.53729E-05 0.11765E-04
 0.15989E-05 0.80957E-05 -.16408E-04 0.71810E-05 -.16699E-04 -.54805E-04 -.41972E-04 -.95149E-05 0.47609E-05 0.17216E-04
 0.87300E-05 0.74294E-05 -.14059E-04 -.36063E-04 -.57389E-04 -.88843E-05 0.34761E-05 -.72857E-05 0.37583E-05 0.93908E-05
 0.62861E-05 0.75763E-05 0.83590E-05 0.13638E-04 0.41761E-05 0.55820E-05 0.13884E-05 0.43772E-05 0.89725E-06 0.65051E-05
 0.42257E-05 0.11046E-04 0.49445E-05 0.12015E-04 0.78685E-05 0.97134E-05 0.47755E-05 0.75509E-05 -.45538E-05 -.56913E-05
 0.48908E-05 -.43319E-04 -.51245E-04 -.20762E-04 0.37805E-05 0.87847E-05 0.14954E-04 0.13769E-04 0.39705E-05 -.24163E-04
 -.52401E-04 -.48815E-04 0.34491E-05 -.10631E-04 -.59260E-05 0.46561E-05 0.55492E-05 0.13393E-04 0.70425E-05 0.70810E-05
 0.90893E-05 0.12462E-04 0.98796E-05 0.12466E-04 0.96469E-05 0.11312E-04 0.87272E-05 0.93843E-05 0.80908E-05 0.94571E-05
 0.11603E-04 0.58911E-05 0.11537E-04 0.13005E-05 0.75135E-05 -.16591E-04 0.73662E-05 -.19056E-04 -.53533E-04 -.44711E-04
 -.94845E-05 0.71150E-05 0.13555E-04 0.74124E-05 0.94891E-05 -.11270E-04 -.36449E-04 -.55020E-04 -.11588E-04 0.58187E-05
 -.10995E-04 0.53184E-05 0.58476E-05 0.38267E-05 0.11846E-04 0.10442E-04 0.10761E-04 0.50940E-05 0.10683E-04 0.47780E-05
 0.10857E-04 0.56093E-05 0.11422E-04 0.67157E-05 0.11602E-04 0.62341E-05 0.93487E-05 0.84531E-05 0.95401E-05 0.70576E-05
 0.65564E-05 0.18131E-06 -.12212E-04 0.96992E-05 -.32271E-04 -.55287E-04 -.37308E-04 -.14130E-04 0.36525E-05 0.99264E-05
 0.34647E-05 -.12611E-04 -.37931E-04 -.59516E-04 -.32043E-04 0.43256E-05 -.12683E-04 -.34232E-05 0.60506E-05 0.93417E-05
 0.89613E-05 0.61161E-05 0.10176E-04 0.10876E-04 0.10590E-04 0.11716E-04 0.10911E-04 0.10798E-04 0.10397E-04 0.91283E-05
 0.92815E-05 0.82046E-05 0.66153E-05 0.11186E-04 0.72404E-05 0.11253E-04 0.28685E-05 0.71956E-05 -.85500E-05 -.89482E-05
 0.47648E-05 -.37638E-04 -.58087E-04 -.37267E-04 -.23441E-04 -.11881E-04 -.11817E-04 -.16603E-04 -.40688E-04 -.50614E-04
 -.37165E-04 0.10655E-04 -.92451E-05 -.40386E-05 0.50783E-05 0.32228E-05 0.97876E-05 0.12539E-04 0.80759E-05 0.75726E-05
 0.67084E-05 0.74132E-05 0.68064E-05 0.89784E-05 0.70500E-05 0.10278E-04 0.71557E-05 0.10404E-04 0.88876E-05 0.81580E-05
 0.97943E-05 0.93007E-05 0.10498E-04 0.52707E-05 0.62281E-05 -.79682E-05 -.74900E-05 0.77631E-05 -.32466E-04 -.57975E-04
 -.51569E-04 -.36615E-04 -.36618E-04 -.41940E-04 -.54106E-04 -.57924E-04 -.33525E-04 0.26716E-05 -.68803E-05 -.12219E-04
 0.68658E-05 0.67496E-05 0.95564E-05 0.62361E-05 0.10395E-04 0.97104E-05 0.91664E-05 0.96892E-05 0.92722E-05 0.93056E-05
 0.95441E-05 0.85499E-05 0.88842E-05 0.78864E-05 0.61660E-05 0.10546E-04 0.69551E-05 0.11424E-04 0.65213E-05 0.10209E-04
 0.17906E-05 0.59806E-05 -.11809E-04 -.81091E-05 0.60551E-05 -.10767E-04 -.46833E-04 -.56325E-04 -.57827E-04 -.51172E-04
 -.55606E-04 -.38273E-04 -.18397E-04 0.13727E-04 -.10331E-04 -.70513E-05 0.46233E-05 0.28557E-05 0.89475E-05 0.13062E-04
 0.80716E-05 0.82574E-05 0.58519E-05 0.69839E-05 0.54971E-05 0.84884E-05 0.59960E-05 0.99734E-05 0.66874E-05 0.10365E-04
 0.81714E-05 0.81825E-05 0.83206E-05 0.96340E-05 0.10353E-04 0.10427E-04 0.89722E-05 0.60865E-05 0.57751E-05 -.50984E-05
 -.12868E-04 0.33727E-05 0.41147E-05 -.10881E-04 -.31147E-04 -.37826E-04 -.33933E-04 -.19715E-04 0.49519E-06 0.41342E-05
 -.15448E-04 -.78224E-05 0.67057E-05 0.67146E-05 0.88707E-05 0.68634E-05 0.10256E-04 0.10258E-04 0.88192E-05 0.97931E-05
 0.84777E-05 0.92870E-05 0.88318E-05 0.87357E-05 0.82274E-05 0.82734E-05 0.69347E-05 0.91968E-05 0.72342E-05 0.93937E-05
 0.74556E-05 0.10036E-04 0.77792E-05 0.85614E-05 0.30811E-05 0.63915E-05 -.18144E-05 -.99545E-05 -.75620E-05 0.40112E-05
 0.74619E-05 0.98858E-05 0.64610E-05 0.13583E-04 0.68244E-05 -.23666E-05 -.18428E-04 0.46020E-05 0.41000E-05 0.33372E-05
 0.94460E-05 0.12250E-04 0.88021E-05 0.81698E-05 0.71123E-05 0.68400E-05 0.66394E-05 0.79358E-05 0.67650E-05 0.88895E-05
 0.72885E-05 0.92344E-05 0.73055E-05 0.83124E-05 0.73323E-05 0.91566E-05 0.88768E-05 0.10721E-04 0.97326E-05 0.11433E-04
 0.94251E-05 0.69429E-05 0.52879E-05 0.41412E-05 -.59503E-05 -.99745E-05 -.12334E-04 -.94900E-05 -.77363E-05 -.10991E-04
 -.15342E-04 -.19616E-04 -.45505E-05 0.78660E-05 0.20286E-05 0.10657E-04 0.73307E-05 0.80518E-05 0.91281E-05 0.11122E-04
 0.84708E-05 0.10909E-04 0.82115E-05 0.10029E-04 0.82130E-05 0.89072E-05 0.71240E-05 0.81920E-05 0.66753E-05 0.81052E-05
 0.73960E-05 0.80831E-05 0.71104E-05 0.81762E-05 0.82067E-05 0.85553E-05 0.83249E-05 0.92269E-05 0.62821E-05 0.67213E-05
 0.69026E-05 0.37103E-05 -.11872E-05 -.46852E-05 -.97599E-05 -.72001E-05 -.57332E-05 0.62988E-05 0.93680E-05 0.48959E-05
 0.40348E-05 0.66563E-05 0.87311E-05 0.12134E-04 0.83528E-05 0.82539E-05 0.75777E-05 0.71081E-05 0.73084E-05 0.76692E-05
 0.68591E-05 0.77544E-05 0.68273E-05 0.77047E-05 0.68503E-05 0.66984E-05 0.75201E-05 0.79468E-05 0.88272E-05 0.90053E-05
 0.91990E-05 0.10375E-04 0.10216E-04 0.98157E-05 0.97630E-05 0.66668E-05 0.48738E-05 0.65398E-05 0.63308E-05 0.49710E-05
 0.60323E-05 0.42226E-05 0.73241E-05 0.38174E-05 0.33561E-05 0.42704E-05 0.92815E-05 0.98854E-05 0.81892E-05 0.67316E-05
 0.95044E-05 0.97310E-05 0.93058E-05 0.10107E-04 0.91058E-05 0.90596E-05 0.86188E-05 0.73781E-05 0.67862E-05 0.61308E-05
 0.58890E-05 0.64374E-05 0.71275E-05 0.71246E-05 0.72448E-05 0.69966E-05 0.77352E-05 0.67000E-05 0.81665E-05 0.81819E-05
 0.86575E-05 0.10329E-04 0.10041E-04 0.63954E-05 0.64459E-05 0.67727E-05 0.45626E-05 0.54700E-05 0.32899E-05 0.70912E-05
 0.81997E-05 0.10206E-04 0.76720E-05 0.66495E-05 0.97894E-05 0.10675E-04 0.84090E-05 0.73972E-05 0.78912E-05 0.65163E-05
 0.78261E-05 0.70363E-05 0.71264E-05 0.67247E-05 0.65598E-05 0.60286E-05 0.49268E-05 0.52198E-05 0.54175E-05 0.68286E-05
 0.67382E-05 0.76783E-05 0.69112E-05 0.90105E-05 0.67159E-05 0.83896E-05 0.70556E-05 0.42400E-05 0.88488E-05 0.11947E-04
 0.72996E-05 0.56752E-05 0.53939E-05 0.85062E-06 0.28323E-05 -.92372E-07 0.44937E-05 0.45464E-05 0.64036E-05 0.12515E-04
 0.88534E-05 0.35269E-05 0.75231E-05 0.90900E-05 0.70315E-05 0.97166E-05 0.69147E-05 0.78196E-05 0.67226E-05 0.69451E-05
 0.53665E-05 0.52132E-05 0.53034E-05 0.51140E-05 0.58158E-05 0.53021E-05 0.63631E-05 0.59907E-05 0.72573E-05 0.53324E-05
 0.78281E-05 0.64896E-05 0.81804E-05 0.11182E-04 0.73736E-05 0.44103E-05 0.94139E-05 0.98911E-05 0.90644E-05 0.12939E-04
 0.97992E-05 0.12398E-04 0.89338E-05 0.10021E-04 0.82961E-05 0.21954E-05 0.64962E-05 0.12870E-04 0.90192E-05 0.67696E-05
 0.85007E-05 0.49419E-05 0.73007E-05 0.57352E-05 0.63994E-05 0.54104E-05 0.62250E-05 0.54139E-05 0.58073E-05 0.54316E-05
 0.56981E-05 0.65028E-05 0.67498E-05 0.72955E-05 0.70852E-05 0.89479E-05 0.73935E-05 0.86365E-05 0.80517E-05 0.51863E-05
 0.92679E-05 0.12126E-04 0.69245E-05 0.67127E-05 0.86293E-05 -.16051E-06 -.38108E-06 -.51809E-05 -.41130E-06 -.27697E-06
 0.48468E-05 0.12641E-04 0.98670E-05 0.29630E-05 0.82330E-05 0.10408E-04 0.83158E-05 0.10639E-04 0.78229E-05 0.80783E-05
 0.71940E-05 0.70292E-05 0.60791E-05 0.56929E-05 0.55444E-05 0.67672E-05 0.58478E-05 0.64093E-05 0.58036E-05 0.66838E-05
 0.65445E-05 0.61868E-05 0.75984E-05 0.81108E-05 0.86715E-05 0.12642E-04 0.81299E-05 0.47808E-05 0.84827E-05 0.10766E-04
 -.77511E-06 0.65510E-05 0.81612E-05 0.15483E-04 0.10142E-04 0.11077E-04 0.46089E-05 -.18527E-05 0.25292E-05 0.13924E-04
 0.85569E-05 0.75039E-05 0.91791E-05 0.68820E-05 0.78450E-05 0.74035E-05 0.64014E-05 0.66802E-05 0.60711E-05 0.69013E-05
 0.61641E-05 0.69161E-05 0.61903E-05 0.77436E-05 0.67675E-05 0.78104E-05 0.65460E-05 0.91639E-05 0.71762E-05 0.93820E-05
 0.86828E-05 0.67259E-05 0.97811E-05 0.11589E-04 0.90824E-05 -.29322E-05 0.55814E-05 0.13743E-04 0.93995E-05 -.14376E-05
 -.17053E-05 0.12799E-05 0.89282E-05 0.18646E-04 0.93233E-05 -.16443E-05 0.54177E-05 0.11351E-04 0.74933E-05 0.12558E-04
 0.86446E-05 0.10090E-04 0.77482E-05 0.83595E-05 0.61947E-05 0.68687E-05 0.58027E-05 0.79107E-05 0.62056E-05 0.75529E-05
 0.57434E-05 0.74692E-05 0.58970E-05 0.67772E-05 0.67965E-05 0.93878E-05 0.81389E-05 0.14421E-04 0.67495E-05 0.77010E-05
 0.35395E-05 0.49190E-05 0.16908E-04 0.49319E-05 -.17890E-04 -.17838E-04 -.21429E-04 -.17998E-04 -.20692E-04 -.16303E-04
 0.22668E-05 0.18981E-04 0.47187E-05 0.28852E-05 0.87007E-05 0.64600E-05 0.86139E-05 0.88807E-05 0.75135E-05 0.80199E-05
 0.65010E-05 0.78446E-05 0.66166E-05 0.74309E-05 0.65567E-05 0.82431E-05 0.68878E-05 0.79346E-05 0.60868E-05 0.89807E-05
 0.64915E-05 0.95271E-05 0.82031E-05 0.78473E-05 0.84241E-05 0.13608E-04 0.11917E-05 0.66929E-05 0.90919E-05 -.20778E-04
 -.17206E-04 -.45175E-05 0.12944E-04 0.15672E-04 0.12929E-04 0.25609E-05 -.17157E-04 -.17432E-04 0.92981E-05 0.10003E-04
 0.16895E-05 0.11703E-04 0.79937E-05 0.10932E-04 0.89050E-05 0.95441E-05 0.70799E-05 0.75096E-05 0.50258E-05 0.94405E-05
 0.51163E-05 0.89400E-05 0.43898E-05 0.88290E-05 0.43305E-05 0.79567E-05 0.49027E-05 0.10650E-04 0.63264E-05 0.15750E-04
 0.48709E-05 0.93433E-05 -.15662E-05 0.15034E-04 0.87940E-06 -.16510E-04 -.25249E-05 0.28350E-04 0.29732E-04 0.34690E-04
 0.29742E-04 0.31426E-04 0.22854E-04 0.42556E-05 -.22772E-04 0.38355E-05 0.79273E-05 0.10562E-05 0.67104E-05 0.91337E-05
 0.73096E-05 0.10176E-04 0.63870E-05 0.97228E-05 0.68379E-05 0.78409E-05 0.64058E-05 0.83974E-05 0.67042E-05 0.79141E-05
 0.57791E-05 0.87111E-05 0.57941E-05 0.87596E-05 0.73346E-05 0.76619E-05 0.79767E-05 0.13357E-04 0.87731E-06 0.95502E-05
 -.19346E-05 -.23533E-04 0.12687E-04 0.27935E-04 0.26100E-04 0.99357E-05 0.68419E-05 0.14302E-04 0.23940E-04 0.27778E-04
 0.12087E-04 -.20318E-04 0.13782E-06 0.12813E-04 0.17939E-05 0.10909E-04 0.78581E-05 0.10775E-04 0.76813E-05 0.86022E-05
 0.74000E-05 0.78927E-05 0.68682E-05 0.71452E-05 0.59649E-05 0.74634E-05 0.62784E-05 0.68291E-05 0.64888E-05 0.88837E-05
 0.70061E-05 0.13254E-04 0.57763E-05 0.79550E-05 0.14843E-05 0.11522E-04 0.24113E-05 -.15893E-04 0.16439E-04 0.35191E-04
 0.10696E-04 -.10245E-04 -.25085E-04 -.27807E-04 -.12880E-04 0.14372E-04 0.28994E-04 0.16190E-04 -.22200E-04 0.83492E-06
 0.80166E-05 0.25536E-05 0.91011E-05 0.77933E-05 0.91624E-05 0.85474E-05 0.74942E-05 0.79536E-05 0.66571E-05 0.81971E-05
 0.68947E-05 0.75342E-05 0.61655E-05 0.86300E-05 0.63088E-05 0.80144E-05 0.70790E-05 0.64076E-05 0.83553E-05 0.11773E-04
 0.48218E-05 0.41570E-05 0.77964E-05 -.22860E-04 0.12093E-04 0.28065E-04 0.62760E-05 -.25636E-04 -.41058E-04 -.42217E-04
 -.42807E-04 -.29168E-04 0.44076E-05 0.30708E-04 0.12251E-04 -.18053E-04 0.95747E-05 0.67641E-05 0.59473E-05 0.99831E-05
 0.77665E-05 0.89552E-05 0.11347E-04 0.40900E-05 0.11194E-04 0.24518E-05 0.10274E-04 0.26728E-05 0.11398E-04 0.22013E-05
 0.12495E-04 0.39182E-05 0.12903E-04 0.62097E-05 0.11997E-04 0.16183E-06 0.12817E-04 -.13570E-05 0.18493E-04 -.14304E-04
 0.23464E-05 0.32549E-04 0.14181E-04 -.26970E-04 -.42512E-04 -.61448E-04 -.48697E-04 -.47517E-04 -.21371E-04 0.48609E-05
 0.35403E-04 -.82614E-05 -.99072E-05 0.91438E-05 0.56188E-05 0.47004E-05 0.11228E-04 0.51400E-05 0.89493E-05 0.64843E-05
 0.75169E-05 0.67820E-05 0.71254E-05 0.47826E-05 0.52293E-05 0.56869E-05 0.58000E-05 0.55264E-05 0.77240E-05 0.47132E-05
 0.10420E-04 0.91187E-05 0.93304E-05 0.18116E-05 0.81608E-05 -.44800E-06 -.17961E-04 0.21222E-04 0.23582E-04 -.13498E-04
 -.42543E-04 -.48414E-04 -.57128E-04 -.56616E-04 -.42682E-04 -.11284E-04 0.24229E-04 0.27446E-04 -.16763E-04 0.41903E-05
 0.99777E-05 0.38314E-05 0.95221E-05 0.63125E-05 0.41315E-05 0.10691E-04 0.32320E-05 0.81261E-05 0.84144E-07 0.90317E-05
 0.15305E-05 0.84040E-05 0.20948E-05 0.11012E-04 0.24854E-05 0.13480E-04 0.14200E-05 0.10497E-04 0.29190E-05 0.13894E-04
 -.16312E-05 0.21006E-04 -.17626E-04 0.55911E-05 0.28069E-04 0.15468E-04 -.29261E-04 -.47358E-04 -.56704E-04 -.45244E-04
 -.50631E-04 -.21107E-04 0.57266E-05 0.35119E-04 -.61262E-05 -.99341E-05 0.97026E-05 0.51305E-05 0.46951E-05 0.10674E-04
 0.63040E-05 0.78398E-05 0.39437E-05 0.64597E-05 0.48682E-05 0.33773E-06 -.41539E-05 -.27190E-05 -.43109E-05 -.15184E-05
 0.88089E-06 0.33757E-05 0.73511E-05 0.97304E-05 0.63909E-05 0.80394E-05 0.39339E-05 0.25882E-05 0.89938E-05 -.24050E-04
 0.11960E-04 0.28996E-04 0.47473E-05 -.20772E-04 -.42739E-04 -.50234E-04 -.41139E-04 -.23296E-04 0.69360E-05 0.34537E-04
 0.13125E-04 -.18570E-04 0.93870E-05 0.61108E-05 0.42998E-05 0.83078E-05 0.74817E-05 0.51463E-05 0.69410E-05 0.24463E-05
 -.58178E-05 -.63580E-05 0.14477E-05 -.44309E-06 0.36721E-05 -.94460E-06 -.26631E-07 -.28609E-05 0.89414E-06 0.10085E-05
 0.95225E-05 0.45687E-05 0.12026E-04 0.35169E-05 0.11268E-04 0.49306E-05 -.19217E-04 0.16717E-04 0.31825E-04 0.41485E-05
 -.10465E-04 -.22077E-04 -.22731E-04 -.14871E-04 0.12675E-04 0.27066E-04 0.18304E-04 -.22950E-04 0.36577E-05 0.67458E-05
 0.30959E-05 0.71761E-05 0.54450E-05 0.59538E-05 0.57513E-05 -.52486E-05 0.65556E-07 0.81133E-05 -.79973E-06 -.80191E-05
 -.13200E-04 -.96019E-05 -.30842E-05 0.21816E-06 0.10911E-05 -.50741E-06 0.17837E-05 0.65193E-05 0.39782E-05 0.56003E-05
 0.98787E-06 0.69484E-05 0.73644E-06 -.23101E-04 0.13011E-04 0.35499E-04 0.24437E-04 0.54118E-05 0.72562E-05 0.11432E-04
 0.27245E-04 0.33474E-04 0.14193E-04 -.20366E-04 -.19549E-06 0.10594E-04 0.99147E-07 0.78895E-05 0.70630E-05 0.43428E-05
 0.35031E-05 -.70072E-05 0.10971E-04 -.15068E-04 -.27597E-04 -.42466E-04 -.33280E-04 -.40798E-04 -.32179E-04 -.28967E-04
 -.64518E-05 -.33040E-05 0.26317E-05 -.41706E-05 0.11556E-04 0.35878E-05 0.12378E-04 0.30465E-06 0.15058E-04 0.71057E-06
 -.16994E-04 -.99557E-05 0.28470E-04 0.33215E-04 0.35198E-04 0.26344E-04 0.34899E-04 0.16504E-04 0.23422E-05 -.27016E-04
 0.51582E-05 0.69268E-05 0.24198E-05 0.53292E-05 0.36936E-05 0.73057E-05 -.32990E-05 0.20865E-05 0.40321E-06 -.29949E-04
 -.32616E-04 -.19432E-04 -.91273E-05 -.67871E-05 -.10251E-04 -.26247E-04 -.34747E-04 -.25355E-04 -.13382E-05 0.94803E-07
 -.32237E-05 0.28373E-05 0.42976E-05 0.43549E-05 0.89779E-06 0.74728E-05 0.99658E-05 -.10103E-04 -.17196E-04 -.63416E-05
 0.12984E-04 0.17262E-04 0.13742E-04 0.13040E-05 -.16038E-04 -.16735E-04 0.10819E-04 0.86966E-05 0.43861E-07 0.88445E-05
 0.72243E-05 0.45503E-05 -.12539E-05 0.42199E-06 -.63283E-05 -.41013E-04 -.17950E-04 -.73966E-05 0.64185E-05 -.25772E-05
 0.52049E-05 0.43740E-05 0.29614E-05 -.28741E-04 -.32626E-04 -.10775E-04 0.68897E-05 -.38128E-05 0.10079E-04 0.43694E-05
 0.12923E-04 0.70576E-07 0.88636E-05 0.62483E-05 0.60242E-05 -.12858E-04 -.16509E-04 -.23957E-04 -.17355E-04 -.27580E-04
 -.14700E-04 -.34588E-05 0.19559E-04 -.12262E-05 0.66587E-05 0.66553E-05 0.64815E-05 0.69902E-05 -.28804E-05 0.30682E-05
 -.11969E-04 -.36686E-04 -.83357E-05 0.49000E-05 -.36829E-05 -.20963E-04 -.25026E-04 -.25337E-04 -.57060E-05 0.72641E-05
 -.87209E-05 -.38772E-04 -.11205E-04 -.57445E-06 -.29973E-05 0.33162E-05 0.41146E-05 0.80001E-05 0.51212E-05 0.56677E-05
 0.91525E-05 0.95816E-05 0.89129E-05 0.30166E-05 -.65327E-06 0.44796E-05 0.10478E-04 0.17840E-04 0.72275E-05 -.46491E-06
 0.92761E-05 0.78893E-05 0.84790E-05 0.65703E-05 0.30052E-07 -.15281E-06 -.83338E-05 -.39144E-04 -.53161E-05 -.15205E-05
 -.19210E-04 -.47395E-04 -.55855E-04 -.55709E-04 -.42416E-04 -.25262E-04 0.39127E-05 -.56487E-05 -.34883E-04 -.72046E-05
 0.37588E-05 0.18882E-06 0.10277E-04 0.47002E-05 0.10737E-04 0.27065E-05 0.47089E-05 0.36598E-05 0.69302E-05 0.70348E-05
 0.12162E-04 0.75391E-05 0.91933E-05 0.10032E-06 -.68795E-06 0.65618E-05 0.99541E-05 0.71818E-05 0.70848E-05 0.78306E-05
 0.14472E-05 -.47922E-06 -.24501E-05 -.34811E-04 -.10097E-04 0.46883E-05 -.25130E-04 -.56296E-04 -.74302E-04 -.82185E-04
 -.75200E-04 -.53336E-04 -.25676E-04 0.13302E-05 -.10023E-04 -.38786E-04 -.24252E-05 -.43102E-05 0.61764E-06 0.68085E-05
 0.62758E-05 0.11524E-04 0.90196E-05 0.52106E-05 0.46262E-05 0.33889E-05 0.85620E-06 0.33443E-05 0.12726E-05 0.57757E-05
 0.94261E-05 0.10100E-04 0.62624E-05 0.95407E-05 0.55564E-05 0.91077E-05 0.30250E-05 -.12077E-05 0.21547E-06 -.25579E-04
 -.26019E-04 0.65965E-05 -.24624E-04 -.54309E-04 -.82463E-04 -.80274E-04 -.88581E-04 -.79604E-04 -.59947E-04 -.16068E-04
 0.19644E-05 -.15970E-04 -.30885E-04 0.10241E-04 -.59490E-05 0.10334E-04 0.32343E-05 0.85038E-05 0.28270E-05 0.14379E-04
 0.53524E-05 0.12655E-04 0.67709E-05 0.11044E-04 0.69148E-05 0.12074E-04 0.46418E-05 0.97751E-05 0.61740E-05 0.10891E-04
 0.89516E-05 0.56528E-05 0.73414E-05 -.82765E-06 0.13959E-05 -.93177E-05 -.34550E-04 0.16911E-05 -.59476E-05 -.43307E-04
 -.74994E-04 -.88463E-04 -.90118E-04 -.82291E-04 -.74883E-04 -.45325E-04 -.66909E-05 -.35126E-05 -.35505E-04 -.13712E-04
 0.24252E-06 -.21415E-05 0.75535E-05 0.96986E-05 0.10427E-04 0.40758E-05 0.84869E-05 0.73612E-05 0.82731E-05 0.94612E-05
 0.88249E-05 0.86613E-05 0.10442E-04 0.94302E-05 0.89298E-05 0.71782E-05 0.10103E-04 0.51901E-05 0.84679E-05 0.22318E-05
 -.14130E-05 -.40286E-06 -.25448E-04 -.27050E-04 0.71445E-05 -.24539E-04 -.54063E-04 -.79767E-04 -.82495E-04 -.92527E-04
 -.76537E-04 -.58775E-04 -.18389E-04 0.48852E-05 -.19517E-04 -.27674E-04 0.70348E-05 -.57882E-05 0.91392E-05 -.77360E-06
 0.10669E-04 0.81677E-05 0.12247E-04 0.57009E-05 0.13333E-04 0.51963E-05 0.13414E-04 0.65368E-05 0.12029E-04 0.53784E-05
 0.11493E-04 0.54066E-05 0.70449E-05 0.79921E-05 0.62781E-05 0.71465E-05 0.13750E-05 -.94511E-06 -.23417E-05 -.34081E-04
 -.98271E-05 0.24258E-05 -.26257E-04 -.59920E-04 -.75107E-04 -.76060E-04 -.74089E-04 -.58646E-04 -.26124E-04 -.11643E-05
 -.11124E-04 -.39330E-04 -.40462E-05 -.29495E-05 0.97957E-06 0.10881E-04 0.76174E-05 0.50879E-05 0.70971E-05 0.87017E-05
 0.75177E-05 0.11028E-04 0.84978E-05 0.10166E-04 0.92306E-05 0.10080E-04 0.76033E-05 0.80982E-05 0.71592E-05 0.73936E-05
 0.79103E-05 0.56807E-05 0.60732E-05 -.24527E-05 0.44949E-07 -.11017E-04 -.37801E-04 -.63964E-05 0.11897E-05 -.17446E-04
 -.44437E-04 -.59475E-04 -.57741E-04 -.43361E-04 -.21103E-04 0.50281E-05 -.71506E-05 -.32412E-04 -.98837E-05 0.32144E-05
 -.28484E-05 0.38584E-05 0.43944E-05 0.12970E-04 0.67601E-05 0.84240E-05 0.73337E-05 0.71846E-05 0.79999E-05 0.86012E-05
 0.75941E-05 0.79389E-05 0.78504E-05 0.78102E-05 0.65815E-05 0.78137E-05 0.65593E-05 0.87601E-05 0.53125E-05 0.68661E-05
 -.35470E-05 0.36109E-05 -.12149E-04 -.36438E-04 -.99510E-05 0.14182E-05 -.61849E-05 -.18101E-04 -.25049E-04 -.21877E-04
 -.49051E-05 0.17744E-06 -.10123E-04 -.40299E-04 -.14285E-04 0.86947E-06 -.43457E-05 0.10615E-04 0.55696E-05 0.48076E-05
 0.62032E-05 0.83151E-05 0.58533E-05 0.97260E-05 0.66551E-05 0.89497E-05 0.76002E-05 0.91317E-05 0.68182E-05 0.78741E-05
 0.54881E-05 0.86619E-05 0.59675E-05 0.82614E-05 0.58029E-05 0.59680E-05 0.33707E-05 -.43403E-05 -.47862E-07 -.87244E-05
 -.37614E-04 -.17659E-04 -.17263E-05 0.37288E-05 0.94611E-06 0.48042E-05 0.24623E-05 0.24996E-05 -.22093E-04 -.31782E-04
 -.10587E-04 0.60147E-05 -.63461E-05 0.35413E-05 0.22578E-05 0.13544E-04 0.50786E-05 0.86667E-05 0.49968E-05 0.67885E-05
 0.51564E-05 0.82832E-05 0.50819E-05 0.83087E-05 0.58646E-05 0.89478E-05 0.67109E-05 0.73014E-05 0.65939E-05 0.81612E-05
 0.71042E-05 0.82304E-05 0.50307E-05 0.70971E-05 -.36129E-05 0.14743E-05 -.25384E-05 -.31112E-04 -.34853E-04 -.19423E-04
 -.10080E-04 -.79143E-05 -.96237E-05 -.24126E-04 -.33686E-04 -.34554E-04 -.19514E-05 -.12820E-05 -.42520E-05 0.10120E-04
 0.49330E-05 0.37759E-05 0.59869E-05 0.81674E-05 0.57724E-05 0.92253E-05 0.61847E-05 0.81175E-05 0.69041E-05 0.81458E-05
 0.64401E-05 0.73684E-05 0.61572E-05 0.76550E-05 0.64731E-05 0.72125E-05 0.65152E-05 0.69985E-05 0.65060E-05 0.39665E-05
 0.52124E-05 -.21576E-05 -.24762E-05 0.69807E-05 -.10738E-04 -.30450E-04 -.36551E-04 -.34819E-04 -.37116E-04 -.33113E-04
 -.30607E-04 -.63922E-05 0.75409E-05 -.19040E-05 -.12872E-05 0.21689E-05 0.33601E-05 0.12019E-04 0.59849E-05 0.72943E-05
 0.61976E-05 0.56585E-05 0.61125E-05 0.69732E-05 0.57319E-05 0.68069E-05 0.62143E-05 0.76019E-05 0.63483E-05 0.70182E-05