   2   2   1   0
  0.7464293E+02  0.3282344E-09  0.3282344E-09  0.1600000E-08  0.5000000E-15
  1.000000000000000E-004
  CAR 
 unknown system                          
     11.45737679    -18.85042156 6001     -3.32271634      1.00000000
    -18.850  0.0000E+00  0.0000E+00
    -18.845  0.0000E+00  0.0000E+00
    -18.840  0.0000E+00  0.0000E+00
    -18.835  0.0000E+00  0.0000E+00
    -18.830  0.0000E+00  0.0000E+00
    -18.825  0.0000E+00  0.0000E+00
    -18.820  0.0000E+00  0.0000E+00
    -18.815  0.0000E+00  0.0000E+00
    -18.810  0.0000E+00  0.0000E+00
    -18.805  0.0000E+00  0.0000E+00
    -18.800  0.0000E+00  0.0000E+00
    -18.795  0.0000E+00  0.0000E+00
    -18.790  0.0000E+00  0.0000E+00
    -18.785  0.0000E+00  0.0000E+00
    -18.780  0.0000E+00  0.0000E+00
    -18.775  0.0000E+00  0.0000E+00
    -18.770  0.0000E+00  0.0000E+00
    -18.765  0.0000E+00  0.0000E+00
    -18.759  0.0000E+00  0.0000E+00
    -18.754  0.0000E+00  0.0000E+00
    -18.749  0.0000E+00  0.0000E+00
    -18.744  0.0000E+00  0.0000E+00
    -18.739  0.0000E+00  0.0000E+00
    -18.734  0.0000E+00  0.0000E+00
    -18.729  0.0000E+00  0.0000E+00
    -18.724  0.0000E+00  0.0000E+00
    -18.719  0.0000E+00  0.0000E+00
    -18.714  0.0000E+00  0.0000E+00
    -18.709  0.0000E+00  0.0000E+00
    -18.704  0.0000E+00  0.0000E+00
    -18.699  0.0000E+00  0.0000E+00
    -18.694  0.0000E+00  0.0000E+00
    -18.689  0.0000E+00  0.0000E+00
    -18.684  0.0000E+00  0.0000E+00
    -18.679  0.0000E+00  0.0000E+00
    -18.674  0.0000E+00  0.0000E+00
    -18.669  0.0000E+00  0.0000E+00
    -18.664  0.0000E+00  0.0000E+00
    -18.658  0.0000E+00  0.0000E+00
    -18.653  0.0000E+00  0.0000E+00
    -18.648  0.0000E+00  0.0000E+00
    -18.643  0.0000E+00  0.0000E+00
    -18.638  0.0000E+00  0.0000E+00
    -18.633  0.0000E+00  0.0000E+00
    -18.628  0.0000E+00  0.0000E+00
    -18.623  0.0000E+00  0.0000E+00
    -18.618  0.0000E+00  0.0000E+00
    -18.613  0.0000E+00  0.0000E+00
    -18.608  0.0000E+00  0.0000E+00
    -18.603  0.0000E+00  0.0000E+00
    -18.598  0.0000E+00  0.0000E+00
    -18.593  0.0000E+00  0.0000E+00
    -18.588  0.0000E+00  0.0000E+00
    -18.583  0.0000E+00  0.0000E+00
    -18.578  0.0000E+00  0.0000E+00
    -18.573  0.0000E+00  0.0000E+00
    -18.568  0.0000E+00  0.0000E+00
    -18.562  0.0000E+00  0.0000E+00
    -18.557  0.0000E+00  0.0000E+00
    -18.552  0.0000E+00  0.0000E+00
    -18.547  0.0000E+00  0.0000E+00
    -18.542  0.0000E+00  0.0000E+00
    -18.537  0.0000E+00  0.0000E+00
    -18.532  0.0000E+00  0.0000E+00
    -18.527  0.0000E+00  0.0000E+00
    -18.522  0.0000E+00  0.0000E+00
    -18.517  0.0000E+00  0.0000E+00
    -18.512  0.0000E+00  0.0000E+00
    -18.507  0.0000E+00  0.0000E+00
    -18.502  0.0000E+00  0.0000E+00
    -18.497  0.0000E+00  0.0000E+00
    -18.492  0.0000E+00  0.0000E+00
    -18.487  0.0000E+00  0.0000E+00
    -18.482  0.0000E+00  0.0000E+00
    -18.477  0.0000E+00  0.0000E+00
    -18.472  0.0000E+00  0.0000E+00
    -18.467  0.0000E+00  0.0000E+00
    -18.461  0.0000E+00  0.0000E+00
    -18.456  0.0000E+00  0.0000E+00
    -18.451  0.0000E+00  0.0000E+00
    -18.446  0.0000E+00  0.0000E+00
    -18.441  0.0000E+00  0.0000E+00
    -18.436  0.0000E+00  0.0000E+00
    -18.431  0.0000E+00  0.0000E+00
    -18.426  0.0000E+00  0.0000E+00
    -18.421  0.0000E+00  0.0000E+00
    -18.416  0.0000E+00  0.0000E+00
    -18.411  0.0000E+00  0.0000E+00
    -18.406  0.0000E+00  0.0000E+00
    -18.401  0.0000E+00  0.0000E+00
    -18.396  0.0000E+00  0.0000E+00
    -18.391  0.0000E+00  0.0000E+00
    -18.386  0.0000E+00  0.0000E+00
    -18.381  0.0000E+00  0.0000E+00
    -18.376  0.0000E+00  0.0000E+00
    -18.371  0.0000E+00  0.0000E+00
    -18.365  0.0000E+00  0.0000E+00
    -18.360  0.0000E+00  0.0000E+00
    -18.355  0.0000E+00  0.0000E+00
    -18.350  0.0000E+00  0.0000E+00
    -18.345  0.0000E+00  0.0000E+00
    -18.340  0.0000E+00  0.0000E+00
    -18.335  0.0000E+00  0.0000E+00
    -18.330  0.0000E+00  0.0000E+00
    -18.325  0.0000E+00  0.0000E+00
    -18.320  0.0000E+00  0.0000E+00
    -18.315  0.0000E+00  0.0000E+00
    -18.310  0.0000E+00  0.0000E+00
    -18.305  0.0000E+00  0.0000E+00
    -18.300  0.0000E+00  0.0000E+00
    -18.295  0.0000E+00  0.0000E+00
    -18.290  0.0000E+00  0.0000E+00
    -18.285  0.0000E+00  0.0000E+00
    -18.280  0.0000E+00  0.0000E+00
    -18.275  0.0000E+00  0.0000E+00
    -18.270  0.0000E+00  0.0000E+00
    -18.264  0.0000E+00  0.0000E+00
    -18.259  0.0000E+00  0.0000E+00
    -18.254  0.0000E+00  0.0000E+00
    -18.249  0.0000E+00  0.0000E+00
    -18.244  0.0000E+00  0.0000E+00
    -18.239  0.0000E+00  0.0000E+00
    -18.234  0.0000E+00  0.0000E+00
    -18.229  0.0000E+00  0.0000E+00
    -18.224  0.0000E+00  0.0000E+00
    -18.219  0.0000E+00  0.0000E+00
    -18.214  0.0000E+00  0.0000E+00
    -18.209  0.0000E+00  0.0000E+00
    -18.204  0.0000E+00  0.0000E+00
    -18.199  0.0000E+00  0.0000E+00
    -18.194  0.0000E+00  0.0000E+00
    -18.189  0.0000E+00  0.0000E+00
    -18.184  0.0000E+00  0.0000E+00
    -18.179  0.0000E+00  0.0000E+00
    -18.174  0.0000E+00  0.0000E+00
    -18.168  0.0000E+00  0.0000E+00
    -18.163  0.0000E+00  0.0000E+00
    -18.158  0.0000E+00  0.0000E+00
    -18.153  0.0000E+00  0.0000E+00
    -18.148  0.0000E+00  0.0000E+00
    -18.143  0.0000E+00  0.0000E+00
    -18.138  0.0000E+00  0.0000E+00
    -18.133  0.0000E+00  0.0000E+00
    -18.128  0.0000E+00  0.0000E+00
    -18.123  0.0000E+00  0.0000E+00
    -18.118  0.0000E+00  0.0000E+00
    -18.113  0.0000E+00  0.0000E+00
    -18.108  0.0000E+00  0.0000E+00
    -18.103  0.0000E+00  0.0000E+00
    -18.098  0.0000E+00  0.0000E+00
    -18.093  0.0000E+00  0.0000E+00
    -18.088  0.0000E+00  0.0000E+00
    -18.083  0.0000E+00  0.0000E+00
    -18.078  0.0000E+00  0.0000E+00
    -18.073  0.0000E+00  0.0000E+00
    -18.067  0.0000E+00  0.0000E+00
    -18.062  0.0000E+00  0.0000E+00
    -18.057  0.0000E+00  0.0000E+00
    -18.052  0.0000E+00  0.0000E+00
    -18.047  0.0000E+00  0.0000E+00
    -18.042  0.0000E+00  0.0000E+00
    -18.037  0.0000E+00  0.0000E+00
    -18.032  0.0000E+00  0.0000E+00
    -18.027  0.0000E+00  0.0000E+00
    -18.022  0.0000E+00  0.0000E+00
    -18.017  0.0000E+00  0.0000E+00
    -18.012  0.0000E+00  0.0000E+00
    -18.007  0.0000E+00  0.0000E+00
    -18.002  0.0000E+00  0.0000E+00
    -17.997  0.0000E+00  0.0000E+00
    -17.992  0.0000E+00  0.0000E+00
    -17.987  0.0000E+00  0.0000E+00
    -17.982  0.0000E+00  0.0000E+00
    -17.977  0.0000E+00  0.0000E+00
    -17.971  0.0000E+00  0.0000E+00
    -17.966  0.0000E+00  0.0000E+00
    -17.961  0.0000E+00  0.0000E+00
    -17.956  0.0000E+00  0.0000E+00
    -17.951  0.0000E+00  0.0000E+00
    -17.946  0.0000E+00  0.0000E+00
    -17.941  0.0000E+00  0.0000E+00
    -17.936  0.0000E+00  0.0000E+00
    -17.931  0.0000E+00  0.0000E+00
    -17.926  0.0000E+00  0.0000E+00
    -17.921  0.0000E+00  0.0000E+00
    -17.916  0.0000E+00  0.0000E+00
    -17.911  0.0000E+00  0.0000E+00
    -17.906  0.0000E+00  0.0000E+00
    -17.901  0.0000E+00  0.0000E+00
    -17.896  0.0000E+00  0.0000E+00
    -17.891  0.0000E+00  0.0000E+00
    -17.886  0.0000E+00  0.0000E+00
    -17.881  0.0000E+00  0.0000E+00
    -17.876  0.0000E+00  0.0000E+00
    -17.870  0.0000E+00  0.0000E+00
    -17.865  0.0000E+00  0.0000E+00
    -17.860  0.0000E+00  0.0000E+00
    -17.855  0.0000E+00  0.0000E+00
    -17.850  0.0000E+00  0.0000E+00
    -17.845  0.0000E+00  0.0000E+00
    -17.840  0.0000E+00  0.0000E+00
    -17.835  0.0000E+00  0.0000E+00
    -17.830  0.0000E+00  0.0000E+00
    -17.825  0.0000E+00  0.0000E+00
    -17.820  0.0000E+00  0.0000E+00
    -17.815  0.0000E+00  0.0000E+00
    -17.810  0.0000E+00  0.0000E+00
    -17.805  0.0000E+00  0.0000E+00
    -17.800  0.0000E+00  0.0000E+00
    -17.795  0.0000E+00  0.0000E+00
    -17.790  0.0000E+00  0.0000E+00
    -17.785  0.0000E+00  0.0000E+00
    -17.780  0.0000E+00  0.0000E+00
    -17.774  0.0000E+00  0.0000E+00
    -17.769  0.0000E+00  0.0000E+00
    -17.764  0.0000E+00  0.0000E+00
    -17.759  0.0000E+00  0.0000E+00
    -17.754  0.0000E+00  0.0000E+00
    -17.749  0.0000E+00  0.0000E+00
    -17.744  0.0000E+00  0.0000E+00
    -17.739  0.0000E+00  0.0000E+00
    -17.734  0.0000E+00  0.0000E+00
    -17.729  0.0000E+00  0.0000E+00
    -17.724  0.0000E+00  0.0000E+00
    -17.719  0.0000E+00  0.0000E+00
    -17.714  0.0000E+00  0.0000E+00
    -17.709  0.0000E+00  0.0000E+00
    -17.704  0.0000E+00  0.0000E+00
    -17.699  0.0000E+00  0.0000E+00
    -17.694  0.0000E+00  0.0000E+00
    -17.689  0.0000E+00  0.0000E+00
    -17.684  0.0000E+00  0.0000E+00
    -17.679  0.0000E+00  0.0000E+00
    -17.673  0.0000E+00  0.0000E+00
    -17.668  0.0000E+00  0.0000E+00
    -17.663  0.0000E+00  0.0000E+00
    -17.658  0.0000E+00  0.0000E+00
    -17.653  0.0000E+00  0.0000E+00
    -17.648  0.0000E+00  0.0000E+00
    -17.643  0.0000E+00  0.0000E+00
    -17.638  0.0000E+00  0.0000E+00
    -17.633  0.0000E+00  0.0000E+00
    -17.628  0.0000E+00  0.0000E+00
    -17.623  0.0000E+00  0.0000E+00
    -17.618  0.0000E+00  0.0000E+00
    -17.613  0.0000E+00  0.0000E+00
    -17.608  0.0000E+00  0.0000E+00
    -17.603  0.0000E+00  0.0000E+00
    -17.598  0.0000E+00  0.0000E+00
    -17.593  0.0000E+00  0.0000E+00
    -17.588  0.0000E+00  0.0000E+00
    -17.583  0.0000E+00  0.0000E+00
    -17.577  0.0000E+00  0.0000E+00
    -17.572  0.0000E+00  0.0000E+00
    -17.567  0.0000E+00  0.0000E+00
    -17.562  0.0000E+00  0.0000E+00
    -17.557  0.0000E+00  0.0000E+00
    -17.552  0.0000E+00  0.0000E+00
    -17.547  0.0000E+00  0.0000E+00
    -17.542  0.0000E+00  0.0000E+00
    -17.537  0.0000E+00  0.0000E+00
    -17.532  0.0000E+00  0.0000E+00
    -17.527  0.5158E-13  0.2605E-15
    -17.522  0.1065E-10  0.5408E-13
    -17.517  0.1337E-08  0.6807E-11
    -17.512  0.1022E-06  0.5229E-09
    -17.507  0.4766E-05  0.2460E-07
    -17.502  0.1361E-03  0.7120E-06
    -17.497  0.2386E-02  0.1276E-04
    -17.492  0.2579E-01  0.1430E-03
    -17.487  0.1728E+00  0.1016E-02
    -17.482  0.7246E+00  0.4676E-02
    -17.476  0.1929E+01  0.1442E-01
    -17.471  0.3349E+01  0.3134E-01
    -17.466  0.3982E+01  0.5145E-01
    -17.461  0.3561E+01  0.6944E-01
    -17.456  0.2814E+01  0.8365E-01
    -17.451  0.2255E+01  0.9504E-01
    -17.446  0.1849E+01  0.1044E+00
    -17.441  0.1676E+01  0.1129E+00
    -17.436  0.1679E+01  0.1213E+00
    -17.431  0.1458E+01  0.1287E+00
    -17.426  0.1147E+01  0.1345E+00
    -17.421  0.1236E+01  0.1407E+00
    -17.416  0.1499E+01  0.1483E+00
    -17.411  0.1327E+01  0.1550E+00
    -17.406  0.8477E+00  0.1593E+00
    -17.401  0.7229E+00  0.1629E+00
    -17.396  0.1123E+01  0.1686E+00
    -17.391  0.1473E+01  0.1761E+00
    -17.386  0.1233E+01  0.1823E+00
    -17.380  0.6682E+00  0.1857E+00
    -17.375  0.3936E+00  0.1876E+00
    -17.370  0.6620E+00  0.1910E+00
    -17.365  0.1226E+01  0.1972E+00
    -17.360  0.1468E+01  0.2046E+00
    -17.355  0.1082E+01  0.2101E+00
    -17.350  0.4986E+00  0.2126E+00
    -17.345  0.2101E+00  0.2136E+00
    -17.340  0.3474E+00  0.2154E+00
    -17.335  0.8604E+00  0.2197E+00
    -17.330  0.1390E+01  0.2268E+00
    -17.325  0.1381E+01  0.2337E+00
    -17.320  0.8417E+00  0.2380E+00
    -17.315  0.3176E+00  0.2396E+00
    -17.310  0.1028E+00  0.2401E+00
    -17.305  0.1797E+00  0.2410E+00
    -17.300  0.5698E+00  0.2439E+00
    -17.295  0.1169E+01  0.2498E+00
    -17.290  0.1473E+01  0.2573E+00
    -17.285  0.1138E+01  0.2630E+00
    -17.279  0.5390E+00  0.2657E+00
    -17.274  0.1577E+00  0.2665E+00
    -17.269  0.4272E-01  0.2667E+00
    -17.264  0.1008E+00  0.2672E+00
    -17.259  0.3910E+00  0.2692E+00
    -17.254  0.9564E+00  0.2740E+00
    -17.249  0.1435E+01  0.2813E+00
    -17.244  0.1320E+01  0.2880E+00
    -17.239  0.7443E+00  0.2917E+00
    -17.234  0.2573E+00  0.2930E+00
    -17.229  0.5518E-01  0.2933E+00
    -17.224  0.1620E-01  0.2934E+00
    -17.219  0.6745E-01  0.2937E+00
    -17.214  0.2986E+00  0.2952E+00
    -17.209  0.8160E+00  0.2994E+00
    -17.204  0.1367E+01  0.3063E+00
    -17.199  0.1403E+01  0.3133E+00
    -17.194  0.8836E+00  0.3178E+00
    -17.189  0.3410E+00  0.3195E+00
    -17.183  0.8061E-01  0.3199E+00
    -17.178  0.1225E-01  0.3200E+00
    -17.173  0.8543E-02  0.3200E+00
    -17.168  0.5735E-01  0.3203E+00
    -17.163  0.2670E+00  0.3217E+00
    -17.158  0.7618E+00  0.3255E+00
    -17.153  0.1332E+01  0.3323E+00
    -17.148  0.1428E+01  0.3395E+00
    -17.143  0.9385E+00  0.3442E+00
    -17.138  0.3781E+00  0.3461E+00
    -17.133  0.9329E-01  0.3466E+00
    -17.128  0.1411E-01  0.3467E+00
    -17.123  0.1993E-02  0.3467E+00
    -17.118  0.8539E-02  0.3467E+00
    -17.113  0.6289E-01  0.3470E+00
    -17.108  0.2856E+00  0.3485E+00
    -17.103  0.7941E+00  0.3525E+00
    -17.098  0.1353E+01  0.3593E+00
    -17.093  0.1414E+01  0.3665E+00
    -17.088  0.9057E+00  0.3710E+00
    -17.082  0.3556E+00  0.3728E+00
    -17.077  0.8550E-01  0.3733E+00
    -17.072  0.1257E-01  0.3733E+00
    -17.067  0.1194E-02  0.3733E+00
    -17.062  0.1248E-02  0.3733E+00
    -17.057  0.1309E-01  0.3734E+00
    -17.052  0.8821E-01  0.3739E+00
    -17.047  0.3635E+00  0.3757E+00
    -17.042  0.9174E+00  0.3803E+00
    -17.037  0.1419E+01  0.3875E+00
    -17.032  0.1346E+01  0.3943E+00
    -17.027  0.7826E+00  0.3982E+00
    -17.022  0.2789E+00  0.3996E+00
    -17.017  0.6085E-01  0.4000E+00
    -17.012  0.8116E-02  0.4000E+00
    -17.007  0.6683E-03  0.4000E+00
    -17.002  0.2231E-03  0.4000E+00
    -16.997  0.2900E-02  0.4000E+00
    -16.992  0.2693E-01  0.4002E+00
    -16.986  0.1528E+00  0.4009E+00
    -16.981  0.5308E+00  0.4036E+00
    -16.976  0.1129E+01  0.4093E+00
    -16.971  0.1472E+01  0.4167E+00
    -16.966  0.1178E+01  0.4227E+00
    -16.961  0.5773E+00  0.4256E+00
    -16.956  0.1734E+00  0.4265E+00
    -16.951  0.3187E-01  0.4266E+00
    -16.946  0.3579E-02  0.4267E+00
    -16.941  0.2465E-03  0.4267E+00
    -16.936  0.5151E-04  0.4267E+00
    -16.931  0.8035E-03  0.4267E+00
    -16.926  0.9525E-02  0.4267E+00
    -16.921  0.6894E-01  0.4271E+00
    -16.916  0.3051E+00  0.4286E+00
    -16.911  0.8268E+00  0.4328E+00
    -16.906  0.1373E+01  0.4397E+00
    -16.901  0.1398E+01  0.4468E+00
    -16.896  0.8728E+00  0.4512E+00
    -16.891  0.3340E+00  0.4529E+00
    -16.885  0.7825E-01  0.4533E+00
    -16.880  0.1121E-01  0.4533E+00
    -16.875  0.9806E-03  0.4533E+00
    -16.870  0.5265E-04  0.4533E+00
    -16.865  0.1558E-04  0.4533E+00
    -16.860  0.3183E-03  0.4533E+00
    -16.855  0.4443E-02  0.4534E+00
    -16.850  0.3785E-01  0.4535E+00
    -16.845  0.1971E+00  0.4545E+00
    -16.840  0.6279E+00  0.4577E+00
    -16.835  0.1226E+01  0.4639E+00
    -16.830  0.1467E+01  0.4713E+00
    -16.825  0.1076E+01  0.4768E+00
    -16.820  0.4843E+00  0.4792E+00
    -16.815  0.1335E+00  0.4799E+00
    -16.810  0.2250E-01  0.4800E+00
    -16.805  0.2317E-02  0.4800E+00
    -16.800  0.1455E-03  0.4800E+00
    -16.795  0.5762E-05  0.4800E+00
    -16.789  0.8259E-05  0.4800E+00
    -16.784  0.2014E-03  0.4800E+00
    -16.779  0.3039E-02  0.4800E+00
    -16.774  0.2797E-01  0.4802E+00
    -16.769  0.1573E+00  0.4810E+00
    -16.764  0.5410E+00  0.4837E+00
    -16.759  0.1140E+01  0.4894E+00
    -16.754  0.1473E+01  0.4969E+00
    -16.749  0.1167E+01  0.5028E+00
    -16.744  0.5668E+00  0.5056E+00
    -16.739  0.1686E+00  0.5065E+00
    -16.734  0.3071E-01  0.5066E+00
    -16.729  0.3416E-02  0.5067E+00
    -16.724  0.2318E-03  0.5067E+00
    -16.719  0.9583E-05  0.5067E+00
    -16.714  0.4601E-06  0.5067E+00
    -16.709  0.8839E-05  0.5067E+00
    -16.704  0.2163E-03  0.5067E+00
    -16.699  0.3225E-02  0.5067E+00
    -16.694  0.2933E-01  0.5068E+00
    -16.688  0.1629E+00  0.5077E+00
    -16.683  0.5540E+00  0.5105E+00
    -16.678  0.1154E+01  0.5163E+00
    -16.673  0.1473E+01  0.5237E+00
    -16.668  0.1153E+01  0.5295E+00
    -16.663  0.5537E+00  0.5323E+00
    -16.658  0.1628E+00  0.5332E+00
    -16.653  0.2929E-01  0.5333E+00
    -16.648  0.3220E-02  0.5333E+00
    -16.643  0.2159E-03  0.5333E+00
    -16.638  0.8817E-05  0.5333E+00
    -16.633  0.2272E-06  0.5333E+00
    -16.628  0.4994E-06  0.5333E+00
    -16.623  0.1800E-04  0.5333E+00
    -16.618  0.3971E-03  0.5333E+00
    -16.613  0.5336E-02  0.5334E+00
    -16.608  0.4376E-01  0.5336E+00
    -16.603  0.2193E+00  0.5347E+00
    -16.598  0.6728E+00  0.5381E+00
    -16.592  0.1265E+01  0.5445E+00
    -16.587  0.1457E+01  0.5518E+00
    -16.582  0.1030E+01  0.5570E+00
    -16.577  0.4461E+00  0.5593E+00
    -16.572  0.1184E+00  0.5599E+00
    -16.567  0.1921E-01  0.5600E+00
    -16.562  0.1904E-02  0.5600E+00
    -16.557  0.1151E-03  0.5600E+00
    -16.552  0.4235E-05  0.5600E+00
    -16.547  0.9528E-07  0.5600E+00
    -16.542  0.4842E-07  0.5600E+00
    -16.537  0.2295E-05  0.5600E+00
    -16.532  0.6790E-04  0.5600E+00
    -16.527  0.1222E-02  0.5600E+00
    -16.522  0.1341E-01  0.5601E+00
    -16.517  0.8989E-01  0.5605E+00
    -16.512  0.3684E+00  0.5624E+00
    -16.507  0.9245E+00  0.5671E+00
    -16.502  0.1422E+01  0.5742E+00
    -16.497  0.1341E+01  0.5810E+00
    -16.491  0.7756E+00  0.5849E+00
    -16.486  0.2749E+00  0.5863E+00
    -16.481  0.5963E-01  0.5866E+00
    -16.476  0.7909E-02  0.5867E+00
    -16.471  0.6403E-03  0.5867E+00
    -16.466  0.3158E-04  0.5867E+00
    -16.461  0.9478E-06  0.5867E+00
    -16.456  0.1737E-07  0.5867E+00
    -16.451  0.9573E-08  0.5867E+00
    -16.446  0.5527E-06  0.5867E+00
    -16.441  0.1977E-04  0.5867E+00
    -16.436  0.4301E-03  0.5867E+00
    -16.431  0.5701E-02  0.5867E+00
    -16.426  0.4610E-01  0.5869E+00
    -16.421  0.2279E+00  0.5881E+00
    -16.416  0.6895E+00  0.5916E+00
    -16.411  0.1278E+01  0.5980E+00
    -16.406  0.1453E+01  0.6054E+00
    -16.401  0.1013E+01  0.6105E+00
    -16.395  0.4327E+00  0.6127E+00
    -16.390  0.1132E+00  0.6132E+00
    -16.385  0.1812E-01  0.6133E+00
    -16.380  0.1771E-02  0.6133E+00
    -16.375  0.1056E-03  0.6133E+00
    -16.370  0.3831E-05  0.6133E+00
    -16.365  0.8446E-07  0.6133E+00
    -16.360  0.1175E-08  0.6133E+00
    -16.355  0.4759E-08  0.6133E+00
    -16.350  0.3025E-06  0.6133E+00
    -16.345  0.1169E-04  0.6133E+00
    -16.340  0.2749E-03  0.6133E+00
    -16.335  0.3936E-02  0.6134E+00
    -16.330  0.3438E-01  0.6135E+00
    -16.325  0.1835E+00  0.6145E+00
    -16.320  0.5992E+00  0.6175E+00
    -16.315  0.1199E+01  0.6235E+00
    -16.310  0.1471E+01  0.6310E+00
    -16.305  0.1106E+01  0.6366E+00
    -16.300  0.5102E+00  0.6391E+00
    -16.294  0.1441E+00  0.6399E+00
    -16.289  0.2491E-01  0.6400E+00
    -16.284  0.2630E-02  0.6400E+00
    -16.279  0.1693E-03  0.6400E+00
    -16.274  0.6639E-05  0.6400E+00
    -16.269  0.1582E-06  0.6400E+00
    -16.264  0.2289E-08  0.6400E+00
    -16.259  0.8672E-10  0.6400E+00
    -16.254  0.6729E-08  0.6400E+00
    -16.249  0.4118E-06  0.6400E+00
    -16.244  0.1530E-04  0.6400E+00
    -16.239  0.3458E-03  0.6400E+00
    -16.234  0.4760E-02  0.6400E+00
    -16.229  0.3998E-01  0.6402E+00
    -16.224  0.2052E+00  0.6413E+00
    -16.219  0.6446E+00  0.6445E+00
    -16.214  0.1240E+01  0.6508E+00
    -16.209  0.1464E+01  0.6582E+00
    -16.204  0.1059E+01  0.6635E+00
    -16.198  0.4698E+00  0.6659E+00
    -16.193  0.1276E+00  0.6665E+00
    -16.188  0.2121E-01  0.6667E+00
    -16.183  0.2153E-02  0.6667E+00
    -16.178  0.1333E-03  0.6667E+00
    -16.173  0.5024E-05  0.6667E+00
    -16.168  0.1151E-06  0.6667E+00
    -16.163  0.1600E-08  0.6667E+00
    -16.158  0.1584E-10  0.6667E+00
    -16.153  0.3327E-09  0.6667E+00
    -16.148  0.2838E-07  0.6667E+00
    -16.143  0.1468E-05  0.6667E+00
    -16.138  0.4615E-04  0.6667E+00
    -16.133  0.8826E-03  0.6667E+00
    -16.128  0.1029E-01  0.6667E+00
    -16.123  0.7320E-01  0.6671E+00
    -16.118  0.3185E+00  0.6687E+00
    -16.113  0.8484E+00  0.6730E+00
    -16.108  0.1385E+01  0.6800E+00
    -16.103  0.1387E+01  0.6870E+00
    -16.097  0.8511E+00  0.6913E+00
    -16.092  0.3202E+00  0.6929E+00
    -16.087  0.7375E-01  0.6933E+00
    -16.082  0.1039E-01  0.6933E+00
    -16.077  0.8931E-03  0.6933E+00
    -16.072  0.4680E-04  0.6933E+00
    -16.067  0.1492E-05  0.6933E+00
    -16.062  0.2890E-07  0.6933E+00
    -16.057  0.3395E-09  0.6933E+00
    -16.052  0.2705E-11  0.6933E+00
    -16.047  0.4962E-10  0.6933E+00
    -16.042  0.5162E-08  0.6933E+00
    -16.037  0.3256E-06  0.6933E+00
    -16.032  0.1247E-04  0.6933E+00
    -16.027  0.2904E-03  0.6933E+00
    -16.022  0.4119E-02  0.6934E+00
    -16.017  0.3564E-01  0.6935E+00
    -16.012  0.1885E+00  0.6945E+00
    -16.007  0.6098E+00  0.6976E+00
    -16.001  0.1209E+01  0.7037E+00
    -15.996  0.1469E+01  0.7111E+00
    -15.991  0.1095E+01  0.7166E+00
    -15.986  0.5004E+00  0.7192E+00
    -15.981  0.1401E+00  0.7199E+00
    -15.976  0.2398E-01  0.7200E+00
    -15.971  0.2508E-02  0.7200E+00
    -15.966  0.1600E-03  0.7200E+00
    -15.961  0.6215E-05  0.7200E+00
    -15.956  0.1467E-06  0.7200E+00
    -15.951  0.2102E-08  0.7200E+00
    -15.946  0.1826E-10  0.7200E+00
    -15.941  0.2545E-12  0.7200E+00
    -15.936  0.2880E-10  0.7200E+00
    -15.931  0.3167E-08  0.7200E+00
    -15.926  0.2112E-06  0.7200E+00
    -15.921  0.8545E-05  0.7200E+00
    -15.916  0.2102E-03  0.7200E+00
    -15.911  0.3149E-02  0.7200E+00
    -15.906  0.2877E-01  0.7202E+00
    -15.900  0.1606E+00  0.7210E+00
    -15.895  0.5487E+00  0.7237E+00
    -15.890  0.1148E+01  0.7295E+00
    -15.885  0.1473E+01  0.7370E+00
    -15.880  0.1159E+01  0.7428E+00
    -15.875  0.5589E+00  0.7457E+00
    -15.870  0.1651E+00  0.7465E+00
    -15.865  0.2985E-01  0.7466E+00
    -15.860  0.3298E-02  0.7467E+00
    -15.855  0.2222E-03  0.7467E+00
    -15.850  0.9117E-05  0.7467E+00
    -15.845  0.2274E-06  0.7467E+00
    -15.840  0.3443E-08  0.7467E+00
    -15.835  0.3161E-10  0.7467E+00
    -15.830  0.1773E-12  0.7467E+00
    -15.825  0.4786E-12  0.7467E+00
    -15.820  0.7836E-10  0.7467E+00
    -15.815  0.7779E-08  0.7467E+00
    -15.810  0.4683E-06  0.7467E+00
    -15.804  0.1711E-04  0.7467E+00
    -15.799  0.3804E-03  0.7467E+00
    -15.794  0.5151E-02  0.7467E+00
    -15.789  0.4255E-01  0.7469E+00
    -15.784  0.2149E+00  0.7480E+00
    -15.779  0.6640E+00  0.7513E+00
    -15.774  0.1257E+01  0.7577E+00
    -15.769  0.1460E+01  0.7651E+00
    -15.764  0.1039E+01  0.7703E+00
    -15.759  0.4534E+00  0.7726E+00
    -15.754  0.1212E+00  0.7732E+00
    -15.749  0.1981E-01  0.7733E+00
    -15.744  0.1979E-02  0.7733E+00
    -15.739  0.1205E-03  0.7733E+00
    -15.734  0.4466E-05  0.7733E+00
    -15.729  0.1006E-06  0.7733E+00
    -15.724  0.1376E-08  0.7733E+00
    -15.719  0.1140E-10  0.7733E+00
    -15.714  0.5744E-13  0.7733E+00
    -15.709  0.3766E-13  0.7733E+00
    -15.703  0.7779E-11  0.7733E+00
    -15.698  0.9751E-09  0.7733E+00
    -15.693  0.7407E-07  0.7733E+00
    -15.688  0.3414E-05  0.7733E+00
    -15.683  0.9561E-04  0.7733E+00
    -15.678  0.1630E-02  0.7733E+00
    -15.673  0.1694E-01  0.7734E+00
    -15.668  0.1075E+00  0.7740E+00
    -15.663  0.4175E+00  0.7761E+00
    -15.658  0.9928E+00  0.7811E+00
    -15.653  0.1447E+01  0.7884E+00
    -15.648  0.1293E+01  0.7949E+00
    -15.643  0.7087E+00  0.7985E+00
    -15.638  0.2380E+00  0.7997E+00
    -15.633  0.4891E-01  0.8000E+00
    -15.628  0.6145E-02  0.8000E+00
    -15.623  0.4711E-03  0.8000E+00
    -15.618  0.2200E-04  0.8000E+00
    -15.613  0.6251E-06  0.8000E+00
    -15.607  0.1078E-07  0.8000E+00
    -15.602  0.1128E-09  0.8000E+00
    -15.597  0.7150E-12  0.8000E+00
    -15.592  0.2344E-14  0.8000E+00
    -15.587  0.2110E-13  0.8000E+00
    -15.582  0.4612E-11  0.8000E+00
    -15.577  0.6085E-09  0.8000E+00
    -15.572  0.4865E-07  0.8000E+00
    -15.567  0.2360E-05  0.8000E+00
    -15.562  0.6955E-04  0.8000E+00
    -15.557  0.1247E-02  0.8000E+00
    -15.552  0.1364E-01  0.8001E+00
    -15.547  0.9104E-01  0.8005E+00
    -15.542  0.3717E+00  0.8024E+00
    -15.537  0.9292E+00  0.8071E+00
    -15.532  0.1424E+01  0.8143E+00
    -15.527  0.1338E+01  0.8211E+00
    -15.522  0.7709E+00  0.8250E+00
    -15.517  0.2722E+00  0.8263E+00
    -15.512  0.5883E-01  0.8266E+00
    -15.506  0.7773E-02  0.8267E+00
    -15.501  0.6269E-03  0.8267E+00
    -15.496  0.3081E-04  0.8267E+00
    -15.491  0.9209E-06  0.8267E+00
    -15.486  0.1672E-07  0.8267E+00
    -15.481  0.1841E-09  0.8267E+00
    -15.476  0.1228E-11  0.8267E+00
    -15.471  0.4689E-14  0.8267E+00
    -15.466  0.2931E-15  0.8267E+00
    -15.461  0.1062E-12  0.8267E+00
    -15.456  0.1999E-10  0.8267E+00
    -15.451  0.2281E-08  0.8267E+00
    -15.446  0.1578E-06  0.8267E+00
    -15.441  0.6622E-05  0.8267E+00
    -15.436  0.1690E-03  0.8267E+00
    -15.431  0.2625E-02  0.8267E+00
    -15.426  0.2487E-01  0.8268E+00
    -15.421  0.1440E+00  0.8275E+00
    -15.416  0.5098E+00  0.8301E+00
    -15.410  0.1106E+01  0.8357E+00
    -15.405  0.1471E+01  0.8431E+00
    -15.400  0.1199E+01  0.8492E+00
    -15.395  0.5996E+00  0.8522E+00
    -15.390  0.1836E+00  0.8531E+00
    -15.385  0.3442E-01  0.8533E+00
    -15.380  0.3943E-02  0.8533E+00
    -15.375  0.2755E-03  0.8533E+00
    -15.370  0.1172E-04  0.8533E+00
    -15.365  0.3033E-06  0.8533E+00
    -15.360  0.4765E-08  0.8533E+00
    -15.355  0.4537E-10  0.8533E+00
    -15.350  0.2611E-12  0.8533E+00
    -15.345  0.1172E-14  0.8533E+00
    -15.340  0.0000E+00  0.8533E+00
    -15.335  0.2198E-13  0.8533E+00
    -15.330  0.4769E-11  0.8533E+00
    -15.325  0.6272E-09  0.8533E+00
    -15.320  0.4998E-07  0.8533E+00
    -15.315  0.2416E-05  0.8533E+00
    -15.309  0.7098E-04  0.8533E+00
    -15.304  0.1269E-02  0.8533E+00
    -15.299  0.1383E-01  0.8534E+00
    -15.294  0.9202E-01  0.8539E+00
    -15.289  0.3745E+00  0.8558E+00
    -15.284  0.9333E+00  0.8605E+00
    -15.279  0.1426E+01  0.8677E+00
    -15.274  0.1335E+01  0.8744E+00
    -15.269  0.7669E+00  0.8783E+00
    -15.264  0.2699E+00  0.8797E+00
    -15.259  0.5815E-01  0.8800E+00
    -15.254  0.7659E-02  0.8800E+00
    -15.249  0.6157E-03  0.8800E+00
    -15.244  0.3016E-04  0.8800E+00
    -15.239  0.8986E-06  0.8800E+00
    -15.234  0.1626E-07  0.8800E+00
    -15.229  0.1785E-09  0.8800E+00
    -15.224  0.1187E-11  0.8800E+00
    -15.219  0.4689E-14  0.8800E+00
    -15.213  0.0000E+00  0.8800E+00
    -15.208  0.2931E-15  0.8800E+00
    -15.203  0.5949E-13  0.8800E+00
    -15.198  0.1184E-10  0.8800E+00
    -15.193  0.1424E-08  0.8800E+00
    -15.188  0.1038E-06  0.8800E+00
    -15.183  0.4589E-05  0.8800E+00
    -15.178  0.1233E-03  0.8800E+00
    -15.173  0.2017E-02  0.8800E+00
    -15.168  0.2013E-01  0.8801E+00
    -15.163  0.1226E+00  0.8807E+00
    -15.158  0.4571E+00  0.8830E+00
    -15.153  0.1044E+01  0.8883E+00
    -15.148  0.1461E+01  0.8957E+00
    -15.143  0.1253E+01  0.9020E+00
    -15.138  0.6595E+00  0.9054E+00
    -15.133  0.2126E+00  0.9064E+00
    -15.128  0.4195E-01  0.9066E+00
    -15.123  0.5059E-02  0.9067E+00
    -15.118  0.3722E-03  0.9067E+00
    -15.112  0.1668E-04  0.9067E+00
    -15.107  0.4547E-06  0.9067E+00
    -15.102  0.7526E-08  0.9067E+00
    -15.097  0.7551E-10  0.9067E+00
    -15.092  0.4586E-12  0.9067E+00
    -15.087  0.1758E-14  0.9067E+00
    -15.082  0.0000E+00  0.9067E+00
    -15.077  0.0000E+00  0.9067E+00
    -15.072  0.9964E-14  0.9067E+00
    -15.067  0.2314E-11  0.9067E+00
    -15.062  0.3266E-09  0.9067E+00
    -15.057  0.2791E-07  0.9067E+00
    -15.052  0.1447E-05  0.9067E+00
    -15.047  0.4557E-04  0.9067E+00
    -15.042  0.8733E-03  0.9067E+00
    -15.037  0.1020E-01  0.9067E+00
    -15.032  0.7271E-01  0.9071E+00
    -15.027  0.3169E+00  0.9087E+00
    -15.022  0.8459E+00  0.9130E+00
    -15.016  0.1384E+01  0.9200E+00
    -15.011  0.1388E+01  0.9270E+00
    -15.006  0.8535E+00  0.9313E+00
    -15.001  0.3217E+00  0.9329E+00
    -14.996  0.7425E-01  0.9333E+00
    -14.991  0.1048E-01  0.9333E+00
    -14.986  0.9026E-03  0.9333E+00
    -14.981  0.4739E-04  0.9333E+00
    -14.976  0.1514E-05  0.9333E+00
    -14.971  0.2938E-07  0.9333E+00
    -14.966  0.3459E-09  0.9333E+00
    -14.961  0.2466E-11  0.9333E+00
    -14.956  0.1055E-13  0.9333E+00
    -14.951  0.0000E+00  0.9333E+00
    -14.946  0.0000E+00  0.9333E+00
    -14.941  0.0000E+00  0.9333E+00
    -14.936  0.3898E-13  0.9333E+00
    -14.931  0.8027E-11  0.9333E+00
    -14.926  0.1003E-08  0.9333E+00
    -14.921  0.7595E-07  0.9333E+00
    -14.915  0.3490E-05  0.9333E+00
    -14.910  0.9745E-04  0.9333E+00
    -14.905  0.1656E-02  0.9333E+00
    -14.900  0.1716E-01  0.9334E+00
    -14.895  0.1086E+00  0.9340E+00
    -14.890  0.4204E+00  0.9361E+00
    -14.885  0.9966E+00  0.9411E+00
    -14.880  0.1448E+01  0.9485E+00
    -14.875  0.1290E+01  0.9550E+00
    -14.870  0.7050E+00  0.9585E+00
    -14.865  0.2360E+00  0.9597E+00
    -14.860  0.4837E-01  0.9600E+00
    -14.855  0.6058E-02  0.9600E+00
    -14.850  0.4630E-03  0.9600E+00
    -14.845  0.2156E-04  0.9600E+00
    -14.840  0.6106E-06  0.9600E+00
    -14.835  0.1050E-07  0.9600E+00
    -14.830  0.1095E-09  0.9600E+00
    -14.825  0.6919E-12  0.9600E+00
    -14.819  0.2344E-14  0.9600E+00
    -14.814  0.0000E+00  0.9600E+00
    -14.809  0.0000E+00  0.9600E+00
    -14.804  0.0000E+00  0.9600E+00
    -14.799  0.1714E-13  0.9600E+00
    -14.794  0.3799E-11  0.9600E+00
    -14.789  0.5109E-09  0.9600E+00
    -14.784  0.4162E-07  0.9600E+00
    -14.779  0.2057E-05  0.9600E+00
    -14.774  0.6177E-04  0.9600E+00
    -14.769  0.1129E-02  0.9600E+00
    -14.764  0.1257E-01  0.9601E+00
    -14.759  0.8551E-01  0.9605E+00
    -14.754  0.3556E+00  0.9623E+00
    -14.749  0.9057E+00  0.9669E+00
    -14.744  0.1414E+01  0.9740E+00
    -14.739  0.1353E+01  0.9808E+00
    -14.734  0.7941E+00  0.9849E+00
    -14.729  0.2856E+00  0.9863E+00
    -14.724  0.6288E-01  0.9866E+00
    -14.718  0.8465E-02  0.9867E+00
    -14.713  0.6955E-03  0.9867E+00
    -14.708  0.3482E-04  0.9867E+00
    -14.703  0.1061E-05  0.9867E+00
    -14.698  0.1962E-07  0.9867E+00
    -14.693  0.2202E-09  0.9867E+00
    -14.688  0.1497E-11  0.9867E+00
    -14.683  0.5861E-14  0.9867E+00