    2    2    1    1
  0.7464293E+02  0.3282343E-09  0.3282343E-09  0.1600000E-08  0.5000000E-15
  1.000000000000000E-004
  CAR 
 unknown system                          
     10    150     16
 
  0.0000000E+00  0.0000000E+00  0.0000000E+00  0.6666667E-02
      1        -17.472794   1.000000
      2         -9.758677   1.000000
      3         -3.766196   1.000000
      4         -3.496362   1.000000
      5         -3.496343   1.000000
      6          0.373947   0.000000
      7          0.527435   0.000000
      8          0.527448   0.000000
      9          2.024644   0.000000
     10          2.462220   0.000000
     11          3.814187   0.000000
     12          4.439512   0.000000
     13          6.478459   0.000000
     14          6.478467   0.000000
     15          6.916323   0.000000
     16          7.565965   0.000000
 
  0.1360544E-01 -0.6802721E-02  0.0000000E+00  0.6666667E-02
      1        -17.470554   1.000000
      2         -9.757127   1.000000
      3         -3.764827   1.000000
      4         -3.518269   1.000000
      5         -3.501819   1.000000
      6          0.391375   0.000000
      7          0.524491   0.000000
      8          0.535024   0.000000
      9          2.027427   0.000000
     10          2.464545   0.000000
     11          3.815972   0.000000
     12          4.442033   0.000000
     13          6.448088   0.000000
     14          6.473822   0.000000
     15          6.930802   0.000000
     16          7.565092   0.000000
 
  0.2721088E-01 -0.1360544E-01  0.0000000E+00  0.6666667E-02
      1        -17.463854   1.000000
      2         -9.752561   1.000000
      3         -3.760816   1.000000
      4         -3.582614   1.000000
      5         -3.518312   1.000000
      6          0.433667   0.000000
      7          0.515609   0.000000
      8          0.565809   0.000000
      9          2.035752   0.000000
     10          2.471504   0.000000
     11          3.821274   0.000000
     12          4.449553   0.000000
     13          6.367326   0.000000
     14          6.459715   0.000000
     15          6.965655   0.000000
     16          7.562204   0.000000
 
  0.4081633E-01 -0.2040816E-01  0.0000000E+00  0.6666667E-02
      1        -17.452687   1.000000
      2         -9.744994   1.000000
      3         -3.754163   1.000000
      4         -3.684832   1.000000
      5         -3.545678   1.000000
      6          0.473146   0.000000
      7          0.501322   0.000000
      8          0.642762   0.000000
      9          2.049697   0.000000
     10          2.483068   0.000000
     11          3.829971   0.000000
     12          4.462084   0.000000
     13          6.254194   0.000000
     14          6.436288   0.000000
     15          7.008431   0.000000
     16          7.556912   0.000000
 
  0.5442177E-01 -0.2721088E-01  0.0000000E+00  0.6666667E-02
      1        -17.437050   1.000000
      2         -9.734467   1.000000
      3         -3.818542   1.000000
      4         -3.744912   1.000000
      5         -3.583831   1.000000
      6          0.482514   0.000000
      7          0.498996   0.000000
      8          0.770138   0.000000
      9          2.069388   0.000000
     10          2.499187   0.000000
     11          3.841845   0.000000
     12          4.479627   0.000000
     13          6.121763   0.000000
     14          6.403680   0.000000
     15          7.053312   0.000000
     16          7.548602   0.000000
 
  0.6802721E-01 -0.3401361E-01  0.0000000E+00  0.6666667E-02
      1        -17.416961   1.000000
      2         -9.721117   1.000000
      3         -3.977605   1.000000
      4         -3.733170   1.000000
      5         -3.632686   1.000000
      6          0.459898   0.000000
      7          0.519912   0.000000
      8          0.931525   0.000000
      9          2.095015   0.000000
     10          2.519786   0.000000
     11          3.856555   0.000000
     12          4.502175   0.000000
     13          5.977792   0.000000
     14          6.362157   0.000000
     15          7.098792   0.000000
     16          7.536531   0.000000
 
  0.8163265E-01 -0.4081633E-01  0.0000000E+00  0.6666667E-02
      1        -17.392425   1.000000
      2         -9.705067   1.000000
      3         -4.156127   1.000000
      4         -3.719251   1.000000
      5         -3.691967   1.000000
      6          0.434232   0.000000
      7          0.540803   0.000000
      8          1.114394   0.000000
      9          2.126862   0.000000
     10          2.544762   0.000000
     11          3.873602   0.000000
     12          4.529689   0.000000
     13          5.827837   0.000000
     14          6.312610   0.000000
     15          7.144950   0.000000
     16          7.520008   0.000000
 
  0.9523810E-01 -0.4761905E-01  0.0000000E+00  0.6666667E-02
      1        -17.363448   1.000000
      2         -9.686470   1.000000
      3         -4.348770   1.000000
      4         -3.762285   1.000000
      5         -3.702231   1.000000
      6          0.406848   0.000000
      7          0.563454   0.000000
      8          1.310073   0.000000
      9          2.165571   0.000000
     10          2.573998   0.000000
     11          3.892332   0.000000
     12          4.562221   0.000000
     13          5.676731   0.000000
     14          6.256845   0.000000
     15          7.192138   0.000000
     16          7.499051   0.000000
 
  0.1088435E+00 -0.5442177E-01  0.0000000E+00  0.6666667E-02
      1        -17.330048   1.000000
      2         -9.665551   1.000000
      3         -4.551972   1.000000
      4         -3.842505   1.000000
      5         -3.683661   1.000000
      6          0.377954   0.000000
      7          0.587979   0.000000
      8          1.510298   0.000000
      9          2.211980   0.000000
     10          2.607312   0.000000
     11          3.911744   0.000000
     12          4.599709   0.000000
     13          5.527869   0.000000
     14          6.197366   0.000000
     15          7.240649   0.000000
     16          7.473719   0.000000
 
  0.1224490E+00 -0.6122449E-01  0.0000000E+00  0.6666667E-02
      1        -17.292236   1.000000
      2         -9.642594   1.000000
      3         -4.761596   1.000000
      4         -3.932315   1.000000
      5         -3.663065   1.000000
      6          0.348990   0.000000
      7          0.614960   0.000000
      8          1.707270   0.000000
      9          2.267769   0.000000
     10          2.644492   0.000000
     11          3.930529   0.000000
     12          4.642158   0.000000
     13          5.385485   0.000000
     14          6.138547   0.000000
     15          7.290806   0.000000
     16          7.444838   0.000000
 
  0.1360544E+00 -0.6802721E-01  0.0000000E+00  0.6666667E-02
      1        -17.250023   1.000000
      2         -9.617933   1.000000
      3         -4.974817   1.000000
      4         -4.031345   1.000000
      5         -3.640694   1.000000
      6          0.320706   0.000000
      7          0.644157   0.000000
      8          1.892055   0.000000
      9          2.335547   0.000000
     10          2.685246   0.000000
     11          3.946880   0.000000
     12          4.689548   0.000000
     13          5.253642   0.000000
     14          6.085230   0.000000
     15          7.342788   0.000000
     16          7.413283   0.000000
 
  0.1496599E+00 -0.7482993E-01  0.0000000E+00  0.6666667E-02
      1        -17.203424   1.000000
      2         -9.591987   1.000000
      3         -5.189540   1.000000
      4         -4.139220   1.000000
      5         -3.616807   1.000000
      6          0.293534   0.000000
      7          0.675328   0.000000
      8          2.055230   0.000000
      9          2.418359   0.000000
     10          2.729179   0.000000
     11          3.958492   0.000000
     12          4.741833   0.000000
     13          5.136838   0.000000
     14          6.044041   0.000000
     15          7.380087   0.000000
     16          7.396688   0.000000
 
  0.1632653E+00 -0.8163265E-01  0.0000000E+00  0.6666667E-02
      1        -17.152467   1.000000
      2         -9.565315   1.000000
      3         -5.403536   1.000000
      4         -4.254999   1.000000
      5         -3.591759   1.000000
      6          0.267783   0.000000
      7          0.708299   0.000000
      8          2.190102   0.000000
      9          2.515512   0.000000
     10          2.775739   0.000000
     11          3.962684   0.000000
     12          4.798893   0.000000
     13          5.039567   0.000000
     14          6.020958   0.000000
     15          7.345724   0.000000
     16          7.452515   0.000000
 
  0.1768707E+00 -0.8843537E-01  0.0000000E+00  0.6666667E-02
      1        -17.097169   1.000000
      2         -9.538556   1.000000
      3         -5.615004   1.000000
      4         -4.378261   1.000000
      5         -3.565742   1.000000
      6          0.243761   0.000000
      7          0.742572   0.000000
      8          2.299540   0.000000
      9          2.618004   0.000000
     10          2.824206   0.000000
     11          3.957229   0.000000
     12          4.860779   0.000000
     13          4.966356   0.000000
     14          6.023036   0.000000
     15          7.311754   0.000000
     16          7.510152   0.000000
 
  0.1904762E+00 -0.9523810E-01  0.0000000E+00  0.6666667E-02
      1        -17.037552   1.000000
      2         -9.512542   1.000000
      3         -5.822146   1.000000
      4         -4.508264   1.000000
      5         -3.539212   1.000000
      6          0.221668   0.000000
      7          0.777666   0.000000
      8          2.392414   0.000000
      9          2.711344   0.000000
     10          2.873555   0.000000
     11          3.941477   0.000000
     12          4.920259   0.000000
     13          4.927321   0.000000
     14          6.055311   0.000000
     15          7.279435   0.000000
     16          7.569400   0.000000
 
  0.2040816E+00 -0.1020408E+00  0.0000000E+00  0.6666667E-02
      1        -16.973647   1.000000
      2         -9.488316   1.000000
      3         -6.023178   1.000000
      4         -4.644121   1.000000
      5         -3.512560   1.000000
      6          0.201420   0.000000
      7          0.812972   0.000000
      8          2.475821   0.000000
      9          2.784795   0.000000
     10          2.922392   0.000000
     11          3.917622   0.000000
     12          4.901683   0.000000
     13          4.998383   0.000000
     14          6.119134   0.000000
     15          7.251425   0.000000
     16          7.629926   0.000000
 
  0.2176871E+00 -0.1088435E+00  0.0000000E+00  0.6666667E-02
      1        -16.905485   1.000000
      2         -9.467160   1.000000
      3         -6.216213   1.000000
      4         -4.785280   1.000000
      5         -3.486326   1.000000
      6          0.183116   0.000000
      7          0.847476   0.000000
      8          2.551915   0.000000
      9          2.835852   0.000000
     10          2.968846   0.000000
     11          3.890785   0.000000
     12          4.908279   0.000000
     13          5.073803   0.000000
     14          6.210743   0.000000
     15          7.233067   0.000000
     16          7.691073   0.000000
 
  0.2312925E+00 -0.1156463E+00  0.0000000E+00  0.6666667E-02
      1        -16.833098   1.000000
      2         -9.450615   1.000000
      3         -6.399273   1.000000
      4         -4.930950   1.000000
      5         -3.461031   1.000000
      6          0.166558   0.000000
      7          0.880174   0.000000
      8          2.616680   0.000000
      9          2.871236   0.000000
     10          3.010652   0.000000
     11          3.867977   0.000000
     12          4.936272   0.000000
     13          5.153377   0.000000
     14          6.317846   0.000000
     15          7.234941   0.000000
     16          7.752082   0.000000
 
  0.2448980E+00 -0.1224490E+00  0.0000000E+00  0.6666667E-02
      1        -16.756538   1.000000
      2         -9.440651   1.000000
      3         -6.570270   1.000000
      4         -5.080483   1.000000
      5         -3.437327   1.000000
      6          0.151845   0.000000
      7          0.909828   0.000000
      8          2.658169   0.000000
      9          2.908128   0.000000
     10          3.045439   0.000000
     11          3.856233   0.000000
     12          4.981593   0.000000
     13          5.236822   0.000000
     14          6.417508   0.000000
     15          7.275039   0.000000
     16          7.811832   0.000000
 
  0.2585034E+00 -0.1292517E+00  0.0000000E+00  0.6666667E-02
      1        -16.675839   1.000000
      2         -9.439402   1.000000
      3         -6.726461   1.000000
      4         -5.233143   1.000000
      5         -3.415828   1.000000
      6          0.138966   0.000000
      7          0.934268   0.000000
      8          2.665057   0.000000
      9          2.964877   0.000000
     10          3.071681   0.000000
     11          3.861400   0.000000
     12          5.040894   0.000000
     13          5.323648   0.000000
     14          6.484445   0.000000
     15          7.374457   0.000000
     16          7.868664   0.000000
 
  0.2721088E+00 -0.1360544E+00  0.0000000E+00  0.6666667E-02
      1        -16.591026   1.000000
      2         -9.449245   1.000000
      3         -6.865145   1.000000
      4         -5.388087   1.000000
      5         -3.397204   1.000000
      6          0.128606   0.000000
      7          0.951821   0.000000
      8          2.642987   0.000000
      9          3.043493   0.000000
     10          3.089758   0.000000
     11          3.886663   0.000000
     12          5.111594   0.000000
     13          5.413150   0.000000
     14          6.506676   0.000000
     15          7.541745   0.000000
     16          7.920668   0.000000
 
  0.2857143E+00 -0.1428571E+00  0.0000000E+00  0.6666667E-02
      1        -16.502172   1.000000
      2         -9.472617   1.000000
      3         -6.983862   1.000000
      4         -5.544842   1.000000
      5         -3.382231   1.000000
      6          0.120441   0.000000
      7          0.959733   0.000000
      8          2.605962   0.000000
      9          3.101528   0.000000
     10          3.136782   0.000000
     11          3.931865   0.000000
     12          5.191635   0.000000
     13          5.503957   0.000000
     14          6.491268   0.000000
     15          7.764244   0.000000
     16          7.965090   0.000000
 
  0.2993197E+00 -0.1496599E+00  0.0000000E+00  0.6666667E-02
      1        -16.409321   1.000000
      2         -9.511638   1.000000
      3         -7.080329   1.000000
      4         -5.702785   1.000000
      5         -3.371676   1.000000
      6          0.115240   0.000000
      7          0.955552   0.000000
      8          2.565448   0.000000
      9          3.110550   0.000000
     10          3.239854   0.000000
     11          3.995072   0.000000
     12          5.279549   0.000000
     13          5.593703   0.000000
     14          6.454155   0.000000
     15          7.998786   0.000000
     16          8.024399   0.000000
 
  0.3129252E+00 -0.1564626E+00  0.0000000E+00  0.6666667E-02
      1        -16.312559   1.000000
      2         -9.567802   1.000000
      3         -7.152965   1.000000
      4         -5.861299   1.000000
      5         -3.366372   1.000000
      6          0.113801   0.000000
      7          0.936911   0.000000
      8          2.529569   0.000000
      9          3.120723   0.000000
     10          3.350291   0.000000
     11          4.073585   0.000000
     12          5.374226   0.000000
     13          5.677723   0.000000
     14          6.409973   0.000000
     15          8.018432   0.000000
     16          8.309419   0.000000
 
  0.3265306E+00 -0.1632653E+00  0.0000000E+00  0.6666667E-02
      1        -16.211934   1.000000
      2         -9.641537   1.000000
      3         -7.201225   1.000000
      4         -6.019869   1.000000
      5         -3.366942   1.000000
      6          0.116737   0.000000
      7          0.902032   0.000000
      8          2.503459   0.000000
      9          3.135129   0.000000
     10          3.467050   0.000000
     11          4.164760   0.000000
     12          5.474754   0.000000
     13          5.747510   0.000000
     14          6.373558   0.000000
     15          8.021096   0.000000
     16          8.607434   0.000000
 
  0.3401361E+00 -0.1700680E+00  0.0000000E+00  0.6666667E-02
      1        -16.107556   1.000000
      2         -9.732278   1.000000
      3         -7.225829   1.000000
      4         -6.178116   1.000000
      5         -3.374199   1.000000
      6          0.124900   0.000000
      7          0.850181   0.000000
      8          2.489977   0.000000
      9          3.155870   0.000000
     10          3.589476   0.000000
     11          4.266366   0.000000
     12          5.580217   0.000000
     13          5.789045   0.000000
     14          6.362677   0.000000
     15          8.005068   0.000000
     16          8.910748   0.000000
 
  0.3537415E+00 -0.1768707E+00  0.0000000E+00  0.6666667E-02
      1        -15.999474   1.000000
      2         -9.838295   1.000000
      3         -7.228131   1.000000
      4         -6.335306   1.000000
      5         -3.388551   1.000000
      6          0.139378   0.000000
      7          0.782254   0.000000
      8          2.490278   0.000000
      9          3.184937   0.000000
     10          3.717293   0.000000
     11          4.376867   0.000000
     12          5.689840   0.000000
     13          5.790342   0.000000
     14          6.392902   0.000000
     15          7.970942   0.000000
     16          9.211066   0.000000
 
  0.3673469E+00 -0.1836735E+00  0.0000000E+00  0.6666667E-02
      1        -15.887788   1.000000
      2         -9.957433   1.000000
      3         -7.210421   1.000000
      4         -6.491116   1.000000
      5         -3.410415   1.000000
      6          0.160749   0.000000
      7          0.699923   0.000000
      8          2.503409   0.000000
      9          3.222861   0.000000
     10          3.850300   0.000000
     11          4.494947   0.000000
     12          5.753571   0.000000
     13          5.802619   0.000000
     14          6.464144   0.000000
     15          7.921029   0.000000
     16          9.492980   0.000000
 
  0.3809524E+00 -0.1904762E+00  0.0000000E+00  0.6666667E-02
      1        -15.772640   1.000000
      2        -10.087337   1.000000
      3         -7.175260   1.000000
      4         -6.645195   1.000000
      5         -3.440144   1.000000
      6          0.189642   0.000000
      7          0.605446   0.000000
      8          2.527309   0.000000
      9          3.269896   0.000000
     10          3.988293   0.000000
     11          4.619582   0.000000
     12          5.692105   0.000000
     13          5.917308   0.000000
     14          6.564967   0.000000
     15          7.858998   0.000000
     16          9.564844   0.000000
 
  0.3945578E+00 -0.1972789E+00  0.0000000E+00  0.6666667E-02
      1        -15.654110   1.000000
      2        -10.225470   1.000000
      3         -7.125006   1.000000
      4         -6.796995   1.000000
      5         -3.477631   1.000000
      6          0.226816   0.000000
      7          0.501691   0.000000
      8          2.559815   0.000000
      9          3.326446   0.000000
     10          4.131128   0.000000
     11          4.749963   0.000000
     12          5.618834   0.000000
     13          6.032320   0.000000
     14          6.685030   0.000000
     15          7.790326   0.000000
     16          9.647745   0.000000
 
  0.4081633E+00 -0.2040816E+00  0.0000000E+00  0.6666667E-02
      1        -15.532362   1.000000
      2        -10.369785   1.000000
      3         -7.061928   1.000000
      4         -6.946208   1.000000
      5         -3.522797   1.000000
      6          0.272657   0.000000
      7          0.391023   0.000000
      8          2.597942   0.000000
      9          3.392337   0.000000
     10          4.278619   0.000000
     11          4.885231   0.000000
     12          5.541931   0.000000
     13          6.145290   0.000000
     14          6.818091   0.000000
     15          7.720474   0.000000
     16          9.738791   0.000000
 
  0.4217687E+00 -0.2108844E+00  0.0000000E+00  0.6666667E-02
      1        -15.407544   1.000000
      2        -10.518428   1.000000
      3         -7.092478   1.000000
      4         -6.988010   1.000000
      5         -3.575361   1.000000
      6          0.275756   0.000000
      7          0.327188   0.000000
      8          2.639016   0.000000
      9          3.467185   0.000000
     10          4.430434   0.000000
     11          5.024454   0.000000
     12          5.466992   0.000000
     13          6.252907   0.000000
     14          6.960852   0.000000
     15          7.656115   0.000000
     16          9.833810   0.000000
 
  0.4353741E+00 -0.2176871E+00  0.0000000E+00  0.6666667E-02
      1        -15.279830   1.000000
      2        -10.669840   1.000000
      3         -7.235333   1.000000
      4         -6.904922   1.000000
      5         -3.634854   1.000000
      6          0.157864   0.000000
      7          0.390330   0.000000
      8          2.680005   0.000000
      9          3.549930   0.000000
     10          4.586007   0.000000
     11          5.166421   0.000000
     12          5.398283   0.000000
     13          6.350621   0.000000
     14          7.111502   0.000000
     15          7.605339   0.000000
     16          9.927776   0.000000
 
  0.4489796E+00 -0.2244898E+00  0.0000000E+00  0.6666667E-02
      1        -15.149400   1.000000
      2        -10.822689   1.000000
      3         -7.374402   1.000000
      4         -6.814061   1.000000
      5         -3.700675   1.000000
      6          0.039051   0.000000
      7          0.462166   0.000000
      8          2.718455   0.000000
      9          3.640816   0.000000
     10          4.743955   0.000000
     11          5.309465   0.000000
     12          5.340863   0.000000
     13          6.432918   0.000000
     14          7.268978   0.000000
     15          7.577165   0.000000
     16         10.013364   0.000000
 
  0.4625850E+00 -0.2312925E+00  0.0000000E+00  0.6666667E-02
      1        -15.016456   1.000000
      2        -10.976010   1.000000
      3         -7.509353   1.000000
      4         -6.716661   1.000000
      5         -3.772212   1.000000
      6         -0.079463   0.000000
      7          0.542266   0.000000
      8          2.751411   0.000000
      9          3.738617   0.000000
     10          4.900428   0.000000
     11          5.301054   0.000000
     12          5.450862   0.000000
     13          6.495149   0.000000
     14          7.432624   0.000000
     15          7.580336   0.000000
     16         10.079750   0.000000
 
  0.4761905E+00 -0.2380952E+00  0.0000000E+00  0.6666667E-02
      1        -14.881293   1.000000
      2        -11.128962   1.000000
      3         -7.639735   1.000000
      4         -6.613840   1.000000
      5         -3.848710   1.000000
      6         -0.196298   0.000000
      7          0.630140   0.000000
      8          2.777026   0.000000
      9          3.843601   0.000000
     10          5.041511   0.000000
     11          5.295932   0.000000
     12          5.586258   0.000000
     13          6.537860   0.000000
     14          7.601980   0.000000
     15          7.620174   0.000000
     16         10.063648   0.000000
 
  0.4897959E+00 -0.2448980E+00  0.0000000E+00  0.6666667E-02
      1        -14.744170   1.000000
      2        -11.280879   1.000000
      3         -7.765217   1.000000
      4         -6.506537   1.000000
      5         -3.929474   1.000000
      6         -0.310563   0.000000
      7          0.725202   0.000000
      8          2.792531   0.000000
      9          3.953900   0.000000
     10          5.127917   0.000000
     11          5.366339   0.000000
     12          5.708328   0.000000
     13          6.570193   0.000000
     14          7.695829   0.000000
     15          7.776700   0.000000
     16          9.878222   0.000000
 
  0.5034014E+00 -0.2517007E+00  0.0000000E+00  0.6666667E-02
      1        -14.605383   1.000000
      2        -11.431224   1.000000
      3         -7.885361   1.000000
      4         -6.395616   1.000000
      5         -4.013780   1.000000
      6         -0.421357   0.000000
      7          0.826840   0.000000
      8          2.796507   0.000000
      9          4.068576   0.000000
     10          5.161743   0.000000
     11          5.511788   0.000000
     12          5.806519   0.000000
     13          6.609724   0.000000
     14          7.801311   0.000000
     15          7.956465   0.000000
     16          9.697133   0.000000
 
  0.5170068E+00 -0.2585034E+00  0.0000000E+00  0.6666667E-02
      1        -14.465318   1.000000
      2        -11.579564   1.000000
      3         -7.999732   1.000000
      4         -6.281926   1.000000
      5         -4.100931   1.000000
      6         -0.527741   0.000000
      7          0.934336   0.000000
      8          2.788148   0.000000
      9          4.186325   0.000000
     10          5.189822   0.000000
     11          5.686317   0.000000
     12          5.870333   0.000000
     13          6.675614   0.000000
     14          7.928754   0.000000
     15          8.140896   0.000000
     16          9.517540   0.000000
 
  0.5306122E+00 -0.2653061E+00  0.0000000E+00  0.6666667E-02
      1        -14.324373   1.000000
      2        -11.725542   1.000000
      3         -8.107858   1.000000
      4         -6.166261   1.000000
      5         -4.190394   1.000000
      6         -0.629075   0.000000
      7          1.046902   0.000000
      8          2.767336   0.000000
      9          4.305591   0.000000
     10          5.229189   0.000000
     11          5.872861   0.000000
     12          5.897462   0.000000
     13          6.777831   0.000000
     14          8.070227   0.000000
     15          8.329435   0.000000
     16          9.337252   0.000000
 
  0.5442177E+00 -0.2721088E+00  0.0000000E+00  0.6666667E-02
      1        -14.183027   1.000000
      2        -11.868739   1.000000
      3         -8.209016   1.000000
      4         -6.049362   1.000000
      5         -4.281254   1.000000
      6         -0.724331   0.000000
      7          1.163718   0.000000
      8          2.735012   0.000000
      9          4.424155   0.000000
     10          5.283941   0.000000
     11          5.897941   0.000000
     12          6.066977   0.000000
     13          6.913835   0.000000
     14          8.217035   0.000000
     15          8.520932   0.000000
     16          9.153496   0.000000
 
  0.5578231E+00 -0.2789116E+00  0.0000000E+00  0.6666667E-02
      1        -14.041865   1.000000
      2        -12.008986   1.000000
      3         -8.302772   1.000000
      4         -5.932131   1.000000
      5         -4.373156   1.000000
      6         -0.812890   0.000000
      7          1.283551   0.000000
      8          2.692217   0.000000
      9          4.539272   0.000000
     10          5.354219   0.000000
     11          5.886699   0.000000
     12          6.266990   0.000000
     13          7.074803   0.000000
     14          8.352484   0.000000
     15          8.711526   0.000000
     16          8.964343   0.000000
 
  0.5714286E+00 -0.2857143E+00  0.0000000E+00  0.6666667E-02
      1        -13.901456   1.000000
      2        -12.146054   1.000000
      3         -8.388493   1.000000
      4         -5.815422   1.000000
      5         -4.465527   1.000000
      6         -0.893994   0.000000
      7          1.405183   0.000000
      8          2.640384   0.000000
      9          4.645297   0.000000
     10          5.438460   0.000000
     11          5.877633   0.000000
     12          6.472208   0.000000
     13          7.252688   0.000000
     14          8.422557   0.000000
     15          8.791687   0.000000
     16          8.881288   0.000000
 
  0.5850340E+00 -0.2925170E+00  0.0000000E+00  0.6666667E-02
      1        -13.762443   1.000000
      2        -12.279773   1.000000
      3         -8.465505   1.000000
      4         -5.700083   1.000000
      5         -4.557889   1.000000
      6         -0.966824   0.000000
      7          1.527374   0.000000
      8          2.581386   0.000000
      9          4.737616   0.000000
     10          5.535521   0.000000
     11          5.882936   0.000000
     12          6.682151   0.000000
     13          7.440780   0.000000
     14          8.307122   0.000000
     15          8.696502   0.000000
     16          8.915882   0.000000
 
  0.5986395E+00 -0.2993197E+00  0.0000000E+00  0.6666667E-02
      1        -13.625581   1.000000
      2        -12.409980   1.000000
      3         -8.533009   1.000000
      4         -5.587040   1.000000
      5         -4.649847   1.000000
      6         -1.030554   0.000000
      7          1.648523   0.000000
      8          2.516822   0.000000
      9          4.810938   0.000000
     10          5.643575   0.000000
     11          5.912230   0.000000
     12          6.896369   0.000000
     13          7.626257   0.000000
     14          8.065086   0.000000
     15          8.599413   0.000000
     16          8.813999   0.000000
 
  0.6122449E+00 -0.3061224E+00  0.0000000E+00  0.6666667E-02
      1        -13.491694   1.000000
      2        -12.536539   1.000000
      3         -8.590218   1.000000
      4         -5.477252   1.000000
      5         -4.740907   1.000000
      6         -1.084378   0.000000
      7          1.766750   0.000000