 running   16 mpi-ranks, on    1 nodes
 distrk:  each k-point on   16 cores,    1 groups
 distr:  one band on    4 cores,    4 groups
 vasp.6.4.2 20Jul23 (build Nov 14 2023 12:59:38) complex                        
  
 POSCAR found type information on POSCAR P 
 POSCAR found :  1 types and       2 ions
 Reading from existing POTCAR
 scaLAPACK will be used
 Reading from existing POTCAR
 LDA part: xc-table for Pade appr. of Perdew
 POSCAR, INCAR and KPOINTS ok, starting setup
 FFT: planning ... GRIDC
 FFT: planning ... GRID_SOFT
 FFT: planning ... GRID
 WAVECAR not read
 entering main loop
       N       E                     dE             d eps       ncg     rms          rms(c)
DAV:   1     0.347042983145E+02    0.34704E+02   -0.23621E+03   768   0.274E+02
DAV:   2    -0.743254336110E+01   -0.42137E+02   -0.39613E+02  1152   0.846E+01
DAV:   3    -0.106207641346E+02   -0.31882E+01   -0.31672E+01  1048   0.247E+01
DAV:   4    -0.107845671748E+02   -0.16380E+00   -0.16377E+00  1288   0.554E+00
DAV:   5    -0.107858297853E+02   -0.12626E-02   -0.12626E-02  1096   0.420E-01
DAV:   6    -0.107859062108E+02   -0.76426E-04   -0.76426E-04  1248   0.722E-02
DAV:   7    -0.107859083452E+02   -0.21344E-05   -0.21345E-05  1192   0.117E-02
DAV:   8    -0.107859083781E+02   -0.32834E-07   -0.32869E-07   944   0.161E-03
DAV:   9    -0.107859083819E+02   -0.38302E-08   -0.38621E-08   880   0.701E-04
DAV:  10    -0.107859083837E+02   -0.18296E-08   -0.17963E-08   808   0.500E-04
DAV:  11    -0.107859083846E+02   -0.89852E-09   -0.94898E-09   688   0.364E-04
DAV:  12    -0.107859083851E+02   -0.47839E-09   -0.50889E-09   632   0.272E-04    0.249E+00
DAV:  13    -0.107597632945E+02    0.26145E-01   -0.34253E-03   968   0.228E-01    0.221E+00
DAV:  14    -0.106836682125E+02    0.76095E-01   -0.18511E-01  1040   0.168E+00    0.297E-01
DAV:  15    -0.106782986265E+02    0.53696E-02   -0.19333E-02  1088   0.666E-01    0.117E-01
DAV:  16    -0.106785278596E+02   -0.22923E-03   -0.21545E-03  1128   0.203E-01    0.639E-02
DAV:  17    -0.106783744778E+02    0.15338E-03   -0.69454E-04  1104   0.113E-01    0.554E-02
DAV:  18    -0.106783484922E+02    0.25986E-04   -0.23260E-04  1024   0.623E-02    0.897E-03
DAV:  19    -0.106783494001E+02   -0.90790E-06   -0.13945E-05  1152   0.164E-02    0.866E-03
DAV:  20    -0.106783513353E+02   -0.19352E-05   -0.10026E-05   888   0.149E-02    0.409E-03
DAV:  21    -0.106783511966E+02    0.13874E-06   -0.15877E-06   888   0.611E-03
   1 F= -.10678351E+02 E0= -.10678351E+02  d E =-.173102E-11
