 vasp.6.4.2 20Jul23 (build Nov 14 2023 12:59:38) complex                        
  
 executed on             LinuxIFC date 2023.12.17  08:41:17
 running   16 mpi-ranks, on    1 nodes
 distrk:  each k-point on   16 cores,    1 groups
 distr:  one band on NCORE=   4 cores,    4 groups


--------------------------------------------------------------------------------------------------------


 INCAR:
   ENCUT = 286.920000
   ALGO = Normal
   NELM = 200
   NELMIN = 6
   NELMDL = -12
   EDIFF = 1.0E-6
   AMIX = 0.1
   BMIX = 0.0001
   NBANDS = 16
   PREC = Accurate
   IVDW = 0
   ISPIN = 1
   ADDGRID = .TRUE.
   LASPH = .TRUE.
   NSW = 0
   EDIFFG = -0.010
   IBRION = 2
   ISIF = -1
   POTIM = 0.5
   STRESSTYPE = 2
   ISMEAR = 0
   SIGMA = 0.01
   LORBIT = 10
   NEDOS = 6001
   NWRITE = 1
   LWAVE = .FALSE.
   LCHARG = .FALSE.
   ICHARG = 11
   NCORE = 4
   LPLANE = .TRUE.

 POTCAR:    PAW_PBE P_GW 19Mar2012                
 POTCAR:    PAW_PBE P_GW 19Mar2012                
  local pseudopotential read in
  partial core-charges read in
  partial kinetic energy density read in
  kinetic energy density of atom read in
  atomic valenz-charges read in
  non local Contribution for L=           0  read in
    real space projection operators read in
  non local Contribution for L=           0  read in
    real space projection operators read in
  non local Contribution for L=           1  read in
    real space projection operators read in
  non local Contribution for L=           1  read in
    real space projection operators read in
  non local Contribution for L=           2  read in
    real space projection operators read in
  non local Contribution for L=           2  read in
    real space projection operators read in
    PAW grid and wavefunctions read in
 
   number of l-projection  operators is LMAX  =           6
   number of lm-projection operators is LMMAX =          18
 
  PAW_PBE P_GW 19Mar2012                :
 energy of atom  1       EATOM= -176.0430
 kinetic energy error for atom=    0.0052 (will be added to EATOM!!)
 
 
 POSCAR: pnictogen honeycomb monolayer
  positions in direct lattice
  velocities in cartesian coordinates
 exchange correlation table for  LEXCH =        8
   RHO(1)=    0.500       N(1)  =     2000
   RHO(2)=  100.500       N(2)  =     4000
 


--------------------------------------------------------------------------------------------------------


 ion  position               nearest neighbor table
   1  0.667  0.333  0.461-   2 2.27   2 2.27   2 2.27
   2  0.333  0.667  0.539-   1 2.27   1 2.27   1 2.27
 
  LATTYP: Found a hexagonal cell.
 ALAT       =     3.2823434942
 C/A-ratio  =     4.8745660009
  
  Lattice vectors:
  
 A1 = (   3.2823434942,   0.0000000000,   0.0000000000)
 A2 = (  -1.6411717471,   2.8425928499,   0.0000000000)
 A3 = (   0.0000000000,   0.0000000000,  16.0000000000)


Analysis of symmetry for initial positions (statically):
=====================================================================
 Subroutine PRICEL returns:
 Original cell was already a primitive cell.
 

 Routine SETGRP: Setting up the symmetry group for a 
 hexagonal supercell.


 Subroutine GETGRP returns: Found 12 space group operations
 (whereof 12 operations were pure point group operations)
 out of a pool of 24 trial point group operations.


The static configuration has the point symmetry D_3d.


Analysis of symmetry for dynamics (positions and initial velocities):
=====================================================================
 Subroutine PRICEL returns:
 Original cell was already a primitive cell.
 

 Routine SETGRP: Setting up the symmetry group for a 
 hexagonal supercell.


 Subroutine GETGRP returns: Found 12 space group operations
 (whereof 12 operations were pure point group operations)
 out of a pool of 24 trial point group operations.


The dynamic configuration has the point symmetry D_3d.


 Subroutine INISYM returns: Found 12 space group operations
 (whereof 12 operations are pure point group operations),
 and found     1 'primitive' translations


----------------------------------------------------------------------------------------

                                     Primitive cell                                     

  volume of cell :     149.2859

  direct lattice vectors                    reciprocal lattice vectors
     3.282343494  0.000000000  0.000000000     0.304660375  0.175895750  0.000000000
    -1.641171747  2.842592850  0.000000000     0.000000000  0.351791499  0.000000000
     0.000000000  0.000000000 16.000000000     0.000000000  0.000000000  0.062500000

  length of vectors
     3.282343494  3.282343494 16.000000000     0.351791499  0.351791499  0.062500000

  position of ions in fractional coordinates (direct lattice)
     0.666666667  0.333333333  0.461182839
     0.333333333  0.666666667  0.538817161

  ion indices of the primitive-cell ions
   primitive index   ion index
                 1           1
                 2           2

----------------------------------------------------------------------------------------

 
 
 KPOINTS: kpoints along symmetry lines            

Interpolating k-points between supplied coordinates.

 Line segments in fractional coordinates (reciprocal lattice):
    0.000000  0.000000  0.000000  ...  0.666667 -0.333333  0.000000
    0.666667 -0.333333  0.000000  ...  0.333333  0.333333  0.000000
    0.333333  0.333333  0.000000  ...  0.000000  0.000000  0.000000

 Generated    50 points on each line segment, for a total of    150 k-points:

 Following reciprocal coordinates:
            Coordinates               Weight
  0.000000  0.000000  0.000000      0.006667
  0.013605 -0.006803  0.000000      0.006667
  0.027211 -0.013605  0.000000      0.006667
  0.040816 -0.020408  0.000000      0.006667
  0.054422 -0.027211  0.000000      0.006667
  0.068027 -0.034014  0.000000      0.006667
  0.081633 -0.040816  0.000000      0.006667
  0.095238 -0.047619  0.000000      0.006667
  0.108844 -0.054422  0.000000      0.006667
  0.122449 -0.061224  0.000000      0.006667
  0.136054 -0.068027  0.000000      0.006667
  0.149660 -0.074830  0.000000      0.006667
  0.163265 -0.081633  0.000000      0.006667
  0.176871 -0.088435  0.000000      0.006667
  0.190476 -0.095238  0.000000      0.006667
  0.204082 -0.102041  0.000000      0.006667
  0.217687 -0.108844  0.000000      0.006667
  0.231293 -0.115646  0.000000      0.006667
  0.244898 -0.122449  0.000000      0.006667
  0.258503 -0.129252  0.000000      0.006667
  0.272109 -0.136054  0.000000      0.006667
  0.285714 -0.142857  0.000000      0.006667
  0.299320 -0.149660  0.000000      0.006667
  0.312925 -0.156463  0.000000      0.006667
  0.326531 -0.163265  0.000000      0.006667
  0.340136 -0.170068  0.000000      0.006667
  0.353741 -0.176871  0.000000      0.006667
  0.367347 -0.183673  0.000000      0.006667
  0.380952 -0.190476  0.000000      0.006667
  0.394558 -0.197279  0.000000      0.006667
  0.408163 -0.204082  0.000000      0.006667
  0.421769 -0.210884  0.000000      0.006667
  0.435374 -0.217687  0.000000      0.006667
  0.448980 -0.224490  0.000000      0.006667
  0.462585 -0.231293  0.000000      0.006667
  0.476190 -0.238095  0.000000      0.006667
  0.489796 -0.244898  0.000000      0.006667
  0.503401 -0.251701  0.000000      0.006667
  0.517007 -0.258503  0.000000      0.006667
  0.530612 -0.265306  0.000000      0.006667
  0.544218 -0.272109  0.000000      0.006667
  0.557823 -0.278912  0.000000      0.006667
  0.571429 -0.285714  0.000000      0.006667
  0.585034 -0.292517  0.000000      0.006667
  0.598639 -0.299320  0.000000      0.006667
  0.612245 -0.306122  0.000000      0.006667
  0.625850 -0.312925  0.000000      0.006667
  0.639456 -0.319728  0.000000      0.006667
  0.653061 -0.326531  0.000000      0.006667
  0.666667 -0.333333  0.000000      0.006667
  0.666667 -0.333333  0.000000      0.006667
  0.659864 -0.319728  0.000000      0.006667
  0.653061 -0.306122  0.000000      0.006667
  0.646259 -0.292517  0.000000      0.006667
  0.639456 -0.278912  0.000000      0.006667
  0.632653 -0.265306  0.000000      0.006667
  0.625850 -0.251701  0.000000      0.006667
  0.619048 -0.238095  0.000000      0.006667
  0.612245 -0.224490  0.000000      0.006667
  0.605442 -0.210884  0.000000      0.006667
  0.598639 -0.197279  0.000000      0.006667
  0.591837 -0.183673  0.000000      0.006667
  0.585034 -0.170068  0.000000      0.006667
  0.578231 -0.156463  0.000000      0.006667
  0.571429 -0.142857  0.000000      0.006667
  0.564626 -0.129252  0.000000      0.006667
  0.557823 -0.115646  0.000000      0.006667
  0.551020 -0.102041  0.000000      0.006667
  0.544218 -0.088435  0.000000      0.006667
  0.537415 -0.074830  0.000000      0.006667
  0.530612 -0.061224  0.000000      0.006667
  0.523810 -0.047619  0.000000      0.006667
  0.517007 -0.034014  0.000000      0.006667
  0.510204 -0.020408  0.000000      0.006667
  0.503401 -0.006803  0.000000      0.006667
  0.496599  0.006803  0.000000      0.006667
  0.489796  0.020408  0.000000      0.006667
  0.482993  0.034014  0.000000      0.006667
  0.476190  0.047619  0.000000      0.006667
  0.469388  0.061224  0.000000      0.006667
  0.462585  0.074830  0.000000      0.006667
  0.455782  0.088435  0.000000      0.006667
  0.448980  0.102041  0.000000      0.006667
  0.442177  0.115646  0.000000      0.006667
  0.435374  0.129252  0.000000      0.006667
  0.428571  0.142857  0.000000      0.006667
  0.421769  0.156463  0.000000      0.006667
  0.414966  0.170068  0.000000      0.006667
  0.408163  0.183673  0.000000      0.006667
  0.401361  0.197279  0.000000      0.006667
  0.394558  0.210884  0.000000      0.006667
  0.387755  0.224490  0.000000      0.006667
  0.380952  0.238095  0.000000      0.006667
  0.374150  0.251701  0.000000      0.006667
  0.367347  0.265306  0.000000      0.006667
  0.360544  0.278912  0.000000      0.006667
  0.353741  0.292517  0.000000      0.006667
  0.346939  0.306122  0.000000      0.006667
  0.340136  0.319728  0.000000      0.006667
  0.333333  0.333333  0.000000      0.006667
  0.333333  0.333333  0.000000      0.006667
  0.326531  0.326531  0.000000      0.006667
  0.319728  0.319728  0.000000      0.006667
  0.312925  0.312925  0.000000      0.006667
  0.306122  0.306122  0.000000      0.006667
  0.299320  0.299320  0.000000      0.006667
  0.292517  0.292517  0.000000      0.006667
  0.285714  0.285714  0.000000      0.006667
  0.278912  0.278912  0.000000      0.006667
  0.272109  0.272109  0.000000      0.006667
  0.265306  0.265306  0.000000      0.006667
  0.258503  0.258503  0.000000      0.006667
  0.251701  0.251701  0.000000      0.006667
  0.244898  0.244898  0.000000      0.006667
  0.238095  0.238095  0.000000      0.006667
  0.231293  0.231293  0.000000      0.006667
  0.224490  0.224490  0.000000      0.006667
  0.217687  0.217687  0.000000      0.006667
  0.210884  0.210884  0.000000      0.006667
  0.204082  0.204082  0.000000      0.006667
  0.197279  0.197279  0.000000      0.006667
  0.190476  0.190476  0.000000      0.006667
  0.183673  0.183673  0.000000      0.006667
  0.176871  0.176871  0.000000      0.006667
  0.170068  0.170068  0.000000      0.006667
  0.163265  0.163265  0.000000      0.006667
  0.156463  0.156463  0.000000      0.006667
  0.149660  0.149660  0.000000      0.006667
  0.142857  0.142857  0.000000      0.006667
  0.136054  0.136054  0.000000      0.006667
  0.129252  0.129252  0.000000      0.006667
  0.122449  0.122449  0.000000      0.006667
  0.115646  0.115646  0.000000      0.006667
  0.108844  0.108844  0.000000      0.006667
  0.102041  0.102041  0.000000      0.006667
  0.095238  0.095238  0.000000      0.006667
  0.088435  0.088435  0.000000      0.006667
  0.081633  0.081633  0.000000      0.006667
  0.074830  0.074830  0.000000      0.006667
  0.068027  0.068027  0.000000      0.006667
  0.061224  0.061224  0.000000      0.006667
  0.054422  0.054422  0.000000      0.006667
  0.047619  0.047619  0.000000      0.006667
  0.040816  0.040816  0.000000      0.006667
  0.034014  0.034014  0.000000      0.006667
  0.027211  0.027211  0.000000      0.006667
  0.020408  0.020408  0.000000      0.006667
  0.013605  0.013605  0.000000      0.006667
  0.006803  0.006803  0.000000      0.006667
  0.000000  0.000000  0.000000      0.006667

 Following cartesian coordinates:
            Coordinates               Weight
  0.000000  0.000000  0.000000      0.006667
  0.004145  0.000000  0.000000      0.006667
  0.008290  0.000000  0.000000      0.006667
  0.012435  0.000000  0.000000      0.006667
  0.016580  0.000000  0.000000      0.006667
  0.020725  0.000000  0.000000      0.006667
  0.024870  0.000000  0.000000      0.006667
  0.029015  0.000000  0.000000      0.006667
  0.033160  0.000000  0.000000      0.006667
  0.037305  0.000000  0.000000      0.006667
  0.041450  0.000000  0.000000      0.006667
  0.045595  0.000000  0.000000      0.006667
  0.049740  0.000000  0.000000      0.006667
  0.053886  0.000000  0.000000      0.006667
  0.058031  0.000000  0.000000      0.006667
  0.062176  0.000000  0.000000      0.006667
  0.066321  0.000000  0.000000      0.006667
  0.070466  0.000000  0.000000      0.006667
  0.074611  0.000000  0.000000      0.006667
  0.078756  0.000000  0.000000      0.006667
  0.082901  0.000000  0.000000      0.006667
  0.087046  0.000000  0.000000      0.006667
  0.091191  0.000000  0.000000      0.006667
  0.095336  0.000000  0.000000      0.006667
  0.099481  0.000000  0.000000      0.006667
  0.103626  0.000000  0.000000      0.006667
  0.107771  0.000000  0.000000      0.006667
  0.111916  0.000000  0.000000      0.006667
  0.116061  0.000000  0.000000      0.006667
  0.120206  0.000000  0.000000      0.006667
  0.124351  0.000000  0.000000      0.006667
  0.128496  0.000000  0.000000      0.006667
  0.132641  0.000000  0.000000      0.006667
  0.136786  0.000000  0.000000      0.006667
  0.140931  0.000000  0.000000      0.006667
  0.145076  0.000000  0.000000      0.006667
  0.149221  0.000000  0.000000      0.006667
  0.153366  0.000000  0.000000      0.006667
  0.157511  0.000000  0.000000      0.006667
  0.161657  0.000000  0.000000      0.006667
  0.165802  0.000000  0.000000      0.006667
  0.169947  0.000000  0.000000      0.006667
  0.174092  0.000000  0.000000      0.006667
  0.178237  0.000000  0.000000      0.006667
  0.182382  0.000000  0.000000      0.006667
  0.186527  0.000000  0.000000      0.006667
  0.190672  0.000000  0.000000      0.006667
  0.194817  0.000000  0.000000      0.006667
  0.198962  0.000000  0.000000      0.006667
  0.203107  0.000000  0.000000      0.006667
  0.203107  0.000000  0.000000      0.006667
  0.201034  0.003590  0.000000      0.006667
  0.198962  0.007179  0.000000      0.006667
  0.196889  0.010769  0.000000      0.006667
  0.194817  0.014359  0.000000      0.006667
  0.192744  0.017949  0.000000      0.006667
  0.190672  0.021538  0.000000      0.006667
  0.188599  0.025128  0.000000      0.006667
  0.186527  0.028718  0.000000      0.006667
  0.184454  0.032307  0.000000      0.006667
  0.182382  0.035897  0.000000      0.006667
  0.180309  0.039487  0.000000      0.006667
  0.178237  0.043077  0.000000      0.006667
  0.176164  0.046666  0.000000      0.006667
  0.174092  0.050256  0.000000      0.006667
  0.172019  0.053846  0.000000      0.006667
  0.169947  0.057435  0.000000      0.006667
  0.167874  0.061025  0.000000      0.006667
  0.165802  0.064615  0.000000      0.006667
  0.163729  0.068204  0.000000      0.006667
  0.161657  0.071794  0.000000      0.006667
  0.159584  0.075384  0.000000      0.006667
  0.157511  0.078974  0.000000      0.006667
  0.155439  0.082563  0.000000      0.006667
  0.153366  0.086153  0.000000      0.006667
  0.151294  0.089743  0.000000      0.006667
  0.149221  0.093332  0.000000      0.006667
  0.147149  0.096922  0.000000      0.006667
  0.145076  0.100512  0.000000      0.006667
  0.143004  0.104102  0.000000      0.006667
  0.140931  0.107691  0.000000      0.006667
  0.138859  0.111281  0.000000      0.006667
  0.136786  0.114871  0.000000      0.006667
  0.134714  0.118460  0.000000      0.006667
  0.132641  0.122050  0.000000      0.006667
  0.130569  0.125640  0.000000      0.006667
  0.128496  0.129230  0.000000      0.006667
  0.126424  0.132819  0.000000      0.006667
  0.124351  0.136409  0.000000      0.006667
  0.122279  0.139999  0.000000      0.006667
  0.120206  0.143588  0.000000      0.006667
  0.118134  0.147178  0.000000      0.006667
  0.116061  0.150768  0.000000      0.006667
  0.113989  0.154357  0.000000      0.006667
  0.111916  0.157947  0.000000      0.006667
  0.109844  0.161537  0.000000      0.006667
  0.107771  0.165127  0.000000      0.006667
  0.105698  0.168716  0.000000      0.006667
  0.103626  0.172306  0.000000      0.006667
  0.101553  0.175896  0.000000      0.006667
  0.101553  0.175896  0.000000      0.006667
  0.099481  0.172306  0.000000      0.006667
  0.097408  0.168716  0.000000      0.006667
  0.095336  0.165127  0.000000      0.006667
  0.093263  0.161537  0.000000      0.006667
  0.091191  0.157947  0.000000      0.006667
  0.089118  0.154357  0.000000      0.006667
  0.087046  0.150768  0.000000      0.006667
  0.084973  0.147178  0.000000      0.006667
  0.082901  0.143588  0.000000      0.006667
  0.080828  0.139999  0.000000      0.006667
  0.078756  0.136409  0.000000      0.006667
  0.076683  0.132819  0.000000      0.006667
  0.074611  0.129230  0.000000      0.006667
  0.072538  0.125640  0.000000      0.006667
  0.070466  0.122050  0.000000      0.006667
  0.068393  0.118460  0.000000      0.006667
  0.066321  0.114871  0.000000      0.006667
  0.064248  0.111281  0.000000      0.006667
  0.062176  0.107691  0.000000      0.006667
  0.060103  0.104102  0.000000      0.006667
  0.058031  0.100512  0.000000      0.006667
  0.055958  0.096922  0.000000      0.006667
  0.053886  0.093332  0.000000      0.006667
  0.051813  0.089743  0.000000      0.006667
  0.049740  0.086153  0.000000      0.006667
  0.047668  0.082563  0.000000      0.006667
  0.045595  0.078974  0.000000      0.006667
  0.043523  0.075384  0.000000      0.006667
  0.041450  0.071794  0.000000      0.006667
  0.039378  0.068204  0.000000      0.006667
  0.037305  0.064615  0.000000      0.006667
  0.035233  0.061025  0.000000      0.006667
  0.033160  0.057435  0.000000      0.006667
  0.031088  0.053846  0.000000      0.006667
  0.029015  0.050256  0.000000      0.006667
  0.026943  0.046666  0.000000      0.006667
  0.024870  0.043077  0.000000      0.006667
  0.022798  0.039487  0.000000      0.006667
  0.020725  0.035897  0.000000      0.006667
  0.018653  0.032307  0.000000      0.006667
  0.016580  0.028718  0.000000      0.006667
  0.014508  0.025128  0.000000      0.006667
  0.012435  0.021538  0.000000      0.006667
  0.010363  0.017949  0.000000      0.006667
  0.008290  0.014359  0.000000      0.006667
  0.006218  0.010769  0.000000      0.006667
  0.004145  0.007179  0.000000      0.006667
  0.002073  0.003590  0.000000      0.006667
  0.000000  0.000000  0.000000      0.006667
 


--------------------------------------------------------------------------------------------------------




 Dimension of arrays:
   k-points           NKPTS =    150   k-points in BZ     NKDIM =    150   number of bands    NBANDS=     16
   number of dos      NEDOS =   6001   number of ions     NIONS =      2
   non local maximal  LDIM  =      6   non local SUM 2l+1 LMDIM =     18
   total plane-waves  NPLWV =  29160
   max r-space proj   IRMAX =      1   max aug-charges    IRDMAX=  57812
   dimension x,y,z NGX =    18 NGY =   18 NGZ =   90
   dimension x,y,z NGXF=    36 NGYF=   36 NGZF=  180
   support grid    NGXF=    72 NGYF=   72 NGZF=  360
   ions per type =               2
   NGX,Y,Z   is equivalent  to a cutoff of   9.12,  9.12,  9.35 a.u.
   NGXF,Y,Z  is equivalent  to a cutoff of  18.23, 18.23, 18.70 a.u.

 SYSTEM =  unknown system                          
 POSCAR =  pnictogen honeycomb monolayer           

 Startparameter for this run:
   NWRITE =      1    write-flag & timer
   PREC   = accura    normal or accurate (medium, high low for compatibility)
   ISTART =      0    job   : 0-new  1-cont  2-samecut
   ICHARG =     11    charge: 1-file 2-atom 10-const
   ISPIN  =      1    spin polarized calculation?
   LNONCOLLINEAR =      F non collinear calculations
   LSORBIT =      F    spin-orbit coupling
   INIWAV =      1    electr: 0-lowe 1-rand  2-diag
   LASPH  =      T    aspherical Exc in radial PAW
 Electronic Relaxation 1
   ENCUT  =  286.9 eV  21.09 Ry    4.59 a.u.   4.53  4.53 22.10*2*pi/ulx,y,z
   ENINI  =  286.9     initial cutoff
   ENAUG  =  499.7 eV  augmentation charge cutoff
   NELM   =    200;   NELMIN=  6; NELMDL=-12     # of ELM steps 
   EDIFF  = 0.1E-05   stopping-criterion for ELM
   LREAL  =      F    real-space projection
   NLSPLINE    = F    spline interpolate recip. space projectors
   LCOMPAT=      F    compatible to vasp.4.4
   GGA_COMPAT  = T    GGA compatible to vasp.4.4-vasp.4.6
   LMAXPAW     = -100 max onsite density
   LMAXMIX     =    2 max onsite mixed and CHGCAR
   VOSKOWN=      0    Vosko Wilk Nusair interpolation
   ROPT   =    0.00000
 Ionic relaxation
   EDIFFG = -.1E-01   stopping-criterion for IOM
   NSW    =      0    number of steps for IOM
   NBLOCK =      1;   KBLOCK =      1    inner block; outer block 
   IBRION =     -1    ionic relax: 0-MD 1-quasi-New 2-CG
   NFREE  =      1    steps in history (QN), initial steepest desc. (CG)
   ISIF   =     -1    stress and relaxation
   IWAVPR =     10    prediction:  0-non 1-charg 2-wave 3-comb
   ISYM   =      2    0-nonsym 1-usesym 2-fastsym
   LCORR  =      T    Harris-Foulkes like correction to forces

   POTIM  = 0.5000    time-step for ionic-motion
   TEIN   =    0.0    initial temperature
   TEBEG  =    0.0;   TEEND  =   0.0 temperature during run
   SMASS  =  -3.00    Nose mass-parameter (am)
   estimated Nose-frequenzy (Omega)   =  0.10E-29 period in steps = 0.13E+47 mass=  -0.246E-27a.u.
   SCALEE = 1.0000    scale energy and forces
   NPACO  =    256;   APACO  = 10.0  distance and # of slots for P.C.
   PSTRESS=    0.0 pullay stress

  Mass of Ions in am
   POMASS =  30.97
  Ionic Valenz
   ZVAL   =   5.00
  Atomic Wigner-Seitz radii
   RWIGS  =  -1.00
  virtual crystal weights 
   VCA    =   1.00
   NELECT =      10.0000    total number of electrons
   NUPDOWN=      -1.0000    fix difference up-down

 DOS related values:
   EMIN   =  10.00;   EMAX   =-10.00  energy-range for DOS
   EFERMI =   0.00;   METHOD = LEGACY      
   ISMEAR =     0;   SIGMA  =   0.01  broadening in eV -4-tet -1-fermi 0-gaus

 Electronic relaxation 2 (details)
   IALGO  =     38    algorithm
   LDIAG  =      T    sub-space diagonalisation (order eigenvalues)
   LSUBROT=      F    optimize rotation matrix (better conditioning)
   TURBO    =      0    0=normal 1=particle mesh
   IRESTART =      0    0=no restart 2=restart with 2 vectors
   NREBOOT  =      0    no. of reboots
   NMIN     =      0    reboot dimension
   EREF     =   0.00    reference energy to select bands
   IMIX   =      4    mixing-type and parameters
     AMIX     =   0.10;   BMIX     =  0.00
     AMIX_MAG =   0.40;   BMIX_MAG =  0.00
     AMIN     =   0.10
     WC   =   100.;   INIMIX=   1;  MIXPRE=   1;  MAXMIX= -45

 Intra band minimization:
   WEIMIN = 0.0000     energy-eigenvalue tresh-hold
   EBREAK =  0.16E-07  absolut break condition
   DEPER  =   0.30     relativ break condition  

   TIME   =   0.40     timestep for ELM

  volume/ion in A,a.u.               =      74.64       503.72
  Fermi-wavevector in a.u.,A,eV,Ry     =   0.664868  1.256418  6.014444  0.442049
  Thomas-Fermi vector in A             =   1.738688
 
 Write flags
   LWAVE        =      F    write WAVECAR
   LDOWNSAMPLE  =      F    k-point downsampling of WAVECAR
   LCHARG       =      F    write CHGCAR
   LVTOT        =      F    write LOCPOT, total local potential
   LVHAR        =      F    write LOCPOT, Hartree potential only
   LELF         =      F    write electronic localiz. function (ELF)
   LORBIT       =     10    0 simple, 1 ext, 2 COOP (PROOUT), +10 PAW based schemes


 Dipole corrections
   LMONO  =      F    monopole corrections only (constant potential shift)
   LDIPOL =      F    correct potential (dipole corrections)
   IDIPOL =      0    1-x, 2-y, 3-z, 4-all directions 
   EPSILON=  1.0000000 bulk dielectric constant

 Exchange correlation treatment:
   GGA     =    --    GGA type
   LEXCH   =     8    internal setting for exchange type
   LIBXC   =     F    Libxc                    
   VOSKOWN =     0    Vosko Wilk Nusair interpolation
   LHFCALC =     F    Hartree Fock is set to
   LHFONE  =     F    Hartree Fock one center treatment
   AEXX    =    0.0000 exact exchange contribution

 Linear response parameters
   LEPSILON=     F    determine dielectric tensor
   LRPA    =     F    only Hartree local field effects (RPA)
   LNABLA  =     F    use nabla operator in PAW spheres
   LVEL    =     F    velocity operator in full k-point grid
   CSHIFT  =0.1000    complex shift for real part using Kramers Kronig
   OMEGAMAX=  -1.0    maximum frequency
   DEG_THRESHOLD= 0.2000000E-02 threshold for treating states as degnerate
   RTIME   =   -0.100 relaxation time in fs
  (WPLASMAI=    0.000 imaginary part of plasma frequency in eV, 0.658/RTIME)
   DFIELD  = 0.0000000 0.0000000 0.0000000 field for delta impulse in time
 
  Optional k-point grid parameters
   LKPOINTS_OPT  =     F    use optional k-point grid
   KPOINTS_OPT_MODE=     1    mode for optional k-point grid
 
 Orbital magnetization related:
   ORBITALMAG=     F  switch on orbital magnetization
   LCHIMAG   =     F  perturbation theory with respect to B field
   DQ        =  0.001000  dq finite difference perturbation B field
   LLRAUG    =     F  two centre corrections for induced B field
   LBONE     =     F  B-component reconstruction in AE one-centre
   LVGVCALC  =     T  calculate vGv susceptibility
   LVGVAPPL  =     F  apply vGv susceptibility instead of pGv for G=0

 Random number generation:
   RANDOM_GENERATOR = DEFAULT
   PCG_SEED         = not used


--------------------------------------------------------------------------------------------------------


 Static calculation
 charge density and potential remain constant during run
 non-spin polarized calculation
 Variant of blocked Davidson
 Davidson routine will perform the subspace rotation
 perform sub-space diagonalisation
    after iterative eigenvector-optimisation
 no mixing
 using additional bands           11
 reciprocal scheme for non local part
 use partial core corrections
 calculate Harris-corrections to forces 
   (improved forces if not selfconsistent)
 use gradient corrections 
 WARNING: stress and forces are not correct
  (second derivative of E(xc) not defined)
 use of overlap-Matrix (Vanderbilt PP)
 Gauss-broadening in eV      SIGMA  =   0.01


--------------------------------------------------------------------------------------------------------


  energy-cutoff  :      286.92
  volume of cell :      149.29
      direct lattice vectors                 reciprocal lattice vectors
     3.282343494  0.000000000  0.000000000     0.304660375  0.175895750  0.000000000
    -1.641171747  2.842592850  0.000000000     0.000000000  0.351791499  0.000000000
     0.000000000  0.000000000 16.000000000     0.000000000  0.000000000  0.062500000

  length of vectors
     3.282343494  3.282343494 16.000000000     0.351791499  0.351791499  0.062500000


 
 k-points in units of 2pi/SCALE and weight: kpoints along symmetry lines            
   0.00000000  0.00000000  0.00000000       0.007
   0.00414504  0.00000000  0.00000000       0.007
   0.00829008  0.00000000  0.00000000       0.007
   0.01243512  0.00000000  0.00000000       0.007
   0.01658016  0.00000000  0.00000000       0.007
   0.02072520  0.00000000  0.00000000       0.007
   0.02487023  0.00000000  0.00000000       0.007
   0.02901527  0.00000000  0.00000000       0.007
   0.03316031  0.00000000  0.00000000       0.007
   0.03730535  0.00000000  0.00000000       0.007
   0.04145039  0.00000000  0.00000000       0.007
   0.04559543  0.00000000  0.00000000       0.007
   0.04974047  0.00000000  0.00000000       0.007
   0.05388551  0.00000000  0.00000000       0.007
   0.05803055  0.00000000  0.00000000       0.007
   0.06217559  0.00000000  0.00000000       0.007
   0.06632063  0.00000000  0.00000000       0.007
   0.07046566  0.00000000  0.00000000       0.007
   0.07461070  0.00000000  0.00000000       0.007
   0.07875574  0.00000000  0.00000000       0.007
   0.08290078  0.00000000  0.00000000       0.007
   0.08704582  0.00000000  0.00000000       0.007
   0.09119086  0.00000000  0.00000000       0.007
   0.09533590  0.00000000  0.00000000       0.007
   0.09948094  0.00000000  0.00000000       0.007
   0.10362598  0.00000000  0.00000000       0.007
   0.10777102  0.00000000  0.00000000       0.007
   0.11191606  0.00000000  0.00000000       0.007
   0.11606110  0.00000000  0.00000000       0.007
   0.12020613  0.00000000  0.00000000       0.007
   0.12435117  0.00000000  0.00000000       0.007
   0.12849621  0.00000000  0.00000000       0.007
   0.13264125  0.00000000  0.00000000       0.007
   0.13678629  0.00000000  0.00000000       0.007
   0.14093133  0.00000000  0.00000000       0.007
   0.14507637  0.00000000  0.00000000       0.007
   0.14922141  0.00000000  0.00000000       0.007
   0.15336645  0.00000000  0.00000000       0.007
   0.15751149  0.00000000  0.00000000       0.007
   0.16165653  0.00000000  0.00000000       0.007
   0.16580156  0.00000000  0.00000000       0.007
   0.16994660  0.00000000  0.00000000       0.007
   0.17409164  0.00000000  0.00000000       0.007
   0.17823668  0.00000000  0.00000000       0.007
   0.18238172  0.00000000  0.00000000       0.007
   0.18652676  0.00000000  0.00000000       0.007
   0.19067180  0.00000000  0.00000000       0.007
   0.19481684  0.00000000  0.00000000       0.007
   0.19896188  0.00000000  0.00000000       0.007
   0.20310692  0.00000000  0.00000000       0.007
   0.20310692  0.00000000  0.00000000       0.007
   0.20103440  0.00358971  0.00000000       0.007
   0.19896188  0.00717942  0.00000000       0.007
   0.19688936  0.01076913  0.00000000       0.007
   0.19481684  0.01435884  0.00000000       0.007
   0.19274432  0.01794855  0.00000000       0.007
   0.19067180  0.02153826  0.00000000       0.007
   0.18859928  0.02512796  0.00000000       0.007
   0.18652676  0.02871767  0.00000000       0.007
   0.18445424  0.03230738  0.00000000       0.007
   0.18238172  0.03589709  0.00000000       0.007
   0.18030920  0.03948680  0.00000000       0.007
   0.17823668  0.04307651  0.00000000       0.007
   0.17616416  0.04666622  0.00000000       0.007
   0.17409164  0.05025593  0.00000000       0.007
   0.17201912  0.05384564  0.00000000       0.007
   0.16994660  0.05743535  0.00000000       0.007
   0.16787408  0.06102506  0.00000000       0.007
   0.16580156  0.06461477  0.00000000       0.007
   0.16372905  0.06820447  0.00000000       0.007
   0.16165653  0.07179418  0.00000000       0.007
   0.15958401  0.07538389  0.00000000       0.007
   0.15751149  0.07897360  0.00000000       0.007
   0.15543897  0.08256331  0.00000000       0.007
   0.15336645  0.08615302  0.00000000       0.007
   0.15129393  0.08974273  0.00000000       0.007
   0.14922141  0.09333244  0.00000000       0.007
   0.14714889  0.09692215  0.00000000       0.007
   0.14507637  0.10051186  0.00000000       0.007
   0.14300385  0.10410157  0.00000000       0.007
   0.14093133  0.10769128  0.00000000       0.007
   0.13885881  0.11128098  0.00000000       0.007
   0.13678629  0.11487069  0.00000000       0.007
   0.13471377  0.11846040  0.00000000       0.007
   0.13264125  0.12205011  0.00000000       0.007
   0.13056873  0.12563982  0.00000000       0.007
   0.12849621  0.12922953  0.00000000       0.007
   0.12642369  0.13281924  0.00000000       0.007
   0.12435117  0.13640895  0.00000000       0.007
   0.12227865  0.13999866  0.00000000       0.007
   0.12020613  0.14358837  0.00000000       0.007
   0.11813361  0.14717808  0.00000000       0.007
   0.11606110  0.15076779  0.00000000       0.007
   0.11398858  0.15435749  0.00000000       0.007
   0.11191606  0.15794720  0.00000000       0.007
   0.10984354  0.16153691  0.00000000       0.007
   0.10777102  0.16512662  0.00000000       0.007
   0.10569850  0.16871633  0.00000000       0.007
   0.10362598  0.17230604  0.00000000       0.007
   0.10155346  0.17589575  0.00000000       0.007
   0.10155346  0.17589575  0.00000000       0.007
   0.09948094  0.17230604  0.00000000       0.007
   0.09740842  0.16871633  0.00000000       0.007
   0.09533590  0.16512662  0.00000000       0.007
   0.09326338  0.16153691  0.00000000       0.007
   0.09119086  0.15794720  0.00000000       0.007
   0.08911834  0.15435749  0.00000000       0.007
   0.08704582  0.15076779  0.00000000       0.007
   0.08497330  0.14717808  0.00000000       0.007
   0.08290078  0.14358837  0.00000000       0.007
   0.08082826  0.13999866  0.00000000       0.007
   0.07875574  0.13640895  0.00000000       0.007
   0.07668322  0.13281924  0.00000000       0.007
   0.07461070  0.12922953  0.00000000       0.007
   0.07253818  0.12563982  0.00000000       0.007
   0.07046566  0.12205011  0.00000000       0.007
   0.06839315  0.11846040  0.00000000       0.007
   0.06632063  0.11487069  0.00000000       0.007
   0.06424811  0.11128098  0.00000000       0.007
   0.06217559  0.10769128  0.00000000       0.007
   0.06010307  0.10410157  0.00000000       0.007
   0.05803055  0.10051186  0.00000000       0.007
   0.05595803  0.09692215  0.00000000       0.007
   0.05388551  0.09333244  0.00000000       0.007
   0.05181299  0.08974273  0.00000000       0.007
   0.04974047  0.08615302  0.00000000       0.007
   0.04766795  0.08256331  0.00000000       0.007
   0.04559543  0.07897360  0.00000000       0.007
   0.04352291  0.07538389  0.00000000       0.007
   0.04145039  0.07179418  0.00000000       0.007
   0.03937787  0.06820447  0.00000000       0.007
   0.03730535  0.06461477  0.00000000       0.007
   0.03523283  0.06102506  0.00000000       0.007
   0.03316031  0.05743535  0.00000000       0.007
   0.03108779  0.05384564  0.00000000       0.007
   0.02901527  0.05025593  0.00000000       0.007
   0.02694275  0.04666622  0.00000000       0.007
   0.02487023  0.04307651  0.00000000       0.007
   0.02279772  0.03948680  0.00000000       0.007
   0.02072520  0.03589709  0.00000000       0.007
   0.01865268  0.03230738  0.00000000       0.007
   0.01658016  0.02871767  0.00000000       0.007
   0.01450764  0.02512796  0.00000000       0.007
   0.01243512  0.02153826  0.00000000       0.007
   0.01036260  0.01794855  0.00000000       0.007
   0.00829008  0.01435884  0.00000000       0.007
   0.00621756  0.01076913  0.00000000       0.007
   0.00414504  0.00717942  0.00000000       0.007
   0.00207252  0.00358971  0.00000000       0.007
   0.00000000  0.00000000  0.00000000       0.007
 
 k-points in reciprocal lattice and weights: kpoints along symmetry lines            
   0.00000000  0.00000000  0.00000000       0.007
   0.01360544 -0.00680272  0.00000000       0.007
   0.02721088 -0.01360544  0.00000000       0.007
   0.04081633 -0.02040816  0.00000000       0.007
   0.05442177 -0.02721088  0.00000000       0.007
   0.06802721 -0.03401361  0.00000000       0.007
   0.08163265 -0.04081633  0.00000000       0.007
   0.09523810 -0.04761905  0.00000000       0.007
   0.10884354 -0.05442177  0.00000000       0.007
   0.12244898 -0.06122449  0.00000000       0.007
   0.13605442 -0.06802721  0.00000000       0.007
   0.14965986 -0.07482993  0.00000000       0.007
   0.16326531 -0.08163265  0.00000000       0.007
   0.17687075 -0.08843537  0.00000000       0.007
   0.19047619 -0.09523810  0.00000000       0.007
   0.20408163 -0.10204082  0.00000000       0.007
   0.21768707 -0.10884354  0.00000000       0.007
   0.23129252 -0.11564626  0.00000000       0.007
   0.24489796 -0.12244898  0.00000000       0.007
   0.25850340 -0.12925170  0.00000000       0.007
   0.27210884 -0.13605442  0.00000000       0.007
   0.28571429 -0.14285714  0.00000000       0.007
   0.29931973 -0.14965986  0.00000000       0.007
   0.31292517 -0.15646259  0.00000000       0.007
   0.32653061 -0.16326531  0.00000000       0.007
   0.34013605 -0.17006803  0.00000000       0.007
   0.35374150 -0.17687075  0.00000000       0.007
   0.36734694 -0.18367347  0.00000000       0.007
   0.38095238 -0.19047619  0.00000000       0.007
   0.39455782 -0.19727891  0.00000000       0.007
   0.40816327 -0.20408163  0.00000000       0.007
   0.42176871 -0.21088435  0.00000000       0.007
   0.43537415 -0.21768707  0.00000000       0.007
   0.44897959 -0.22448980  0.00000000       0.007
   0.46258503 -0.23129252  0.00000000       0.007
   0.47619048 -0.23809524  0.00000000       0.007
   0.48979592 -0.24489796  0.00000000       0.007
   0.50340136 -0.25170068  0.00000000       0.007
   0.51700680 -0.25850340  0.00000000       0.007
   0.53061224 -0.26530612  0.00000000       0.007
   0.54421769 -0.27210884  0.00000000       0.007
   0.55782313 -0.27891156  0.00000000       0.007
   0.57142857 -0.28571429  0.00000000       0.007
   0.58503401 -0.29251701  0.00000000       0.007
   0.59863946 -0.29931973  0.00000000       0.007
   0.61224490 -0.30612245  0.00000000       0.007
   0.62585034 -0.31292517  0.00000000       0.007
   0.63945578 -0.31972789  0.00000000       0.007
   0.65306122 -0.32653061  0.00000000       0.007
   0.66666667 -0.33333333  0.00000000       0.007
   0.66666667 -0.33333333  0.00000000       0.007
   0.65986395 -0.31972789  0.00000000       0.007
   0.65306122 -0.30612245  0.00000000       0.007
   0.64625850 -0.29251701  0.00000000       0.007
   0.63945578 -0.27891156  0.00000000       0.007
   0.63265306 -0.26530612  0.00000000       0.007
   0.62585034 -0.25170068  0.00000000       0.007
   0.61904762 -0.23809524  0.00000000       0.007
   0.61224490 -0.22448980  0.00000000       0.007
   0.60544218 -0.21088435  0.00000000       0.007
   0.59863946 -0.19727891  0.00000000       0.007
   0.59183673 -0.18367347  0.00000000       0.007
   0.58503401 -0.17006803  0.00000000       0.007
   0.57823129 -0.15646259  0.00000000       0.007
   0.57142857 -0.14285714  0.00000000       0.007
   0.56462585 -0.12925170  0.00000000       0.007
   0.55782313 -0.11564626  0.00000000       0.007
   0.55102041 -0.10204082  0.00000000       0.007
   0.54421769 -0.08843537  0.00000000       0.007
   0.53741497 -0.07482993  0.00000000       0.007
   0.53061224 -0.06122449  0.00000000       0.007
   0.52380952 -0.04761905  0.00000000       0.007
   0.51700680 -0.03401361  0.00000000       0.007
   0.51020408 -0.02040816  0.00000000       0.007
   0.50340136 -0.00680272  0.00000000       0.007
   0.49659864  0.00680272  0.00000000       0.007
   0.48979592  0.02040816  0.00000000       0.007
   0.48299320  0.03401361  0.00000000       0.007
   0.47619048  0.04761905  0.00000000       0.007
   0.46938776  0.06122449  0.00000000       0.007
   0.46258503  0.07482993  0.00000000       0.007
   0.45578231  0.08843537  0.00000000       0.007
   0.44897959  0.10204082  0.00000000       0.007
   0.44217687  0.11564626  0.00000000       0.007
   0.43537415  0.12925170  0.00000000       0.007
   0.42857143  0.14285714  0.00000000       0.007
   0.42176871  0.15646259  0.00000000       0.007
   0.41496599  0.17006803  0.00000000       0.007
   0.40816327  0.18367347  0.00000000       0.007
   0.40136054  0.19727891  0.00000000       0.007
   0.39455782  0.21088435  0.00000000       0.007
   0.38775510  0.22448980  0.00000000       0.007
   0.38095238  0.23809524  0.00000000       0.007
   0.37414966  0.25170068  0.00000000       0.007
   0.36734694  0.26530612  0.00000000       0.007
   0.36054422  0.27891156  0.00000000       0.007
   0.35374150  0.29251701  0.00000000       0.007
   0.34693878  0.30612245  0.00000000       0.007
   0.34013605  0.31972789  0.00000000       0.007
   0.33333333  0.33333333  0.00000000       0.007
   0.33333333  0.33333333  0.00000000       0.007
   0.32653061  0.32653061  0.00000000       0.007
   0.31972789  0.31972789  0.00000000       0.007
   0.31292517  0.31292517  0.00000000       0.007
   0.30612245  0.30612245  0.00000000       0.007
   0.29931973  0.29931973  0.00000000       0.007
   0.29251701  0.29251701  0.00000000       0.007
   0.28571429  0.28571429  0.00000000       0.007
   0.27891156  0.27891156  0.00000000       0.007
   0.27210884  0.27210884  0.00000000       0.007
   0.26530612  0.26530612  0.00000000       0.007
   0.25850340  0.25850340  0.00000000       0.007
   0.25170068  0.25170068  0.00000000       0.007
   0.24489796  0.24489796  0.00000000       0.007
   0.23809524  0.23809524  0.00000000       0.007
   0.23129252  0.23129252  0.00000000       0.007
   0.22448980  0.22448980  0.00000000       0.007
   0.21768707  0.21768707  0.00000000       0.007
   0.21088435  0.21088435  0.00000000       0.007
   0.20408163  0.20408163  0.00000000       0.007
   0.19727891  0.19727891  0.00000000       0.007
   0.19047619  0.19047619  0.00000000       0.007
   0.18367347  0.18367347  0.00000000       0.007
   0.17687075  0.17687075  0.00000000       0.007
   0.17006803  0.17006803  0.00000000       0.007
   0.16326531  0.16326531  0.00000000       0.007
   0.15646259  0.15646259  0.00000000       0.007
   0.14965986  0.14965986  0.00000000       0.007
   0.14285714  0.14285714  0.00000000       0.007
   0.13605442  0.13605442  0.00000000       0.007
   0.12925170  0.12925170  0.00000000       0.007
   0.12244898  0.12244898  0.00000000       0.007
   0.11564626  0.11564626  0.00000000       0.007
   0.10884354  0.10884354  0.00000000       0.007
   0.10204082  0.10204082  0.00000000       0.007
   0.09523810  0.09523810  0.00000000       0.007
   0.08843537  0.08843537  0.00000000       0.007
   0.08163265  0.08163265  0.00000000       0.007
   0.07482993  0.07482993  0.00000000       0.007
   0.06802721  0.06802721  0.00000000       0.007
   0.06122449  0.06122449  0.00000000       0.007
   0.05442177  0.05442177  0.00000000       0.007
   0.04761905  0.04761905  0.00000000       0.007
   0.04081633  0.04081633  0.00000000       0.007
   0.03401361  0.03401361  0.00000000       0.007
   0.02721088  0.02721088  0.00000000       0.007
   0.02040816  0.02040816  0.00000000       0.007
   0.01360544  0.01360544  0.00000000       0.007
   0.00680272  0.00680272  0.00000000       0.007
   0.00000000  0.00000000  0.00000000       0.007
 
 position of ions in fractional coordinates (direct lattice) 
   0.66666667  0.33333333  0.46118284
   0.33333333  0.66666667  0.53881716
 
 position of ions in cartesian coordinates  (Angst):
   1.64117175  0.94753095  7.37892542
   0.00000000  1.89506190  8.62107458
 


--------------------------------------------------------------------------------------------------------


 k-point   1 :   0.0000 0.0000 0.0000  plane waves:    1671
 k-point   2 :   0.0136-0.0068 0.0000  plane waves:    1667
 k-point   3 :   0.0272-0.0136 0.0000  plane waves:    1671
 k-point   4 :   0.0408-0.0204 0.0000  plane waves:    1675
 k-point   5 :   0.0544-0.0272 0.0000  plane waves:    1669
 k-point   6 :   0.0680-0.0340 0.0000  plane waves:    1665
 k-point   7 :   0.0816-0.0408 0.0000  plane waves:    1665
 k-point   8 :   0.0952-0.0476 0.0000  plane waves:    1657
 k-point   9 :   0.1088-0.0544 0.0000  plane waves:    1663
 k-point  10 :   0.1224-0.0612 0.0000  plane waves:    1667
 k-point  11 :   0.1361-0.0680 0.0000  plane waves:    1671
 k-point  12 :   0.1497-0.0748 0.0000  plane waves:    1673
 k-point  13 :   0.1633-0.0816 0.0000  plane waves:    1681
 k-point  14 :   0.1769-0.0884 0.0000  plane waves:    1685
 k-point  15 :   0.1905-0.0952 0.0000  plane waves:    1685
 k-point  16 :   0.2041-0.1020 0.0000  plane waves:    1683
 k-point  17 :   0.2177-0.1088 0.0000  plane waves:    1679
 k-point  18 :   0.2313-0.1156 0.0000  plane waves:    1673
 k-point  19 :   0.2449-0.1224 0.0000  plane waves:    1677
 k-point  20 :   0.2585-0.1293 0.0000  plane waves:    1681
 k-point  21 :   0.2721-0.1361 0.0000  plane waves:    1669
 k-point  22 :   0.2857-0.1429 0.0000  plane waves:    1665
 k-point  23 :   0.2993-0.1497 0.0000  plane waves:    1665
 k-point  24 :   0.3129-0.1565 0.0000  plane waves:    1659
 k-point  25 :   0.3265-0.1633 0.0000  plane waves:    1657
 k-point  26 :   0.3401-0.1701 0.0000  plane waves:    1663
 k-point  27 :   0.3537-0.1769 0.0000  plane waves:    1655
 k-point  28 :   0.3673-0.1837 0.0000  plane waves:    1645
 k-point  29 :   0.3810-0.1905 0.0000  plane waves:    1649
 k-point  30 :   0.3946-0.1973 0.0000  plane waves:    1643
 k-point  31 :   0.4082-0.2041 0.0000  plane waves:    1639
 k-point  32 :   0.4218-0.2109 0.0000  plane waves:    1637
 k-point  33 :   0.4354-0.2177 0.0000  plane waves:    1639
 k-point  34 :   0.4490-0.2245 0.0000  plane waves:    1635
 k-point  35 :   0.4626-0.2313 0.0000  plane waves:    1637
 k-point  36 :   0.4762-0.2381 0.0000  plane waves:    1629
 k-point  37 :   0.4898-0.2449 0.0000  plane waves:    1625
 k-point  38 :   0.5034-0.2517 0.0000  plane waves:    1623
 k-point  39 :   0.5170-0.2585 0.0000  plane waves:    1627
 k-point  40 :   0.5306-0.2653 0.0000  plane waves:    1633
 k-point  41 :   0.5442-0.2721 0.0000  plane waves:    1628
 k-point  42 :   0.5578-0.2789 0.0000  plane waves:    1624
 k-point  43 :   0.5714-0.2857 0.0000  plane waves:    1628
 k-point  44 :   0.5850-0.2925 0.0000  plane waves:    1632
 k-point  45 :   0.5986-0.2993 0.0000  plane waves:    1634
 k-point  46 :   0.6122-0.3061 0.0000  plane waves:    1634
 k-point  47 :   0.6259-0.3129 0.0000  plane waves:    1634
 k-point  48 :   0.6395-0.3197 0.0000  plane waves:    1632
 k-point  49 :   0.6531-0.3265 0.0000  plane waves:    1616
 k-point  50 :   0.6667-0.3333 0.0000  plane waves:    1608
 k-point  51 :   0.6667-0.3333 0.0000  plane waves:    1608
 k-point  52 :   0.6599-0.3197 0.0000  plane waves:    1618
 k-point  53 :   0.6531-0.3061 0.0000  plane waves:    1626
 k-point  54 :   0.6463-0.2925 0.0000  plane waves:    1626
 k-point  55 :   0.6395-0.2789 0.0000  plane waves:    1626
 k-point  56 :   0.6327-0.2653 0.0000  plane waves:    1626
 k-point  57 :   0.6259-0.2517 0.0000  plane waves:    1634
 k-point  58 :   0.6190-0.2381 0.0000  plane waves:    1634
 k-point  59 :   0.6122-0.2245 0.0000  plane waves:    1634
 k-point  60 :   0.6054-0.2109 0.0000  plane waves:    1630
 k-point  61 :   0.5986-0.1973 0.0000  plane waves:    1634
 k-point  62 :   0.5918-0.1837 0.0000  plane waves:    1636
 k-point  63 :   0.5850-0.1701 0.0000  plane waves:    1640
 k-point  64 :   0.5782-0.1565 0.0000  plane waves:    1640
 k-point  65 :   0.5714-0.1429 0.0000  plane waves:    1636
 k-point  66 :   0.5646-0.1293 0.0000  plane waves:    1632
 k-point  67 :   0.5578-0.1156 0.0000  plane waves:    1634
 k-point  68 :   0.5510-0.1020 0.0000  plane waves:    1628
 k-point  69 :   0.5442-0.0884 0.0000  plane waves:    1632
 k-point  70 :   0.5374-0.0748 0.0000  plane waves:    1626
 k-point  71 :   0.5306-0.0612 0.0000  plane waves:    1626
 k-point  72 :   0.5238-0.0476 0.0000  plane waves:    1628
 k-point  73 :   0.5170-0.0340 0.0000  plane waves:    1628
 k-point  74 :   0.5102-0.0204 0.0000  plane waves:    1628
 k-point  75 :   0.5034-0.0068 0.0000  plane waves:    1628
 k-point  76 :   0.4966 0.0068 0.0000  plane waves:    1628
 k-point  77 :   0.4898 0.0204 0.0000  plane waves:    1628
 k-point  78 :   0.4830 0.0340 0.0000  plane waves:    1628
 k-point  79 :   0.4762 0.0476 0.0000  plane waves:    1628
 k-point  80 :   0.4694 0.0612 0.0000  plane waves:    1626
 k-point  81 :   0.4626 0.0748 0.0000  plane waves:    1626
 k-point  82 :   0.4558 0.0884 0.0000  plane waves:    1632
 k-point  83 :   0.4490 0.1020 0.0000  plane waves:    1628
 k-point  84 :   0.4422 0.1156 0.0000  plane waves:    1634
 k-point  85 :   0.4354 0.1293 0.0000  plane waves:    1632
 k-point  86 :   0.4286 0.1429 0.0000  plane waves:    1636
 k-point  87 :   0.4218 0.1565 0.0000  plane waves:    1640
 k-point  88 :   0.4150 0.1701 0.0000  plane waves:    1640
 k-point  89 :   0.4082 0.1837 0.0000  plane waves:    1636
 k-point  90 :   0.4014 0.1973 0.0000  plane waves:    1634
 k-point  91 :   0.3946 0.2109 0.0000  plane waves:    1630
 k-point  92 :   0.3878 0.2245 0.0000  plane waves:    1634
 k-point  93 :   0.3810 0.2381 0.0000  plane waves:    1634
 k-point  94 :   0.3741 0.2517 0.0000  plane waves:    1634
 k-point  95 :   0.3673 0.2653 0.0000  plane waves:    1626
 k-point  96 :   0.3605 0.2789 0.0000  plane waves:    1626
 k-point  97 :   0.3537 0.2925 0.0000  plane waves:    1626
 k-point  98 :   0.3469 0.3061 0.0000  plane waves:    1626
 k-point  99 :   0.3401 0.3197 0.0000  plane waves:    1618
 k-point 100 :   0.3333 0.3333 0.0000  plane waves:    1608
 k-point 101 :   0.3333 0.3333 0.0000  plane waves:    1608
 k-point 102 :   0.3265 0.3265 0.0000  plane waves:    1616
 k-point 103 :   0.3197 0.3197 0.0000  plane waves:    1632
 k-point 104 :   0.3129 0.3129 0.0000  plane waves:    1634
 k-point 105 :   0.3061 0.3061 0.0000  plane waves:    1634
 k-point 106 :   0.2993 0.2993 0.0000  plane waves:    1634
 k-point 107 :   0.2925 0.2925 0.0000  plane waves:    1632
 k-point 108 :   0.2857 0.2857 0.0000  plane waves:    1628
 k-point 109 :   0.2789 0.2789 0.0000  plane waves:    1624
 k-point 110 :   0.2721 0.2721 0.0000  plane waves:    1628
 k-point 111 :   0.2653 0.2653 0.0000  plane waves:    1633
 k-point 112 :   0.2585 0.2585 0.0000  plane waves:    1627
 k-point 113 :   0.2517 0.2517 0.0000  plane waves:    1623
 k-point 114 :   0.2449 0.2449 0.0000  plane waves:    1625
 k-point 115 :   0.2381 0.2381 0.0000  plane waves:    1629
 k-point 116 :   0.2313 0.2313 0.0000  plane waves:    1637
 k-point 117 :   0.2245 0.2245 0.0000  plane waves:    1635
 k-point 118 :   0.2177 0.2177 0.0000  plane waves:    1639
 k-point 119 :   0.2109 0.2109 0.0000  plane waves:    1637
 k-point 120 :   0.2041 0.2041 0.0000  plane waves:    1639
 k-point 121 :   0.1973 0.1973 0.0000  plane waves:    1643
 k-point 122 :   0.1905 0.1905 0.0000  plane waves:    1649
 k-point 123 :   0.1837 0.1837 0.0000  plane waves:    1645
 k-point 124 :   0.1769 0.1769 0.0000  plane waves:    1655
 k-point 125 :   0.1701 0.1701 0.0000  plane waves:    1663
 k-point 126 :   0.1633 0.1633 0.0000  plane waves:    1657
 k-point 127 :   0.1565 0.1565 0.0000  plane waves:    1659
 k-point 128 :   0.1497 0.1497 0.0000  plane waves:    1665
 k-point 129 :   0.1429 0.1429 0.0000  plane waves:    1665
 k-point 130 :   0.1361 0.1361 0.0000  plane waves:    1669
 k-point 131 :   0.1293 0.1293 0.0000  plane waves:    1681
 k-point 132 :   0.1224 0.1224 0.0000  plane waves:    1677
 k-point 133 :   0.1156 0.1156 0.0000  plane waves:    1673
 k-point 134 :   0.1088 0.1088 0.0000  plane waves:    1679
 k-point 135 :   0.1020 0.1020 0.0000  plane waves:    1683
 k-point 136 :   0.0952 0.0952 0.0000  plane waves:    1685
 k-point 137 :   0.0884 0.0884 0.0000  plane waves:    1685
 k-point 138 :   0.0816 0.0816 0.0000  plane waves:    1681
 k-point 139 :   0.0748 0.0748 0.0000  plane waves:    1673
 k-point 140 :   0.0680 0.0680 0.0000  plane waves:    1671
 k-point 141 :   0.0612 0.0612 0.0000  plane waves:    1667
 k-point 142 :   0.0544 0.0544 0.0000  plane waves:    1663
 k-point 143 :   0.0476 0.0476 0.0000  plane waves:    1657
 k-point 144 :   0.0408 0.0408 0.0000  plane waves:    1665
 k-point 145 :   0.0340 0.0340 0.0000  plane waves:    1665
 k-point 146 :   0.0272 0.0272 0.0000  plane waves:    1669
 k-point 147 :   0.0204 0.0204 0.0000  plane waves:    1675
 k-point 148 :   0.0136 0.0136 0.0000  plane waves:    1671
 k-point 149 :   0.0068 0.0068 0.0000  plane waves:    1667
 k-point 150 :   0.0000 0.0000 0.0000  plane waves:    1671

 maximum and minimum number of plane-waves per node :       428      392

 maximum number of plane-waves:      1685
 maximum index in each direction: 
   IXMAX=    4   IYMAX=    4   IZMAX=   22
   IXMIN=   -5   IYMIN=   -4   IZMIN=  -22


 parallel 3D FFT for wavefunctions:
    minimum data exchange during FFTs selected (reduces bandwidth)
 parallel 3D FFT for charge:
    minimum data exchange during FFTs selected (reduces bandwidth)


 total amount of memory used by VASP MPI-rank0    47446. kBytes
=======================================================================

   base      :      30000. kBytes
   nonl-proj :       9258. kBytes
   fftplans  :       2608. kBytes
   grid      :       1265. kBytes
   one-center:         15. kBytes
   wavefun   :       4300. kBytes
 
     INWAV:  cpu time      0.0001: real time      0.0010
 initial charge density was supplied:
 number of electron      10.0000000 magnetization 
 keeping initial charge density in first step


--------------------------------------------------------------------------------------------------------


 Maximum index for augmentation-charges         3859 (set IRDMAX)


--------------------------------------------------------------------------------------------------------


 First call to EWALD:  gamma=   0.334
 Maximum number of real-space cells 5x 5x 1
 Maximum number of reciprocal cells 2x 2x 7

    FEWALD:  cpu time      0.0013: real time      0.0013


--------------------------------------- Ionic step        1  -------------------------------------------




--------------------------------------- Iteration      1(   1)  ---------------------------------------


    POTLOK:  cpu time      0.0120: real time      0.0537
    SETDIJ:  cpu time      0.2149: real time      0.2152
     EDDAV:  cpu time      1.0998: real time      1.1007
       DOS:  cpu time      0.0040: real time      0.0040
    --------------------------------------------
      LOOP:  cpu time      1.3308: real time      1.3736

 eigenvalue-minimisations  :  4800
 total energy-change (2. order) : 0.3364617E+02  (-0.2394582E+03)
 number of electron      10.0000000 magnetization 
 augmentation part       10.0000000 magnetization 

 Free energy of the ion-electron system (eV)
  ---------------------------------------------------
  alpha Z        PSCENC =         3.71007814
  Ewald energy   TEWEN  =       534.42243236
  -Hartree energ DENC   =      -838.78022028
  -exchange      EXHF   =         0.00000000
  -V(xc)+E(xc)   XCENC  =        -7.05571711
  PAW double counting   =       350.86819597     -320.30649724
  entropy T*S    EENTRO =        -0.00006085
  eigenvalues    EBANDS =       -41.28772305
  atomic energy  EATOM  =       352.07568098
  Solvation  Ediel_sol  =         0.00000000
  ---------------------------------------------------
  free energy    TOTEN  =        33.64616892 eV

  energy without entropy =       33.64622978  energy(sigma->0) =       33.64619935


--------------------------------------------------------------------------------------------------------




--------------------------------------- Iteration      1(   2)  ---------------------------------------


     EDDAV:  cpu time      1.3831: real time      1.3841
       DOS:  cpu time      0.0031: real time      0.0031
    --------------------------------------------
      LOOP:  cpu time      1.3862: real time      1.3872

 eigenvalue-minimisations  :  7136
 total energy-change (2. order) :-0.4122383E+02  (-0.3845326E+02)
 number of electron      10.0000000 magnetization 
 augmentation part       10.0000000 magnetization 

 Free energy of the ion-electron system (eV)
  ---------------------------------------------------
  alpha Z        PSCENC =         3.71007814
  Ewald energy   TEWEN  =       534.42243236
  -Hartree energ DENC   =      -838.78022028
  -exchange      EXHF   =         0.00000000
  -V(xc)+E(xc)   XCENC  =        -7.05571711
  PAW double counting   =       350.86819597     -320.30649724
  entropy T*S    EENTRO =        -0.00000000
  eigenvalues    EBANDS =       -82.51161703
  atomic energy  EATOM  =       352.07568098
  Solvation  Ediel_sol  =         0.00000000
  ---------------------------------------------------
  free energy    TOTEN  =        -7.57766420 eV

  energy without entropy =       -7.57766420  energy(sigma->0) =       -7.57766420


--------------------------------------------------------------------------------------------------------




--------------------------------------- Iteration      1(   3)  ---------------------------------------


     EDDAV:  cpu time      1.2696: real time      1.2704
       DOS:  cpu time      0.0029: real time      0.0029
    --------------------------------------------
      LOOP:  cpu time      1.2725: real time      1.2732

 eigenvalue-minimisations  :  6616
 total energy-change (2. order) :-0.3006971E+01  (-0.2993453E+01)
 number of electron      10.0000000 magnetization 
 augmentation part       10.0000000 magnetization 

 Free energy of the ion-electron system (eV)
  ---------------------------------------------------
  alpha Z        PSCENC =         3.71007814
  Ewald energy   TEWEN  =       534.42243236
  -Hartree energ DENC   =      -838.78022028
  -exchange      EXHF   =         0.00000000
  -V(xc)+E(xc)   XCENC  =        -7.05571711
  PAW double counting   =       350.86819597     -320.30649724
  entropy T*S    EENTRO =        -0.00000000
  eigenvalues    EBANDS =       -85.51858770
  atomic energy  EATOM  =       352.07568098
  Solvation  Ediel_sol  =         0.00000000
  ---------------------------------------------------
  free energy    TOTEN  =       -10.58463488 eV

  energy without entropy =      -10.58463488  energy(sigma->0) =      -10.58463488


--------------------------------------------------------------------------------------------------------




--------------------------------------- Iteration      1(   4)  ---------------------------------------


     EDDAV:  cpu time      1.4800: real time      1.4808
       DOS:  cpu time      0.0030: real time      0.0030
    --------------------------------------------
      LOOP:  cpu time      1.4829: real time      1.4838

 eigenvalue-minimisations  :  7968
 total energy-change (2. order) :-0.1418091E+00  (-0.1417852E+00)
 number of electron      10.0000000 magnetization 
 augmentation part       10.0000000 magnetization 

 Free energy of the ion-electron system (eV)
  ---------------------------------------------------
  alpha Z        PSCENC =         3.71007814
  Ewald energy   TEWEN  =       534.42243236
  -Hartree energ DENC   =      -838.78022028
  -exchange      EXHF   =         0.00000000
  -V(xc)+E(xc)   XCENC  =        -7.05571711
  PAW double counting   =       350.86819597     -320.30649724
  entropy T*S    EENTRO =        -0.00000000
  eigenvalues    EBANDS =       -85.66039678
  atomic energy  EATOM  =       352.07568098
  Solvation  Ediel_sol  =         0.00000000
  ---------------------------------------------------
  free energy    TOTEN  =       -10.72644396 eV

  energy without entropy =      -10.72644396  energy(sigma->0) =      -10.72644396


--------------------------------------------------------------------------------------------------------




--------------------------------------- Iteration      1(   5)  ---------------------------------------


     EDDAV:  cpu time      1.2457: real time      1.2464
       DOS:  cpu time      0.0026: real time      0.0026
    --------------------------------------------
      LOOP:  cpu time      1.2483: real time      1.2490

 eigenvalue-minimisations  :  6792
 total energy-change (2. order) :-0.1761590E-02  (-0.1761559E-02)
 number of electron      10.0000000 magnetization 
 augmentation part       10.0000000 magnetization 

 Free energy of the ion-electron system (eV)
  ---------------------------------------------------
  alpha Z        PSCENC =         3.71007814
  Ewald energy   TEWEN  =       534.42243236
  -Hartree energ DENC   =      -838.78022028
  -exchange      EXHF   =         0.00000000
  -V(xc)+E(xc)   XCENC  =        -7.05571711
  PAW double counting   =       350.86819597     -320.30649724
  entropy T*S    EENTRO =        -0.00000000
  eigenvalues    EBANDS =       -85.66215837
  atomic energy  EATOM  =       352.07568098
  Solvation  Ediel_sol  =         0.00000000
  ---------------------------------------------------
  free energy    TOTEN  =       -10.72820555 eV

  energy without entropy =      -10.72820555  energy(sigma->0) =      -10.72820555


--------------------------------------------------------------------------------------------------------




--------------------------------------- Iteration      1(   6)  ---------------------------------------


     EDDAV:  cpu time      1.1451: real time      1.1458
       DOS:  cpu time      0.0018: real time      0.0018
    --------------------------------------------
      LOOP:  cpu time      1.1469: real time      1.1475

 eigenvalue-minimisations  :  7528
 total energy-change (2. order) :-0.6426710E-04  (-0.6426705E-04)
 number of electron      10.0000000 magnetization 
 augmentation part       10.0000000 magnetization 

 Free energy of the ion-electron system (eV)
  ---------------------------------------------------
  alpha Z        PSCENC =         3.71007814
  Ewald energy   TEWEN  =       534.42243236
  -Hartree energ DENC   =      -838.78022028
  -exchange      EXHF   =         0.00000000
  -V(xc)+E(xc)   XCENC  =        -7.05571711
  PAW double counting   =       350.86819597     -320.30649724
  entropy T*S    EENTRO =        -0.00000000
  eigenvalues    EBANDS =       -85.66222264
  atomic energy  EATOM  =       352.07568098
  Solvation  Ediel_sol  =         0.00000000
  ---------------------------------------------------
  free energy    TOTEN  =       -10.72826981 eV

  energy without entropy =      -10.72826981  energy(sigma->0) =      -10.72826981


--------------------------------------------------------------------------------------------------------




--------------------------------------- Iteration      1(   7)  ---------------------------------------


     EDDAV:  cpu time      1.0240: real time      1.0248
       DOS:  cpu time      0.0026: real time      0.0026
    --------------------------------------------
      LOOP:  cpu time      1.0267: real time      1.0274

 eigenvalue-minimisations  :  7264
 total energy-change (2. order) :-0.1284294E-05  (-0.1284077E-05)
 number of electron      10.0000000 magnetization 
 augmentation part       10.0000000 magnetization 

 Free energy of the ion-electron system (eV)
  ---------------------------------------------------
  alpha Z        PSCENC =         3.71007814
  Ewald energy   TEWEN  =       534.42243236
  -Hartree energ DENC   =      -838.78022028
  -exchange      EXHF   =         0.00000000
  -V(xc)+E(xc)   XCENC  =        -7.05571711
  PAW double counting   =       350.86819597     -320.30649724
  entropy T*S    EENTRO =        -0.00000000
  eigenvalues    EBANDS =       -85.66222393
  atomic energy  EATOM  =       352.07568098
  Solvation  Ediel_sol  =         0.00000000
  ---------------------------------------------------
  free energy    TOTEN  =       -10.72827110 eV

  energy without entropy =      -10.72827110  energy(sigma->0) =      -10.72827110


--------------------------------------------------------------------------------------------------------




--------------------------------------- Iteration      1(   8)  ---------------------------------------


     EDDAV:  cpu time      1.1261: real time      1.1269
       DOS:  cpu time      0.0029: real time      0.0029
    --------------------------------------------
      LOOP:  cpu time      1.1290: real time      1.1298

 eigenvalue-minimisations  :  5656
 total energy-change (2. order) :-0.3479551E-07  (-0.3479949E-07)
 number of electron      10.0000000 magnetization 
 augmentation part       10.0000000 magnetization 

 Free energy of the ion-electron system (eV)
  ---------------------------------------------------
  alpha Z        PSCENC =         3.71007814
  Ewald energy   TEWEN  =       534.42243236
  -Hartree energ DENC   =      -838.78022028
  -exchange      EXHF   =         0.00000000
  -V(xc)+E(xc)   XCENC  =        -7.05571711
  PAW double counting   =       350.86819597     -320.30649724
  entropy T*S    EENTRO =        -0.00000000
  eigenvalues    EBANDS =       -85.66222396
  atomic energy  EATOM  =       352.07568098
  Solvation  Ediel_sol  =         0.00000000
  ---------------------------------------------------
  free energy    TOTEN  =       -10.72827113 eV

  energy without entropy =      -10.72827113  energy(sigma->0) =      -10.72827113


--------------------------------------------------------------------------------------------------------




--------------------------------------- Iteration      1(   9)  ---------------------------------------


     EDDAV:  cpu time      1.1603: real time      1.1612
       DOS:  cpu time      0.0029: real time      0.0029
    --------------------------------------------
      LOOP:  cpu time      1.1632: real time      1.1641

 eigenvalue-minimisations  :  5592
 total energy-change (2. order) :-0.3715058E-08  (-0.3722296E-08)
 number of electron      10.0000000 magnetization 
 augmentation part       10.0000000 magnetization 

 Free energy of the ion-electron system (eV)
  ---------------------------------------------------
  alpha Z        PSCENC =         3.71007814
  Ewald energy   TEWEN  =       534.42243236
  -Hartree energ DENC   =      -838.78022028
  -exchange      EXHF   =         0.00000000
  -V(xc)+E(xc)   XCENC  =        -7.05571711
  PAW double counting   =       350.86819597     -320.30649724
  entropy T*S    EENTRO =        -0.00000000
  eigenvalues    EBANDS =       -85.66222396
  atomic energy  EATOM  =       352.07568098
  Solvation  Ediel_sol  =         0.00000000
  ---------------------------------------------------
  free energy    TOTEN  =       -10.72827114 eV

  energy without entropy =      -10.72827114  energy(sigma->0) =      -10.72827114


--------------------------------------------------------------------------------------------------------




--------------------------------------- Iteration      1(  10)  ---------------------------------------


     EDDAV:  cpu time      1.0841: real time      1.0848
       DOS:  cpu time      0.0029: real time      0.0029
    --------------------------------------------
      LOOP:  cpu time      1.0870: real time      1.0877

 eigenvalue-minimisations  :  4928
 total energy-change (2. order) :-0.1619298E-08  (-0.1632275E-08)
 number of electron      10.0000000 magnetization 
 augmentation part       10.0000000 magnetization 

 Free energy of the ion-electron system (eV)
  ---------------------------------------------------
  alpha Z        PSCENC =         3.71007814
  Ewald energy   TEWEN  =       534.42243236
  -Hartree energ DENC   =      -838.78022028
  -exchange      EXHF   =         0.00000000
  -V(xc)+E(xc)   XCENC  =        -7.05571711
  PAW double counting   =       350.86819597     -320.30649724
  entropy T*S    EENTRO =        -0.00000000
  eigenvalues    EBANDS =       -85.66222397
  atomic energy  EATOM  =       352.07568098
  Solvation  Ediel_sol  =         0.00000000
  ---------------------------------------------------
  free energy    TOTEN  =       -10.72827114 eV

  energy without entropy =      -10.72827114  energy(sigma->0) =      -10.72827114


--------------------------------------------------------------------------------------------------------




--------------------------------------- Iteration      1(  11)  ---------------------------------------


     EDDAV:  cpu time      1.0219: real time      1.0227
       DOS:  cpu time      0.0029: real time      0.0029
    --------------------------------------------
      LOOP:  cpu time      1.0248: real time      1.0256

 eigenvalue-minimisations  :  4496
 total energy-change (2. order) :-0.8590746E-09  (-0.8536819E-09)
 number of electron      10.0000000 magnetization 
 augmentation part       10.0000000 magnetization 

 Free energy of the ion-electron system (eV)
  ---------------------------------------------------
  alpha Z        PSCENC =         3.71007814
  Ewald energy   TEWEN  =       534.42243236
  -Hartree energ DENC   =      -838.78022028
  -exchange      EXHF   =         0.00000000
  -V(xc)+E(xc)   XCENC  =        -7.05571711
  PAW double counting   =       350.86819597     -320.30649724
  entropy T*S    EENTRO =        -0.00000000
  eigenvalues    EBANDS =       -85.66222397
  atomic energy  EATOM  =       352.07568098
  Solvation  Ediel_sol  =         0.00000000
  ---------------------------------------------------
  free energy    TOTEN  =       -10.72827114 eV

  energy without entropy =      -10.72827114  energy(sigma->0) =      -10.72827114


--------------------------------------------------------------------------------------------------------




--------------------------------------- Iteration      1(  12)  ---------------------------------------


     EDDAV:  cpu time      0.9640: real time      0.9647
       DOS:  cpu time      0.0029: real time      0.0029
    --------------------------------------------
      LOOP:  cpu time      0.9669: real time      0.9676

 eigenvalue-minimisations  :  4136
 total energy-change (2. order) :-0.4294520E-09  (-0.4581975E-09)
 number of electron      10.0000000 magnetization 
 augmentation part       10.0000000 magnetization 

 Free energy of the ion-electron system (eV)
  ---------------------------------------------------
  alpha Z        PSCENC =         3.71007814
  Ewald energy   TEWEN  =       534.42243236
  -Hartree energ DENC   =      -838.78022028
  -exchange      EXHF   =         0.00000000
  -V(xc)+E(xc)   XCENC  =        -7.05571711
  PAW double counting   =       350.86819597     -320.30649724
  entropy T*S    EENTRO =        -0.00000000
  eigenvalues    EBANDS =       -85.66222397
  atomic energy  EATOM  =       352.07568098
  Solvation  Ediel_sol  =         0.00000000
  ---------------------------------------------------
  free energy    TOTEN  =       -10.72827114 eV

  energy without entropy =      -10.72827114  energy(sigma->0) =      -10.72827114


--------------------------------------------------------------------------------------------------------




--------------------------------------- Iteration      1(  13)  ---------------------------------------


     EDDAV:  cpu time      0.9369: real time      0.9376
       DOS:  cpu time      0.0029: real time      0.0029
    --------------------------------------------
      LOOP:  cpu time      0.9398: real time      0.9406

 eigenvalue-minimisations  :  3960
 total energy-change (2. order) :-0.2523279E-09  (-0.2453877E-09)
 number of electron      10.0000000 magnetization 
 augmentation part       10.0000000 magnetization 

 Free energy of the ion-electron system (eV)
  ---------------------------------------------------
  alpha Z        PSCENC =         3.71007814
  Ewald energy   TEWEN  =       534.42243236
  -Hartree energ DENC   =      -838.78022028
  -exchange      EXHF   =         0.00000000
  -V(xc)+E(xc)   XCENC  =        -7.05571711
  PAW double counting   =       350.86819597     -320.30649724
  entropy T*S    EENTRO =        -0.00000000
  eigenvalues    EBANDS =       -85.66222397
  atomic energy  EATOM  =       352.07568098
  Solvation  Ediel_sol  =         0.00000000
  ---------------------------------------------------
  free energy    TOTEN  =       -10.72827114 eV

  energy without entropy =      -10.72827114  energy(sigma->0) =      -10.72827114


--------------------------------------------------------------------------------------------------------




 average (electrostatic) potential at core
  the test charge radii are     1.0220
  (the norm of the test charge is              1.0000)
       1 -82.5745       2 -82.5745
 
 
 
 E-fermi :  -3.3227     XC(G=0):  -3.2868     alpha+bet : -2.8518

 Fermi energy:        -3.3227163415

 k-point     1 :       0.0000    0.0000    0.0000
  band No.  band energies     occupation 
      1     -17.4728      2.00000
      2      -9.7587      2.00000
      3      -3.7662      2.00000
      4      -3.4964      2.00000
      5      -3.4963      2.00000
      6       0.3739      0.00000
      7       0.5274      0.00000
      8       0.5274      0.00000
      9       2.0246      0.00000
     10       2.4622      0.00000
     11       3.8142      0.00000
     12       4.4395      0.00000
     13       6.4785      0.00000
     14       6.4785      0.00000
     15       6.9163      0.00000
     16       7.5660      0.00000

 k-point     2 :       0.0136   -0.0068    0.0000
  band No.  band energies     occupation 
      1     -17.4706      2.00000
      2      -9.7571      2.00000
      3      -3.7648      2.00000
      4      -3.5183      2.00000
      5      -3.5018      2.00000
      6       0.3914      0.00000
      7       0.5245      0.00000
      8       0.5350      0.00000
      9       2.0274      0.00000
     10       2.4645      0.00000
     11       3.8160      0.00000
     12       4.4420      0.00000
     13       6.4481      0.00000
     14       6.4738      0.00000
     15       6.9308      0.00000
     16       7.5651      0.00000

 k-point     3 :       0.0272   -0.0136    0.0000
  band No.  band energies     occupation 
      1     -17.4639      2.00000
      2      -9.7526      2.00000
      3      -3.7608      2.00000
      4      -3.5826      2.00000
      5      -3.5183      2.00000
      6       0.4337      0.00000
      7       0.5156      0.00000
      8       0.5658      0.00000
      9       2.0358      0.00000
     10       2.4715      0.00000
     11       3.8213      0.00000
     12       4.4496      0.00000
     13       6.3673      0.00000
     14       6.4597      0.00000
     15       6.9657      0.00000
     16       7.5622      0.00000

 k-point     4 :       0.0408   -0.0204    0.0000
  band No.  band energies     occupation 
      1     -17.4527      2.00000
      2      -9.7450      2.00000
      3      -3.7542      2.00000
      4      -3.6848      2.00000
      5      -3.5457      2.00000
      6       0.4731      0.00000
      7       0.5013      0.00000
      8       0.6428      0.00000
      9       2.0497      0.00000
     10       2.4831      0.00000
     11       3.8300      0.00000
     12       4.4621      0.00000
     13       6.2542      0.00000
     14       6.4363      0.00000
     15       7.0084      0.00000
     16       7.5569      0.00000

 k-point     5 :       0.0544   -0.0272    0.0000
  band No.  band energies     occupation 
      1     -17.4371      2.00000
      2      -9.7345      2.00000
      3      -3.8185      2.00000
      4      -3.7449      2.00000
      5      -3.5838      2.00000
      6       0.4825      0.00000
      7       0.4990      0.00000
      8       0.7701      0.00000
      9       2.0694      0.00000
     10       2.4992      0.00000
     11       3.8418      0.00000
     12       4.4796      0.00000
     13       6.1218      0.00000
     14       6.4037      0.00000
     15       7.0533      0.00000
     16       7.5486      0.00000

 k-point     6 :       0.0680   -0.0340    0.0000
  band No.  band energies     occupation 
      1     -17.4170      2.00000
      2      -9.7211      2.00000
      3      -3.9776      2.00000
      4      -3.7332      2.00000
      5      -3.6327      2.00000
      6       0.4599      0.00000
      7       0.5199      0.00000
      8       0.9315      0.00000
      9       2.0950      0.00000
     10       2.5198      0.00000
     11       3.8566      0.00000
     12       4.5022      0.00000
     13       5.9778      0.00000
     14       6.3622      0.00000
     15       7.0988      0.00000
     16       7.5365      0.00000

 k-point     7 :       0.0816   -0.0408    0.0000
  band No.  band energies     occupation 
      1     -17.3924      2.00000
      2      -9.7051      2.00000
      3      -4.1561      2.00000
      4      -3.7193      2.00000
      5      -3.6920      2.00000
      6       0.4342      0.00000
      7       0.5408      0.00000
      8       1.1144      0.00000
      9       2.1269      0.00000
     10       2.5448      0.00000
     11       3.8736      0.00000
     12       4.5297      0.00000
     13       5.8278      0.00000
     14       6.3126      0.00000
     15       7.1449      0.00000
     16       7.5200      0.00000

 k-point     8 :       0.0952   -0.0476    0.0000
  band No.  band energies     occupation 
      1     -17.3634      2.00000
      2      -9.6865      2.00000
      3      -4.3488      2.00000
      4      -3.7623      2.00000
      5      -3.7022      2.00000
      6       0.4068      0.00000
      7       0.5635      0.00000
      8       1.3101      0.00000
      9       2.1656      0.00000
     10       2.5740      0.00000
     11       3.8923      0.00000
     12       4.5622      0.00000
     13       5.6767      0.00000
     14       6.2568      0.00000
     15       7.1921      0.00000
     16       7.4991      0.00000

 k-point     9 :       0.1088   -0.0544    0.0000
  band No.  band energies     occupation 
      1     -17.3300      2.00000
      2      -9.6656      2.00000
      3      -4.5520      2.00000
      4      -3.8425      2.00000
      5      -3.6837      2.00000
      6       0.3780      0.00000
      7       0.5880      0.00000
      8       1.5103      0.00000
      9       2.2120      0.00000
     10       2.6073      0.00000
     11       3.9117      0.00000
     12       4.5997      0.00000
     13       5.5279      0.00000
     14       6.1974      0.00000
     15       7.2406      0.00000
     16       7.4737      0.00000

 k-point    10 :       0.1224   -0.0612    0.0000
  band No.  band energies     occupation 
      1     -17.2922      2.00000
      2      -9.6426      2.00000
      3      -4.7616      2.00000
      4      -3.9323      2.00000
      5      -3.6631      2.00000
      6       0.3490      0.00000
      7       0.6150      0.00000
      8       1.7073      0.00000
      9       2.2678      0.00000
     10       2.6445      0.00000
     11       3.9305      0.00000
     12       4.6422      0.00000
     13       5.3855      0.00000
     14       6.1385      0.00000
     15       7.2908      0.00000
     16       7.4448      0.00000

 k-point    11 :       0.1361   -0.0680    0.0000
  band No.  band energies     occupation 
      1     -17.2500      2.00000
      2      -9.6179      2.00000
      3      -4.9748      2.00000
      4      -4.0313      2.00000
      5      -3.6407      2.00000
      6       0.3207      0.00000
      7       0.6442      0.00000
      8       1.8921      0.00000
      9       2.3355      0.00000
     10       2.6852      0.00000
     11       3.9469      0.00000
     12       4.6895      0.00000
     13       5.2536      0.00000
     14       6.0852      0.00000
     15       7.3428      0.00000
     16       7.4133      0.00000

 k-point    12 :       0.1497   -0.0748    0.0000
  band No.  band energies     occupation 
      1     -17.2034      2.00000
      2      -9.5920      2.00000
      3      -5.1895      2.00000
      4      -4.1392      2.00000
      5      -3.6168      2.00000
      6       0.2935      0.00000
      7       0.6753      0.00000
      8       2.0552      0.00000
      9       2.4184      0.00000
     10       2.7292      0.00000
     11       3.9585      0.00000
     12       4.7418      0.00000
     13       5.1368      0.00000
     14       6.0440      0.00000
     15       7.3801      0.00000
     16       7.3967      0.00000

[...]
      7       0.9597      0.00000
      8       2.6060      0.00000
      9       3.1015      0.00000
     10       3.1368      0.00000
     11       3.9319      0.00000
     12       5.1916      0.00000
     13       5.5040      0.00000
     14       6.4913      0.00000
     15       7.7642      0.00000
     16       7.9651      0.00000

 k-point   130 :       0.1361    0.1361    0.0000
  band No.  band energies     occupation 
      1     -16.5910      2.00000
      2      -9.4492      2.00000
      3      -6.8652      2.00000
      4      -5.3881      2.00000
      5      -3.3972      2.00000
      6       0.1286      0.00000
      7       0.9518      0.00000
      8       2.6430      0.00000
      9       3.0435      0.00000
     10       3.0898      0.00000
     11       3.8867      0.00000
     12       5.1116      0.00000
     13       5.4131      0.00000
     14       6.5067      0.00000
     15       7.5417      0.00000
     16       7.9207      0.00000

 k-point   131 :       0.1293    0.1293    0.0000
  band No.  band energies     occupation 
      1     -16.6758      2.00000
      2      -9.4394      2.00000
      3      -6.7265      2.00000
      4      -5.2331      2.00000
      5      -3.4158      2.00000
      6       0.1390      0.00000
      7       0.9343      0.00000
      8       2.6651      0.00000
      9       2.9649      0.00000
     10       3.0717      0.00000
     11       3.8614      0.00000
     12       5.0409      0.00000
     13       5.3236      0.00000
     14       6.4844      0.00000
     15       7.3744      0.00000
     16       7.8687      0.00000

 k-point   132 :       0.1224    0.1224    0.0000
  band No.  band energies     occupation 
      1     -16.7565      2.00000
      2      -9.4407      2.00000
      3      -6.5703      2.00000
      4      -5.0805      2.00000
      5      -3.4373      2.00000
      6       0.1518      0.00000
      7       0.9098      0.00000
      8       2.6582      0.00000
      9       2.9081      0.00000
     10       3.0454      0.00000
     11       3.8562      0.00000
     12       4.9816      0.00000
     13       5.2368      0.00000
     14       6.4175      0.00000
     15       7.2750      0.00000
     16       7.8118      0.00000

 k-point   133 :       0.1156    0.1156    0.0000
  band No.  band energies     occupation 
      1     -16.8331      2.00000
      2      -9.4506      2.00000
      3      -6.3993      2.00000
      4      -4.9309      2.00000
      5      -3.4610      2.00000
      6       0.1666      0.00000
      7       0.8802      0.00000
      8       2.6167      0.00000
      9       2.8712      0.00000
     10       3.0107      0.00000
     11       3.8680      0.00000
     12       4.9363      0.00000
     13       5.1534      0.00000
     14       6.3178      0.00000
     15       7.2349      0.00000
     16       7.7521      0.00000

 k-point   134 :       0.1088    0.1088    0.0000
  band No.  band energies     occupation 
      1     -16.9055      2.00000
      2      -9.4672      2.00000
      3      -6.2162      2.00000
      4      -4.7853      2.00000
      5      -3.4863      2.00000
      6       0.1831      0.00000
      7       0.8475      0.00000
      8       2.5519      0.00000
      9       2.8359      0.00000
     10       2.9688      0.00000
     11       3.8908      0.00000
     12       4.9083      0.00000
     13       5.0738      0.00000
     14       6.2107      0.00000
     15       7.2331      0.00000
     16       7.6911      0.00000

 k-point   135 :       0.1020    0.1020    0.0000
  band No.  band energies     occupation 
      1     -16.9736      2.00000
      2      -9.4883      2.00000
      3      -6.0232      2.00000
      4      -4.6441      2.00000
      5      -3.5126      2.00000
      6       0.2014      0.00000
      7       0.8130      0.00000
      8       2.4758      0.00000
      9       2.7848      0.00000
     10       2.9224      0.00000
     11       3.9176      0.00000
     12       4.9017      0.00000
     13       4.9984      0.00000
     14       6.1191      0.00000
     15       7.2514      0.00000
     16       7.6299      0.00000

 k-point   136 :       0.0952    0.0952    0.0000
  band No.  band energies     occupation 
      1     -17.0376      2.00000
      2      -9.5125      2.00000
      3      -5.8222      2.00000
      4      -4.5082      2.00000
      5      -3.5392      2.00000
      6       0.2217      0.00000
      7       0.7777      0.00000
      8       2.3924      0.00000
      9       2.7113      0.00000
     10       2.8736      0.00000
     11       3.9415      0.00000
     12       4.9203      0.00000
     13       4.9273      0.00000
     14       6.0553      0.00000
     15       7.2794      0.00000
     16       7.5694      0.00000

 k-point   137 :       0.0884    0.0884    0.0000
  band No.  band energies     occupation 
      1     -17.0972      2.00000
      2      -9.5386      2.00000
      3      -5.6150      2.00000
      4      -4.3782      2.00000
      5      -3.5657      2.00000
      6       0.2438      0.00000
      7       0.7426      0.00000
      8       2.2995      0.00000
      9       2.6180      0.00000
     10       2.8242      0.00000
     11       3.9572      0.00000
     12       4.8608      0.00000
     13       4.9664      0.00000
     14       6.0230      0.00000
     15       7.3118      0.00000
     16       7.5102      0.00000

 k-point   138 :       0.0816    0.0816    0.0000
  band No.  band energies     occupation 
      1     -17.1525      2.00000
      2      -9.5653      2.00000
      3      -5.4035      2.00000
      4      -4.2550      2.00000
      5      -3.5918      2.00000
      6       0.2678      0.00000
      7       0.7083      0.00000
      8       2.1901      0.00000
      9       2.5155      0.00000
     10       2.7757      0.00000
     11       3.9627      0.00000
     12       4.7989      0.00000
     13       5.0396      0.00000
     14       6.0210      0.00000
     15       7.3457      0.00000
     16       7.4525      0.00000

 k-point   139 :       0.0748    0.0748    0.0000
  band No.  band energies     occupation 
      1     -17.2034      2.00000
      2      -9.5920      2.00000
      3      -5.1896      2.00000
      4      -4.1392      2.00000
      5      -3.6168      2.00000
      6       0.2935      0.00000
      7       0.6753      0.00000
      8       2.0552      0.00000
      9       2.4184      0.00000
     10       2.7292      0.00000
     11       3.9585      0.00000
     12       4.7418      0.00000
     13       5.1368      0.00000
     14       6.0440      0.00000
     15       7.3801      0.00000
     16       7.3967      0.00000

 k-point   140 :       0.0680    0.0680    0.0000
  band No.  band energies     occupation 
      1     -17.2500      2.00000
      2      -9.6179      2.00000
      3      -4.9748      2.00000
      4      -4.0313      2.00000
      5      -3.6407      2.00000
      6       0.3207      0.00000
      7       0.6442      0.00000
      8       1.8920      0.00000
      9       2.3355      0.00000
     10       2.6852      0.00000
     11       3.9469      0.00000
     12       4.6895      0.00000
     13       5.2536      0.00000
     14       6.0852      0.00000
     15       7.3428      0.00000
     16       7.4133      0.00000

 k-point   141 :       0.0612    0.0612    0.0000
  band No.  band energies     occupation 
      1     -17.2922      2.00000
      2      -9.6426      2.00000
      3      -4.7616      2.00000
      4      -3.9323      2.00000
      5      -3.6631      2.00000
      6       0.3490      0.00000
      7       0.6150      0.00000
      8       1.7073      0.00000
      9       2.2678      0.00000
     10       2.6445      0.00000
     11       3.9305      0.00000
     12       4.6422      0.00000
     13       5.3855      0.00000
     14       6.1386      0.00000
     15       7.2908      0.00000
     16       7.4448      0.00000

 k-point   142 :       0.0544    0.0544    0.0000
  band No.  band energies     occupation 
      1     -17.3300      2.00000
      2      -9.6656      2.00000
      3      -4.5520      2.00000
      4      -3.8425      2.00000
      5      -3.6837      2.00000
      6       0.3780      0.00000
      7       0.5880      0.00000
      8       1.5103      0.00000
      9       2.2120      0.00000
     10       2.6073      0.00000
     11       3.9117      0.00000
     12       4.5997      0.00000
     13       5.5279      0.00000
     14       6.1974      0.00000
     15       7.2406      0.00000
     16       7.4737      0.00000

 k-point   143 :       0.0476    0.0476    0.0000
  band No.  band energies     occupation 
      1     -17.3634      2.00000
      2      -9.6865      2.00000
      3      -4.3488      2.00000
      4      -3.7623      2.00000
      5      -3.7022      2.00000
      6       0.4069      0.00000
      7       0.5635      0.00000
      8       1.3101      0.00000
      9       2.1656      0.00000
     10       2.5740      0.00000
     11       3.8923      0.00000
     12       4.5622      0.00000
     13       5.6767      0.00000
     14       6.2568      0.00000
     15       7.1921      0.00000
     16       7.4991      0.00000

 k-point   144 :       0.0408    0.0408    0.0000
  band No.  band energies     occupation 
      1     -17.3924      2.00000
      2      -9.7051      2.00000
      3      -4.1561      2.00000
      4      -3.7192      2.00000
      5      -3.6920      2.00000
      6       0.4342      0.00000
      7       0.5408      0.00000
      8       1.1144      0.00000
      9       2.1269      0.00000
     10       2.5448      0.00000
     11       3.8736      0.00000
     12       4.5297      0.00000
     13       5.8278      0.00000
     14       6.3126      0.00000
     15       7.1449      0.00000
     16       7.5200      0.00000

 k-point   145 :       0.0340    0.0340    0.0000
  band No.  band energies     occupation 
      1     -17.4170      2.00000
      2      -9.7211      2.00000
      3      -3.9776      2.00000
      4      -3.7332      2.00000
      5      -3.6327      2.00000
      6       0.4599      0.00000
      7       0.5199      0.00000
      8       0.9315      0.00000
      9       2.0950      0.00000
     10       2.5198      0.00000
     11       3.8566      0.00000
     12       4.5022      0.00000
     13       5.9778      0.00000
     14       6.3622      0.00000
     15       7.0988      0.00000
     16       7.5365      0.00000

 k-point   146 :       0.0272    0.0272    0.0000
  band No.  band energies     occupation 
      1     -17.4371      2.00000
      2      -9.7345      2.00000
      3      -3.8186      2.00000
      4      -3.7449      2.00000
      5      -3.5838      2.00000
      6       0.4825      0.00000
      7       0.4990      0.00000
      8       0.7701      0.00000
      9       2.0694      0.00000
     10       2.4992      0.00000
     11       3.8418      0.00000
     12       4.4796      0.00000
     13       6.1218      0.00000
     14       6.4037      0.00000
     15       7.0533      0.00000
     16       7.5486      0.00000

 k-point   147 :       0.0204    0.0204    0.0000
  band No.  band energies     occupation 
      1     -17.4527      2.00000
      2      -9.7450      2.00000
      3      -3.7542      2.00000
      4      -3.6848      2.00000
      5      -3.5457      2.00000
      6       0.4732      0.00000
      7       0.5013      0.00000
      8       0.6427      0.00000
      9       2.0497      0.00000
     10       2.4831      0.00000
     11       3.8300      0.00000
     12       4.4621      0.00000
     13       6.2542      0.00000
     14       6.4363      0.00000
     15       7.0084      0.00000
     16       7.5569      0.00000

 k-point   148 :       0.0136    0.0136    0.0000
  band No.  band energies     occupation 
      1     -17.4639      2.00000
      2      -9.7526      2.00000
      3      -3.7608      2.00000
      4      -3.5826      2.00000
      5      -3.5183      2.00000
      6       0.4337      0.00000
      7       0.5156      0.00000
      8       0.5658      0.00000
      9       2.0358      0.00000
     10       2.4715      0.00000
     11       3.8213      0.00000
     12       4.4496      0.00000
     13       6.3673      0.00000
     14       6.4597      0.00000
     15       6.9657      0.00000
     16       7.5622      0.00000

 k-point   149 :       0.0068    0.0068    0.0000
  band No.  band energies     occupation 
      1     -17.4706      2.00000
      2      -9.7571      2.00000
      3      -3.7648      2.00000
      4      -3.5183      2.00000
      5      -3.5018      2.00000
      6       0.3914      0.00000
      7       0.5245      0.00000
      8       0.5350      0.00000
      9       2.0274      0.00000
     10       2.4645      0.00000
     11       3.8160      0.00000
     12       4.4420      0.00000
     13       6.4481      0.00000
     14       6.4738      0.00000
     15       6.9308      0.00000
     16       7.5651      0.00000

 k-point   150 :       0.0000    0.0000    0.0000
  band No.  band energies     occupation 
      1     -17.4728      2.00000
      2      -9.7587      2.00000
      3      -3.7662      2.00000
      4      -3.4964      2.00000
      5      -3.4963      2.00000
      6       0.3739      0.00000
      7       0.5274      0.00000
      8       0.5274      0.00000
      9       2.0246      0.00000
     10       2.4622      0.00000
     11       3.8142      0.00000
     12       4.4395      0.00000
     13       6.4785      0.00000
     14       6.4785      0.00000
     15       6.9163      0.00000
     16       7.5660      0.00000


--------------------------------------------------------------------------------------------------------


 soft charge-density along one line, spin component           1
         0         1         2         3         4         5         6         7         8         9
 total charge-density along one line
 
 pseudopotential strength for first ion, spin component:           1
 28.239 -61.598  -0.000   0.057   0.000   0.000  -0.081  -0.000
-61.598 119.443   0.000  -0.121  -0.000  -0.000   0.253   0.000
 -0.000   0.000   5.965  -0.000  -0.000  -8.523   0.000   0.000
  0.057  -0.121  -0.000   5.957   0.000   0.000  -8.515  -0.000
  0.000  -0.000  -0.000   0.000   5.965   0.000  -0.000  -8.523
  0.000  -0.000  -8.523   0.000   0.000  26.382  -0.000  -0.000
 -0.081   0.253   0.000  -8.515  -0.000  -0.000  26.377   0.000
 -0.000   0.000   0.000  -0.000  -8.523  -0.000   0.000  26.382
 -0.000   0.000   0.000   0.000   0.001   0.000   0.000   0.001
 -0.000   0.000   0.018  -0.000   0.000  -0.002  -0.000   0.000
 -0.007   0.012   0.000   0.020  -0.000   0.000  -0.004  -0.000
  0.000  -0.000   0.000   0.000   0.018   0.000   0.000  -0.002
  0.000  -0.000   0.001  -0.000   0.000   0.001  -0.000   0.000
 -0.000   0.000   0.000   0.000   0.003  -0.000  -0.000  -0.004
 -0.000   0.000   0.015  -0.000   0.000  -0.072   0.000  -0.000
 -0.008   0.006   0.000   0.013  -0.000  -0.000  -0.077   0.000
  0.000  -0.000   0.000   0.000   0.015  -0.000  -0.000  -0.072
  0.000  -0.000   0.003  -0.000   0.000  -0.004   0.000  -0.000
 total augmentation occupancy for first ion, spin component:           1
  2.000   0.000   0.000   0.000   0.000   0.000   0.000   0.000   0.000   0.000   0.000   0.000   0.000   0.000   0.000   0.000
  0.000   0.000   0.000   0.000   0.000   0.000   0.000   0.000   0.000   0.000   0.000   0.000   0.000   0.000   0.000   0.000
  0.000   0.000   1.000   0.000   0.000   0.000   0.000   0.000   0.000   0.000   0.000   0.000   0.000   0.000   0.000   0.000
  0.000   0.000   0.000   1.000   0.000   0.000   0.000   0.000   0.000   0.000   0.000   0.000   0.000   0.000   0.000   0.000
  0.000   0.000   0.000   0.000   1.000   0.000   0.000   0.000   0.000   0.000   0.000   0.000   0.000   0.000   0.000   0.000
  0.000   0.000   0.000   0.000   0.000   0.000   0.000   0.000   0.000   0.000   0.000   0.000   0.000   0.000   0.000   0.000
  0.000   0.000   0.000   0.000   0.000   0.000   0.000   0.000   0.000   0.000   0.000   0.000   0.000   0.000   0.000   0.000
  0.000   0.000   0.000   0.000   0.000   0.000   0.000   0.000   0.000   0.000   0.000   0.000   0.000   0.000   0.000   0.000
  0.000   0.000   0.000   0.000   0.000   0.000   0.000   0.000   0.000   0.000   0.000   0.000   0.000   0.000   0.000   0.000
  0.000   0.000   0.000   0.000   0.000   0.000   0.000   0.000   0.000   0.000   0.000   0.000   0.000   0.000   0.000   0.000
  0.000   0.000   0.000   0.000   0.000   0.000   0.000   0.000   0.000   0.000   0.000   0.000   0.000   0.000   0.000   0.000
  0.000   0.000   0.000   0.000   0.000   0.000   0.000   0.000   0.000   0.000   0.000   0.000   0.000   0.000   0.000   0.000
  0.000   0.000   0.000   0.000   0.000   0.000   0.000   0.000   0.000   0.000   0.000   0.000   0.000   0.000   0.000   0.000
  0.000   0.000   0.000   0.000   0.000   0.000   0.000   0.000   0.000   0.000   0.000   0.000   0.000   0.000   0.000   0.000
  0.000   0.000   0.000   0.000   0.000   0.000   0.000   0.000   0.000   0.000   0.000   0.000   0.000   0.000   0.000   0.000
  0.000   0.000   0.000   0.000   0.000   0.000   0.000   0.000   0.000   0.000   0.000   0.000   0.000   0.000   0.000   0.000
  0.000   0.000   0.000   0.000   0.000   0.000   0.000   0.000   0.000   0.000   0.000   0.000   0.000   0.000   0.000   0.000
  0.000   0.000   0.000   0.000   0.000   0.000   0.000   0.000   0.000   0.000   0.000   0.000   0.000   0.000   0.000   0.000


------------------------ aborting loop because EDIFF is reached ----------------------------------------





 total charge

# of ion       s       p       d       tot
------------------------------------------
    1        1.215   1.527   0.099   2.841
    2        1.215   1.527   0.099   2.841
--------------------------------------------------
tot          2.430   3.053   0.198   5.681
 


--------------------------------------------------------------------------------------------------------



  FREE ENERGIE OF THE ION-ELECTRON SYSTEM (eV)
  ---------------------------------------------------
  free  energy   TOTEN  =       -10.72827114 eV

  energy  without entropy=      -10.72827114  energy(sigma->0) =      -10.72827114
 


--------------------------------------------------------------------------------------------------------




--------------------------------------------------------------------------------------------------------


     LOOP+:  cpu time     15.2165: real time     15.5027
    4ORBIT:  cpu time      0.0000: real time      0.0000



 total charge

# of ion       s       p       d       tot
------------------------------------------
    1        1.215   1.527   0.099   2.841
    2        1.215   1.527   0.099   2.841
--------------------------------------------------
tot          2.430   3.053   0.198   5.681
 

 total amount of memory used by VASP MPI-rank0    47446. kBytes
=======================================================================

   base      :      30000. kBytes
   nonl-proj :       9258. kBytes
   fftplans  :       2608. kBytes
   grid      :       1265. kBytes
   one-center:         15. kBytes
   wavefun   :       4300. kBytes
 
  
  
 General timing and accounting informations for this job:
 ========================================================
  
                  Total CPU time used (sec):       16.543
                            User time (sec):       16.359
                          System time (sec):        0.184
                         Elapsed time (sec):       18.095
  
                   Maximum memory used (kb):      152504.
                   Average memory used (kb):          N/A
  
                          Minor page faults:        14536
                          Major page faults:         3468
                 Voluntary context switches:          253
