PROCAR new format
# of k-points:  150         # of bands:   16         # of ions:    2

 k-point     1 :    0.00000000 0.00000000 0.00000000     weight = 0.00666667

band     1 # energy  -17.47279436 # occ.  2.00000000
 
ion      s      p      d    tot
    1  0.261  0.016  0.000  0.277
    2  0.261  0.016  0.000  0.277
tot    0.522  0.032  0.001  0.554
 
band     2 # energy   -9.75867678 # occ.  2.00000000
 
ion      s      p      d    tot
    1  0.212  0.052  0.003  0.268
    2  0.212  0.052  0.003  0.268
tot    0.424  0.105  0.007  0.535
 
band     3 # energy   -3.76619610 # occ.  2.00000000
 
ion      s      p      d    tot
    1  0.005  0.206  0.004  0.214
    2  0.005  0.206  0.004  0.214
tot    0.010  0.412  0.007  0.429
 
band     4 # energy   -3.49636154 # occ.  2.00000000
 
ion      s      p      d    tot
    1  0.000  0.310  0.034  0.344
    2  0.000  0.310  0.034  0.344
tot    0.000  0.620  0.068  0.688
 
band     5 # energy   -3.49634304 # occ.  2.00000000
 
ion      s      p      d    tot
    1  0.000  0.310  0.034  0.344
    2  0.000  0.310  0.034  0.344
tot    0.000  0.620  0.068  0.688
 
band     6 # energy    0.37394681 # occ.  0.00000000
 
ion      s      p      d    tot
    1  0.219  0.102  0.038  0.359
    2  0.219  0.102  0.038  0.359
tot    0.438  0.205  0.075  0.718
 
band     7 # energy    0.52743463 # occ.  0.00000000
 
ion      s      p      d    tot
    1  0.000  0.260  0.047  0.307
    2  0.000  0.260  0.047  0.307
tot    0.000  0.520  0.094  0.615
 
band     8 # energy    0.52744759 # occ.  0.00000000
 
ion      s      p      d    tot
    1  0.000  0.260  0.047  0.307
    2  0.000  0.260  0.047  0.307
tot    0.000  0.520  0.094  0.615
 
band     9 # energy    2.02464405 # occ.  0.00000000
 
ion      s      p      d    tot
    1  0.002  0.004  0.023  0.030
    2  0.002  0.004  0.023  0.030
tot    0.005  0.008  0.046  0.059
 
band    10 # energy    2.46221986 # occ.  0.00000000
 
ion      s      p      d    tot
    1  0.003  0.017  0.000  0.020
    2  0.003  0.017  0.000  0.020
tot    0.006  0.034  0.000  0.040
 
band    11 # energy    3.81418742 # occ.  0.00000000
 
ion      s      p      d    tot
    1  0.006  0.026  0.000  0.032
    2  0.006  0.026  0.000  0.032
tot    0.012  0.052  0.000  0.063
 
band    12 # energy    4.43951219 # occ.  0.00000000
 
ion      s      p      d    tot
    1  0.008  0.000  0.022  0.030
    2  0.008  0.000  0.022  0.030
tot    0.016  0.000  0.044  0.060
 
band    13 # energy    6.47845851 # occ.  0.00000000
 
ion      s      p      d    tot
    1  0.000  0.062  0.189  0.251
    2  0.000  0.062  0.189  0.251
tot    0.000  0.123  0.378  0.501
 
band    14 # energy    6.47846740 # occ.  0.00000000
 
ion      s      p      d    tot
    1  0.000  0.062  0.189  0.251
    2  0.000  0.062  0.189  0.251
tot    0.000  0.123  0.378  0.501
 
band    15 # energy    6.91632256 # occ.  0.00000000
 
ion      s      p      d    tot
    1  0.024  0.040  0.000  0.064
    2  0.024  0.040  0.000  0.064
tot    0.048  0.080  0.000  0.128
 
band    16 # energy    7.56596510 # occ.  0.00000000
 
ion      s      p      d    tot
    1  0.010  0.028  0.055  0.093
    2  0.010  0.028  0.055  0.093
tot    0.019  0.056  0.110  0.185
 

 k-point     2 :    0.01360544-0.00680272 0.00000000     weight = 0.00666667

band     1 # energy  -17.47055388 # occ.  2.00000000
 
ion      s      p      d    tot
    1  0.261  0.016  0.000  0.277
    2  0.261  0.016  0.000  0.277
tot    0.522  0.032  0.001  0.554
 
band     2 # energy   -9.75712688 # occ.  2.00000000
 
ion      s      p      d    tot
    1  0.212  0.052  0.003  0.268
    2  0.212  0.052  0.003  0.268
tot    0.424  0.105  0.007  0.536
 
band     3 # energy   -3.76482749 # occ.  2.00000000
 
ion      s      p      d    tot
    1  0.005  0.206  0.004  0.214
    2  0.005  0.206  0.004  0.214
tot    0.010  0.412  0.007  0.429
 
band     4 # energy   -3.51826886 # occ.  2.00000000
 
ion      s      p      d    tot
    1  0.001  0.309  0.034  0.344
    2  0.001  0.309  0.034  0.344
tot    0.002  0.617  0.068  0.687
 
band     5 # energy   -3.50181869 # occ.  2.00000000
 
ion      s      p      d    tot
    1  0.000  0.310  0.034  0.344
    2  0.000  0.310  0.034  0.344
tot    0.000  0.620  0.068  0.688
 
band     6 # energy    0.39137527 # occ.  0.00000000
 
ion      s      p      d    tot
    1  0.217  0.104  0.038  0.359
    2  0.217  0.104  0.038  0.359
tot    0.434  0.209  0.075  0.718
 
band     7 # energy    0.52449116 # occ.  0.00000000
 
ion      s      p      d    tot
    1  0.000  0.260  0.047  0.307
    2  0.000  0.260  0.047  0.307
tot    0.001  0.520  0.094  0.615
 
band     8 # energy    0.53502388 # occ.  0.00000000
 
ion      s      p      d    tot
    1  0.001  0.260  0.047  0.308
    2  0.001  0.260  0.047  0.308
tot    0.002  0.520  0.094  0.616
 
band     9 # energy    2.02742706 # occ.  0.00000000
 
ion      s      p      d    tot
    1  0.002  0.004  0.023  0.030
    2  0.002  0.004  0.023  0.030
tot    0.004  0.009  0.046  0.059
 
band    10 # energy    2.46454506 # occ.  0.00000000
 
ion      s      p      d    tot
    1  0.003  0.017  0.000  0.020
    2  0.003  0.017  0.000  0.020
tot    0.006  0.034  0.000  0.040
 
band    11 # energy    3.81597156 # occ.  0.00000000
 
ion      s      p      d    tot
    1  0.006  0.026  0.000  0.032
    2  0.006  0.026  0.000  0.032
tot    0.012  0.052  0.000  0.063
 
band    12 # energy    4.44203308 # occ.  0.00000000
 
ion      s      p      d    tot
    1  0.008  0.000  0.022  0.030
    2  0.008  0.000  0.022  0.030
tot    0.016  0.000  0.044  0.060
 
band    13 # energy    6.44808780 # occ.  0.00000000
 
ion      s      p      d    tot
    1  0.000  0.061  0.183  0.244
    2  0.000  0.061  0.183  0.244
tot    0.001  0.121  0.367  0.489
 
band    14 # energy    6.47382179 # occ.  0.00000000
 
ion      s      p      d    tot
    1  0.000  0.061  0.189  0.250
    2  0.000  0.061  0.189  0.250
tot    0.000  0.122  0.378  0.500
 
band    15 # energy    6.93080157 # occ.  0.00000000
 
ion      s      p      d    tot
    1  0.024  0.041  0.004  0.069
    2  0.024  0.041  0.004  0.069
tot    0.048  0.081  0.009  0.138
 
band    16 # energy    7.56509160 # occ.  0.00000000
 
ion      s      p      d    tot
    1  0.010  0.028  0.056  0.094
    2  0.010  0.028  0.056  0.094
tot    0.019  0.057  0.112  0.187
 

 k-point     3 :    0.02721088-0.01360544 0.00000000     weight = 0.00666667

band     1 # energy  -17.46385366 # occ.  2.00000000
 
ion      s      p      d    tot
    1  0.261  0.016  0.000  0.277
    2  0.261  0.016  0.000  0.277
tot    0.522  0.032  0.001  0.554
 
band     2 # energy   -9.75256136 # occ.  2.00000000
 
ion      s      p      d    tot
    1  0.212  0.052  0.003  0.268
    2  0.212  0.052  0.003  0.268
tot    0.425  0.105  0.007  0.536
 
band     3 # energy   -3.76081568 # occ.  2.00000000
 
ion      s      p      d    tot
    1  0.005  0.206  0.004  0.215
    2  0.005  0.206  0.004  0.215
tot    0.010  0.412  0.007  0.429
 
band     4 # energy   -3.58261429 # occ.  2.00000000
 
ion      s      p      d    tot
    1  0.004  0.305  0.034  0.342
    2  0.004  0.305  0.034  0.342
tot    0.008  0.609  0.068  0.685
 
band     5 # energy   -3.51831203 # occ.  2.00000000
 
ion      s      p      d    tot
    1  0.000  0.309  0.034  0.343
    2  0.000  0.309  0.034  0.343
tot    0.000  0.619  0.068  0.687
 
band     6 # energy    0.43366738 # occ.  0.00000000
 
ion      s      p      d    tot
    1  0.197  0.119  0.038  0.355
    2  0.197  0.119  0.038  0.355
tot    0.395  0.238  0.076  0.709
 
band     7 # energy    0.51560906 # occ.  0.00000000
 
ion      s      p      d    tot
    1  0.001  0.259  0.047  0.307
    2  0.001  0.259  0.047  0.307
tot    0.002  0.518  0.094  0.614
 
band     8 # energy    0.56580906 # occ.  0.00000000
 
ion      s      p      d    tot
    1  0.017  0.250  0.046  0.313
    2  0.017  0.250  0.046  0.313
tot    0.034  0.500  0.092  0.626
 
band     9 # energy    2.03575206 # occ.  0.00000000
 
ion      s      p      d    tot
    1  0.002  0.004  0.023  0.030
    2  0.002  0.004  0.023  0.030
tot    0.004  0.009  0.047  0.060
 
band    10 # energy    2.47150417 # occ.  0.00000000
 
ion      s      p      d    tot
    1  0.003  0.017  0.000  0.020
    2  0.003  0.017  0.000  0.020
tot    0.006  0.034  0.000  0.040
 
band    11 # energy    3.82127429 # occ.  0.00000000
 
ion      s      p      d    tot
    1  0.006  0.026  0.000  0.032
    2  0.006  0.026  0.000  0.032
tot    0.012  0.052  0.001  0.064
 
band    12 # energy    4.44955261 # occ.  0.00000000
 
ion      s      p      d    tot
    1  0.008  0.000  0.022  0.030
    2  0.008  0.000  0.022  0.030
tot    0.016  0.000  0.044  0.060
 
band    13 # energy    6.36732589 # occ.  0.00000000
 
ion      s      p      d    tot
    1  0.001  0.059  0.173  0.233
    2  0.001  0.059  0.173  0.233
tot    0.002  0.118  0.346  0.465
 
band    14 # energy    6.45971496 # occ.  0.00000000
 
ion      s      p      d    tot
    1  0.000  0.060  0.189  0.249
    2  0.000  0.060  0.189  0.249
tot    0.000  0.120  0.379  0.499
 
band    15 # energy    6.96565534 # occ.  0.00000000
 
ion      s      p      d    tot
    1  0.024  0.042  0.012  0.077
    2  0.024  0.042  0.012  0.077
tot    0.048  0.084  0.023  0.155
 
band    16 # energy    7.56220413 # occ.  0.00000000
 
ion      s      p      d    tot
    1  0.009  0.030  0.058  0.097
    2  0.009  0.030  0.058  0.097
tot    0.018  0.060  0.116  0.194
 

 k-point     4 :    0.04081633-0.02040816 0.00000000     weight = 0.00666667

band     1 # energy  -17.45268732 # occ.  2.00000000
 
ion      s      p      d    tot
    1  0.261  0.016  0.000  0.277
    2  0.261  0.016  0.000  0.277
tot    0.521  0.032  0.001  0.554
 
band     2 # energy   -9.74499370 # occ.  2.00000000
 
ion      s      p      d    tot
    1  0.213  0.052  0.003  0.268
    2  0.213  0.052  0.003  0.268
tot    0.426  0.104  0.007  0.537
 
band     3 # energy   -3.75416289 # occ.  2.00000000
 
ion      s      p      d    tot
    1  0.005  0.206  0.004  0.215
    2  0.005  0.206  0.004  0.215
tot    0.010  0.413  0.007  0.430
 
band     4 # energy   -3.68483234 # occ.  2.00000000
 
ion      s      p      d    tot
    1  0.008  0.299  0.034  0.340
    2  0.008  0.299  0.034  0.340
tot    0.016  0.598  0.067  0.681
 
band     5 # energy   -3.54567807 # occ.  2.00000000
 
ion      s      p      d    tot
    1  0.000  0.309  0.034  0.342
    2  0.000  0.309  0.034  0.342
tot    0.000  0.617  0.068  0.685
 
band     6 # energy    0.47314621 # occ.  0.00000000
 
ion      s      p      d    tot
    1  0.144  0.158  0.041  0.342
    2  0.144  0.158  0.041  0.342
tot    0.287  0.315  0.081  0.683
 
band     7 # energy    0.50132239 # occ.  0.00000000
 
ion      s      p      d    tot
    1  0.002  0.258  0.046  0.307
    2  0.002  0.258  0.046  0.307
tot    0.005  0.516  0.093  0.613
 
band     8 # energy    0.64276247 # occ.  0.00000000
 
ion      s      p      d    tot
    1  0.066  0.219  0.043  0.328
    2  0.066  0.219  0.043  0.328
tot    0.132  0.438  0.085  0.656
 
band     9 # energy    2.04969720 # occ.  0.00000000
 
ion      s      p      d    tot
    1  0.002  0.005  0.024  0.030
    2  0.002  0.005  0.024  0.030
tot    0.004  0.010  0.047  0.060
 
band    10 # energy    2.48306802 # occ.  0.00000000
 
ion      s      p      d    tot
    1  0.003  0.017  0.000  0.020
    2  0.003  0.017  0.000  0.020
tot    0.006  0.035  0.000  0.041
 
band    11 # energy    3.82997141 # occ.  0.00000000
 
ion      s      p      d    tot
    1  0.006  0.026  0.001  0.032
    2  0.006  0.026  0.001  0.032
tot    0.012  0.052  0.001  0.065
 
band    12 # energy    4.46208418 # occ.  0.00000000
 
ion      s      p      d    tot
    1  0.008  0.000  0.022  0.030
    2  0.008  0.000  0.022  0.030
tot    0.016  0.000  0.044  0.060
 
band    13 # energy    6.25419384 # occ.  0.00000000
 
ion      s      p      d    tot
    1  0.001  0.057  0.165  0.222
    2  0.001  0.057  0.165  0.222
tot    0.002  0.114  0.329  0.445
 
band    14 # energy    6.43628809 # occ.  0.00000000
 
ion      s      p      d    tot
    1  0.000  0.058  0.190  0.248
    2  0.000  0.058  0.190  0.248
tot    0.000  0.116  0.380  0.495
 
band    15 # energy    7.00843080 # occ.  0.00000000
 
ion      s      p      d    tot
    1  0.024  0.043  0.016  0.083
    2  0.024  0.043  0.016  0.083
tot    0.047  0.086  0.032  0.165
 
band    16 # energy    7.55691175 # occ.  0.00000000
 
ion      s      p      d    tot
    1  0.008  0.033  0.061  0.103
    2  0.008  0.033  0.061  0.103
tot    0.017  0.066  0.123  0.205
 

 k-point     5 :    0.05442177-0.02721088 0.00000000     weight = 0.00666667

band     1 # energy  -17.43705043 # occ.  2.00000000
 
ion      s      p      d    tot
    1  0.261  0.016  0.000  0.277
    2  0.261  0.016  0.000  0.277
tot    0.521  0.032  0.001  0.555
 
band     2 # energy   -9.73446737 # occ.  2.00000000
 
ion      s      p      d    tot
    1  0.214  0.052  0.003  0.269
    2  0.214  0.052  0.003  0.269
tot    0.428  0.104  0.007  0.538
 
band     3 # energy   -3.81854161 # occ.  2.00000000
 
ion      s      p      d    tot
    1  0.013  0.292  0.033  0.338
    2  0.013  0.292  0.033  0.338
tot    0.025  0.584  0.067  0.676
 
band     4 # energy   -3.74491168 # occ.  2.00000000
 
ion      s      p      d    tot
    1  0.005  0.207  0.004  0.215
    2  0.005  0.207  0.004  0.215
tot    0.010  0.414  0.007  0.431
 
band     5 # energy   -3.58383145 # occ.  2.00000000
 
ion      s      p      d    tot
    1  0.000  0.307  0.034  0.341
    2  0.000  0.307  0.034  0.341
tot    0.000  0.615  0.067  0.682
 
band     6 # energy    0.48251445 # occ.  0.00000000
 
ion      s      p      d    tot
    1  0.004  0.256  0.046  0.306
    2  0.004  0.256  0.046  0.306
tot    0.008  0.512  0.092  0.612
 
band     7 # energy    0.49899561 # occ.  0.00000000
 
ion      s      p      d    tot
    1  0.103  0.187  0.042  0.332
    2  0.103  0.187  0.042  0.332
tot    0.206  0.373  0.085  0.664
 
band     8 # energy    0.77013762 # occ.  0.00000000
 
ion      s      p      d    tot
    1  0.101  0.199  0.040  0.340
    2  0.101  0.199  0.040  0.340
tot    0.202  0.398  0.079  0.679
 
band     9 # energy    2.06938784 # occ.  0.00000000
 
ion      s      p      d    tot
    1  0.002  0.005  0.024  0.031
    2  0.002  0.005  0.024  0.031
tot    0.003  0.011  0.048  0.062
 
band    10 # energy    2.49918681 # occ.  0.00000000
 
ion      s      p      d    tot
    1  0.003  0.017  0.000  0.021
    2  0.003  0.017  0.000  0.021
tot    0.006  0.035  0.001  0.041
 
band    11 # energy    3.84184473 # occ.  0.00000000
 
ion      s      p      d    tot
    1  0.006  0.026  0.001  0.033
    2  0.006  0.026  0.001  0.033
tot    0.011  0.052  0.002  0.066
 
band    12 # energy    4.47962699 # occ.  0.00000000
 
ion      s      p      d    tot
    1  0.008  0.000  0.022  0.030
    2  0.008  0.000  0.022  0.030
tot    0.016  0.000  0.044  0.060
 
band    13 # energy    6.12176260 # occ.  0.00000000
 
ion      s      p      d    tot
    1  0.001  0.055  0.158  0.214
    2  0.001  0.055  0.158  0.214
tot    0.003  0.109  0.317  0.429
 
band    14 # energy    6.40368046 # occ.  0.00000000
 
ion      s      p      d    tot
    1  0.000  0.055  0.190  0.245
    2  0.000  0.055  0.190  0.245
tot    0.000  0.110  0.381  0.491
 
band    15 # energy    7.05331222 # occ.  0.00000000
 
ion      s      p      d    tot
    1  0.023  0.044  0.017  0.085
    2  0.023  0.044  0.017  0.085
tot    0.047  0.088  0.035  0.170
 
band    16 # energy    7.54860204 # occ.  0.00000000
 
ion      s      p      d    tot
    1  0.007  0.037  0.066  0.111
    2  0.007  0.037  0.066  0.111
tot    0.015  0.074  0.133  0.221
 

 k-point     6 :    0.06802721-0.03401361 0.00000000     weight = 0.00666667

band     1 # energy  -17.41696143 # occ.  2.00000000
 
ion      s      p      d    tot
    1  0.261  0.016  0.000  0.277
    2  0.261  0.016  0.000  0.277
tot    0.521  0.033  0.001  0.555
 
band     2 # energy   -9.72111744 # occ.  2.00000000
 
ion      s      p      d    tot
    1  0.215  0.052  0.003  0.270
    2  0.215  0.052  0.003  0.270
tot    0.430  0.103  0.007  0.540
 
band     3 # energy   -3.97760522 # occ.  2.00000000
 
ion      s      p      d    tot
    1  0.017  0.285  0.033  0.335
    2  0.017  0.285  0.033  0.335
tot    0.035  0.570  0.066  0.670
 
band     4 # energy   -3.73316983 # occ.  2.00000000
 
ion      s      p      d    tot
    1  0.005  0.207  0.004  0.216
    2  0.005  0.207  0.004  0.216
tot    0.010  0.415  0.007  0.432
 
band     5 # energy   -3.63268640 # occ.  2.00000000
 
ion      s      p      d    tot
    1  0.000  0.306  0.033  0.339
    2  0.000  0.306  0.033  0.339
tot    0.000  0.612  0.067  0.679
 
band     6 # energy    0.45989832 # occ.  0.00000000
 
ion      s      p      d    tot
    1  0.006  0.254  0.045  0.305
    2  0.006  0.254  0.045  0.305
tot    0.012  0.508  0.091  0.611
 
band     7 # energy    0.51991227 # occ.  0.00000000
 
ion      s      p      d    tot
    1  0.083  0.201  0.043  0.327
    2  0.083  0.201  0.043  0.327
tot    0.167  0.402  0.086  0.655
 
band     8 # energy    0.93152451 # occ.  0.00000000
 
ion      s      p      d    tot
    1  0.114  0.195  0.037  0.346
    2  0.114  0.195  0.037  0.346
tot    0.229  0.390  0.074  0.692
 
band     9 # energy    2.09501488 # occ.  0.00000000
 
ion      s      p      d    tot
    1  0.001  0.006  0.025  0.032
    2  0.001  0.006  0.025  0.032
tot    0.002  0.012  0.050  0.064
 
band    10 # energy    2.51978594 # occ.  0.00000000
 
ion      s      p      d    tot
    1  0.003  0.018  0.000  0.021
    2  0.003  0.018  0.000  0.021
tot    0.006  0.035  0.001  0.042
 
band    11 # energy    3.85655511 # occ.  0.00000000
 
ion      s      p      d    tot
    1  0.006  0.026  0.002  0.034
    2  0.006  0.026  0.002  0.034
tot    0.011  0.052  0.004  0.067
 
band    12 # energy    4.50217515 # occ.  0.00000000
 
ion      s      p      d    tot
    1  0.008  0.000  0.022  0.030
    2  0.008  0.000  0.022  0.030
tot    0.016  0.000  0.045  0.061
 
band    13 # energy    5.97779226 # occ.  0.00000000
 
ion      s      p      d    tot
    1  0.001  0.053  0.154  0.208
    2  0.001  0.053  0.154  0.208
tot    0.003  0.105  0.307  0.415
 
band    14 # energy    6.36215653 # occ.  0.00000000
 
ion      s      p      d    tot
    1  0.000  0.051  0.191  0.242
    2  0.000  0.051  0.191  0.242
tot    0.001  0.102  0.382  0.485
 
band    15 # energy    7.09879181 # occ.  0.00000000
 
ion      s      p      d    tot
    1  0.023  0.045  0.018  0.085
    2  0.023  0.045  0.018  0.085
tot    0.046  0.090  0.035  0.170
 
band    16 # energy    7.53653085 # occ.  0.00000000
 
ion      s      p      d    tot
    1  0.006  0.042  0.073  0.121
    2  0.006  0.042  0.073  0.121
tot    0.013  0.084  0.146  0.243
 

 k-point     7 :    0.08163265-0.04081633 0.00000000     weight = 0.00666667

band     1 # energy  -17.39242519 # occ.  2.00000000
 
ion      s      p      d    tot
    1  0.260  0.017  0.000  0.278
    2  0.260  0.017  0.000  0.278
tot    0.521  0.033  0.001  0.555
 
band     2 # energy   -9.70506745 # occ.  2.00000000
 
ion      s      p      d    tot
    1  0.216  0.051  0.004  0.271
    2  0.216  0.051  0.004  0.271
tot    0.433  0.102  0.007  0.542
 
band     3 # energy   -4.15612737 # occ.  2.00000000
 
ion      s      p      d    tot
    1  0.022  0.278  0.032  0.332
    2  0.022  0.278  0.032  0.332
tot    0.044  0.555  0.065  0.664
 
band     4 # energy   -3.71925055 # occ.  2.00000000
 
ion      s      p      d    tot
    1  0.005  0.209  0.004  0.218
    2  0.005  0.209  0.004  0.218
tot    0.010  0.418  0.008  0.436
 
band     5 # energy   -3.69196739 # occ.  2.00000000
 
ion      s      p      d    tot
    1  0.000  0.303  0.033  0.336
    2  0.000  0.303  0.033  0.336
tot    0.001  0.606  0.066  0.673
 
band     6 # energy    0.43423164 # occ.  0.00000000
 
ion      s      p      d    tot
    1  0.008  0.252  0.044  0.305
    2  0.008  0.252  0.044  0.305
tot    0.016  0.504  0.089  0.610
 
band     7 # energy    0.54080334 # occ.  0.00000000
 
ion      s      p      d    tot
    1  0.073  0.208  0.043  0.325
    2  0.073  0.208  0.043  0.325
tot    0.147  0.417  0.087  0.651
 
band     8 # energy    1.11439426 # occ.  0.00000000
 
ion      s      p      d    tot
    1  0.118  0.197  0.034  0.350
    2  0.118  0.197  0.034  0.350
tot    0.236  0.395  0.069  0.700
 
band     9 # energy    2.12686235 # occ.  0.00000000
 
ion      s      p      d    tot
    1  0.001  0.008  0.026  0.034
    2  0.001  0.008  0.026  0.034
tot    0.002  0.015  0.052  0.068
 
band    10 # energy    2.54476152 # occ.  0.00000000
 
ion      s      p      d    tot
    1  0.003  0.018  0.001  0.021
    2  0.003  0.018  0.001  0.021
tot    0.006  0.036  0.001  0.043
 
band    11 # energy    3.87360227 # occ.  0.00000000
 
ion      s      p      d    tot
    1  0.006  0.026  0.003  0.035
    2  0.006  0.026  0.003  0.035
tot    0.011  0.052  0.006  0.070
 
band    12 # energy    4.52968879 # occ.  0.00000000
 
ion      s      p      d    tot
    1  0.008  0.000  0.022  0.030
    2  0.008  0.000  0.022  0.030
tot    0.015  0.000  0.045  0.061
 
band    13 # energy    5.82783709 # occ.  0.00000000
 
ion      s      p      d    tot
    1  0.001  0.050  0.150  0.201
    2  0.001  0.050  0.150  0.201
tot    0.003  0.100  0.299  0.402
 
band    14 # energy    6.31261012 # occ.  0.00000000
 
ion      s      p      d    tot
    1  0.001  0.046  0.192  0.239
    2  0.001  0.046  0.192  0.239
tot    0.001  0.093  0.384  0.478
 
band    15 # energy    7.14494953 # occ.  0.00000000
 
ion      s      p      d    tot
    1  0.022  0.046  0.017  0.085
    2  0.022  0.046  0.017  0.085
tot    0.044  0.091  0.035  0.170
 
band    16 # energy    7.52000795 # occ.  0.00000000
 
ion      s      p      d    tot
    1  0.005  0.049  0.081  0.135
    2  0.005  0.049  0.081  0.135
tot    0.010  0.097  0.162  0.269
 

 k-point     8 :    0.09523810-0.04761905 0.00000000     weight = 0.00666667

band     1 # energy  -17.36344786 # occ.  2.00000000
 
ion      s      p      d    tot
    1  0.260  0.017  0.001  0.278
    2  0.260  0.017  0.001  0.278
tot    0.521  0.034  0.001  0.556
 
band     2 # energy   -9.68646967 # occ.  2.00000000
 
ion      s      p      d    tot
    1  0.218  0.051  0.004  0.272
    2  0.218  0.051  0.004  0.272
tot    0.436  0.101  0.007  0.544
 
band     3 # energy   -4.34877032 # occ.  2.00000000
 
ion      s      p      d    tot
    1  0.026  0.271  0.032  0.329
    2  0.026  0.271  0.032  0.329
tot    0.052  0.542  0.064  0.657
 
band     4 # energy   -3.76228507 # occ.  2.00000000
 
ion      s      p      d    tot
    1  0.000  0.302  0.033  0.335
    2  0.000  0.302  0.033  0.335
tot    0.000  0.603  0.066  0.669
 
band     5 # energy   -3.70223066 # occ.  2.00000000
 
ion      s      p      d    tot
    1  0.006  0.209  0.004  0.218
    2  0.006  0.209  0.004  0.218
tot    0.011  0.418  0.008  0.437
 
band     6 # energy    0.40684842 # occ.  0.00000000
 
ion      s      p      d    tot
    1  0.011  0.250  0.044  0.304
    2  0.011  0.250  0.044  0.304
tot    0.021  0.500  0.087  0.609
 
band     7 # energy    0.56345358 # occ.  0.00000000
 
ion      s      p      d    tot
    1  0.068  0.213  0.043  0.324
    2  0.068  0.213  0.043  0.324
tot    0.135  0.427  0.087  0.649
 
band     8 # energy    1.31007266 # occ.  0.00000000
 
ion      s      p      d    tot
    1  0.118  0.202  0.031  0.351
    2  0.118  0.202  0.031  0.351
tot    0.235  0.404  0.063  0.702
 
band     9 # energy    2.16557059 # occ.  0.00000000
 
ion      s      p      d    tot
    1  0.000  0.010  0.027  0.038
    2  0.000  0.010  0.027  0.038
tot    0.001  0.020  0.054  0.075
 
band    10 # energy    2.57399795 # occ.  0.00000000
 
ion      s      p      d    tot
    1  0.003  0.018  0.001  0.022
    2  0.003  0.018  0.001  0.022
tot    0.005  0.036  0.002  0.044
 
band    11 # energy    3.89233242 # occ.  0.00000000
 
ion      s      p      d    tot
    1  0.006  0.026  0.004  0.036
    2  0.006  0.026  0.004  0.036
tot    0.011  0.053  0.009  0.073
 
band    12 # energy    4.56222054 # occ.  0.00000000
 
ion      s      p      d    tot
    1  0.008  0.000  0.023  0.031
    2  0.008  0.000  0.023  0.031
tot    0.015  0.001  0.045  0.061
 
band    13 # energy    5.67673095 # occ.  0.00000000
 
ion      s      p      d    tot
    1  0.001  0.047  0.146  0.195
    2  0.001  0.047  0.146  0.195
tot    0.003  0.095  0.292  0.389
 
band    14 # energy    6.25684460 # occ.  0.00000000
 
ion      s      p      d    tot
    1  0.001  0.041  0.193  0.235
    2  0.001  0.041  0.193  0.235
tot    0.002  0.082  0.386  0.470
 
band    15 # energy    7.19213776 # occ.  0.00000000
 
ion      s      p      d    tot
    1  0.021  0.046  0.017  0.084
    2  0.021  0.046  0.017  0.084
tot    0.042  0.092  0.035  0.168
 
band    16 # energy    7.49905074 # occ.  0.00000000
 
ion      s      p      d    tot
    1  0.004  0.056  0.090  0.149
    2  0.004  0.056  0.090  0.149
tot    0.008  0.111  0.180  0.299
 

 k-point     9 :    0.10884354-0.05442177 0.00000000     weight = 0.00666667

band     1 # energy  -17.33004771 # occ.  2.00000000
 
ion      s      p      d    tot
    1  0.260  0.017  0.001  0.278
    2  0.260  0.017  0.001  0.278
tot    0.520  0.035  0.001  0.556
 
band     2 # energy   -9.66555139 # occ.  2.00000000
 
ion      s      p      d    tot
    1  0.220  0.050  0.004  0.274
    2  0.220  0.050  0.004  0.274
tot    0.440  0.100  0.007  0.547
 
band     3 # energy   -4.55197156 # occ.  2.00000000
 
ion      s      p      d    tot
    1  0.029  0.265  0.031  0.325
    2  0.029  0.265  0.031  0.325
tot    0.058  0.529  0.063  0.650
 
band     4 # energy   -3.84250479 # occ.  2.00000000
 
ion      s      p      d    tot
    1  0.000  0.299  0.033  0.332
    2  0.000  0.299  0.033  0.332
tot    0.001  0.599  0.065  0.664
 
band     5 # energy   -3.68366061 # occ.  2.00000000
 
ion      s      p      d    tot
    1  0.006  0.209  0.004  0.219
    2  0.006  0.209  0.004  0.219
tot    0.012  0.419  0.008  0.439
 
band     6 # energy    0.37795369 # occ.  0.00000000
 
ion      s      p      d    tot
    1  0.013  0.248  0.043  0.304
    2  0.013  0.248  0.043  0.304
tot    0.027  0.495  0.085  0.607
 
band     7 # energy    0.58797927 # occ.  0.00000000
 
ion      s      p      d    tot
    1  0.064  0.217  0.043  0.324
    2  0.064  0.217  0.043  0.324
tot    0.128  0.433  0.086  0.647
 
band     8 # energy    1.51029829 # occ.  0.00000000
 
ion      s      p      d    tot
    1  0.115  0.206  0.027  0.349
    2  0.115  0.206  0.027  0.349
tot    0.230  0.412  0.055  0.697
 
band     9 # energy    2.21198018 # occ.  0.00000000
 
ion      s      p      d    tot
    1  0.000  0.015  0.029  0.044
    2  0.000  0.015  0.029  0.044
tot    0.000  0.029  0.058  0.088
 
band    10 # energy    2.60731216 # occ.  0.00000000
 
ion      s      p      d    tot
    1  0.003  0.018  0.001  0.023
    2  0.003  0.018  0.001  0.023
tot    0.005  0.037  0.003  0.045
 
band    11 # energy    3.91174442 # occ.  0.00000000
 
ion      s      p      d    tot
    1  0.006  0.026  0.007  0.039
    2  0.006  0.026  0.007  0.039
tot    0.011  0.053  0.013  0.077
 
band    12 # energy    4.59970915 # occ.  0.00000000
 
ion      s      p      d    tot
    1  0.007  0.000  0.023  0.031
    2  0.007  0.000  0.023  0.031
tot    0.015  0.001  0.046  0.061
 
band    13 # energy    5.52786919 # occ.  0.00000000
 
ion      s      p      d    tot
    1  0.001  0.045  0.142  0.187
    2  0.001  0.045  0.142  0.187
tot    0.002  0.089  0.283  0.375
 
band    14 # energy    6.19736569 # occ.  0.00000000
 
ion      s      p      d    tot
    1  0.002  0.035  0.194  0.231
    2  0.002  0.035  0.194  0.231
tot    0.004  0.070  0.387  0.462
 
band    15 # energy    7.24064898 # occ.  0.00000000
 
ion      s      p      d    tot
    1  0.020  0.047  0.017  0.084
    2  0.020  0.047  0.017  0.084
tot    0.039  0.094  0.034  0.167
 
band    16 # energy    7.47371882 # occ.  0.00000000
 
ion      s      p      d    tot
    1  0.003  0.063  0.099  0.165
    2  0.003  0.063  0.099  0.165
tot    0.006  0.126  0.198  0.329
 

 k-point    10 :    0.12244898-0.06122449 0.00000000     weight = 0.00666667

band     1 # energy  -17.29223577 # occ.  2.00000000
 
ion      s      p      d    tot
    1  0.260  0.018  0.001  0.278
    2  0.260  0.018  0.001  0.278
tot    0.520  0.036  0.001  0.557
 
band     2 # energy   -9.64259412 # occ.  2.00000000
 
ion      s      p      d    tot
    1  0.223  0.049  0.004  0.275
    2  0.223  0.049  0.004  0.275
tot    0.445  0.098  0.007  0.551
 
band     3 # energy   -4.76159594 # occ.  2.00000000
 
ion      s      p      d    tot
    1  0.032  0.259  0.031  0.321
    2  0.032  0.259  0.031  0.321
tot    0.063  0.518  0.061  0.642
 
band     4 # energy   -3.93231473 # occ.  2.00000000
 
ion      s      p      d    tot
    1  0.001  0.296  0.032  0.329
    2  0.001  0.296  0.032  0.329
tot    0.001  0.593  0.064  0.659
 
band     5 # energy   -3.66306544 # occ.  2.00000000
 
ion      s      p      d    tot
    1  0.006  0.210  0.004  0.221
    2  0.006  0.210  0.004  0.221
tot    0.012  0.421  0.008  0.441
 
band     6 # energy    0.34899013 # occ.  0.00000000
 
ion      s      p      d    tot
    1  0.016  0.246  0.042  0.303
    2  0.016  0.246  0.042  0.303
tot    0.032  0.491  0.083  0.606
 
band     7 # energy    0.61496036 # occ.  0.00000000
 
ion      s      p      d    tot
    1  0.061  0.220  0.043  0.323
    2  0.061  0.220  0.043  0.323
tot    0.122  0.439  0.086  0.647
 
band     8 # energy    1.70726977 # occ.  0.00000000
 
ion      s      p      d    tot
    1  0.111  0.207  0.022  0.340
    2  0.111  0.207  0.022  0.340
tot    0.221  0.414  0.045  0.680
 
band     9 # energy    2.26776925 # occ.  0.00000000
 
ion      s      p      d    tot