<?xml version="1.0" encoding="ISO-8859-1"?>
<modeling>
 <generator>
  <i name="program" type="string">vasp </i>
  <i name="version" type="string">6.4.2  </i>
  <i name="subversion" type="string">20Jul23 (build Nov 14 2023 12:59:38) complex                          parallel </i>
  <i name="platform" type="string">LinuxIFC </i>
  <i name="date" type="string">2023 12 17 </i>
  <i name="time" type="string">08:41:17 </i>
 </generator>
 <incar>
  <i type="string" name="PREC">Accurate</i>
  <i type="string" name="ALGO">Normal</i>
  <i type="logical" name="ADDGRID"> T  </i>
  <i type="int" name="ISPIN">     1</i>
  <i name="AMIX">      0.10000000</i>
  <i name="BMIX">      0.00010000</i>
  <i type="int" name="ICHARG">    11</i>
  <i type="int" name="NELM">   200</i>
  <i type="int" name="NELMDL">   -12</i>
  <i type="int" name="NELMIN">     6</i>
  <i type="int" name="IBRION">     2</i>
  <i name="EDIFF">      0.00000100</i>
  <i name="EDIFFG">     -0.01000000</i>
  <i type="int" name="NSW">     0</i>
  <i type="int" name="ISIF">    -1</i>
  <i name="ENCUT">    286.92000000</i>
  <i type="int" name="NBANDS">    16</i>
  <i name="POTIM">      0.50000000</i>
  <i type="int" name="NEDOS">  6001</i>
  <i type="logical" name="LPLANE"> T  </i>
  <i type="int" name="ISMEAR">     0</i>
  <i name="SIGMA">      0.01000000</i>
  <i type="int" name="NWRITE">     1</i>
  <i type="logical" name="LWAVE"> F  </i>
  <i type="logical" name="LCHARG"> F  </i>
  <i type="int" name="LORBIT">    10</i>
  <i type="logical" name="LASPH"> T  </i>
  <i type="int" name="IVDW">     0</i>
 </incar>
 <primitive_cell>
  <structure name="primitive_cell" >
   <crystal>
    <varray name="basis" >
     <v>       3.28234349       0.00000000       0.00000000 </v>
     <v>      -1.64117175       2.84259285       0.00000000 </v>
     <v>       0.00000000       0.00000000      16.00000000 </v>
    </varray>
    <i name="volume">    149.28585836 </i>
    <varray name="rec_basis" >
     <v>       0.30466038       0.17589575       0.00000000 </v>
     <v>       0.00000000       0.35179150       0.00000000 </v>
     <v>       0.00000000       0.00000000       0.06250000 </v>
    </varray>
   </crystal>
   <varray name="positions" >
    <v>       0.66666667       0.33333333       0.46118284 </v>
    <v>       0.33333333       0.66666667       0.53881716 </v>
   </varray>
  </structure>
  <varray name="primitive_index" >
   <v type="int" >        1 </v>
   <v type="int" >        2 </v>
  </varray>
 </primitive_cell>
 <kpoints>
  <generation param="listgenerated">
   <i name="divisions" type="int">      50 </i>
   <v>       0.00000000       0.00000000       0.00000000 </v>
   <v>       0.66666667      -0.33333333       0.00000000 </v>
   <v>       0.33333333       0.33333333       0.00000000 </v>
   <v>       0.00000000       0.00000000       0.00000000 </v>
  </generation>
  <varray name="kpointlist" >
   <v>       0.00000000       0.00000000       0.00000000 </v>
   <v>       0.01360544      -0.00680272       0.00000000 </v>
   <v>       0.02721088      -0.01360544       0.00000000 </v>
   <v>       0.04081633      -0.02040816       0.00000000 </v>
   <v>       0.05442177      -0.02721088       0.00000000 </v>
   <v>       0.06802721      -0.03401361       0.00000000 </v>
   <v>       0.08163265      -0.04081633       0.00000000 </v>
   <v>       0.09523810      -0.04761905       0.00000000 </v>
   <v>       0.10884354      -0.05442177       0.00000000 </v>
   <v>       0.12244898      -0.06122449       0.00000000 </v>
   <v>       0.13605442      -0.06802721       0.00000000 </v>
   <v>       0.14965986      -0.07482993       0.00000000 </v>
   <v>       0.16326531      -0.08163265       0.00000000 </v>
   <v>       0.17687075      -0.08843537       0.00000000 </v>
   <v>       0.19047619      -0.09523810       0.00000000 </v>
   <v>       0.20408163      -0.10204082       0.00000000 </v>
   <v>       0.21768707      -0.10884354       0.00000000 </v>
   <v>       0.23129252      -0.11564626       0.00000000 </v>
   <v>       0.24489796      -0.12244898       0.00000000 </v>
   <v>       0.25850340      -0.12925170       0.00000000 </v>
   <v>       0.27210884      -0.13605442       0.00000000 </v>
   <v>       0.28571429      -0.14285714       0.00000000 </v>
   <v>       0.29931973      -0.14965986       0.00000000 </v>
   <v>       0.31292517      -0.15646259       0.00000000 </v>
   <v>       0.32653061      -0.16326531       0.00000000 </v>
   <v>       0.34013605      -0.17006803       0.00000000 </v>
   <v>       0.35374150      -0.17687075       0.00000000 </v>
   <v>       0.36734694      -0.18367347       0.00000000 </v>
   <v>       0.38095238      -0.19047619       0.00000000 </v>
   <v>       0.39455782      -0.19727891       0.00000000 </v>
   <v>       0.40816327      -0.20408163       0.00000000 </v>
   <v>       0.42176871      -0.21088435       0.00000000 </v>
   <v>       0.43537415      -0.21768707       0.00000000 </v>
   <v>       0.44897959      -0.22448980       0.00000000 </v>
   <v>       0.46258503      -0.23129252       0.00000000 </v>
   <v>       0.47619048      -0.23809524       0.00000000 </v>
   <v>       0.48979592      -0.24489796       0.00000000 </v>
   <v>       0.50340136      -0.25170068       0.00000000 </v>
   <v>       0.51700680      -0.25850340       0.00000000 </v>
   <v>       0.53061224      -0.26530612       0.00000000 </v>
   <v>       0.54421769      -0.27210884       0.00000000 </v>
   <v>       0.55782313      -0.27891156       0.00000000 </v>
   <v>       0.57142857      -0.28571429       0.00000000 </v>
   <v>       0.58503401      -0.29251701       0.00000000 </v>
   <v>       0.59863946      -0.29931973       0.00000000 </v>
   <v>       0.61224490      -0.30612245       0.00000000 </v>
   <v>       0.62585034      -0.31292517       0.00000000 </v>
   <v>       0.63945578      -0.31972789       0.00000000 </v>
   <v>       0.65306122      -0.32653061       0.00000000 </v>
   <v>       0.66666667      -0.33333333       0.00000000 </v>
   <v>       0.66666667      -0.33333333       0.00000000 </v>
   <v>       0.65986395      -0.31972789       0.00000000 </v>
   <v>       0.65306122      -0.30612245       0.00000000 </v>
   <v>       0.64625850      -0.29251701       0.00000000 </v>
   <v>       0.63945578      -0.27891156       0.00000000 </v>
   <v>       0.63265306      -0.26530612       0.00000000 </v>
   <v>       0.62585034      -0.25170068       0.00000000 </v>
   <v>       0.61904762      -0.23809524       0.00000000 </v>
   <v>       0.61224490      -0.22448980       0.00000000 </v>
   <v>       0.60544218      -0.21088435       0.00000000 </v>
   <v>       0.59863946      -0.19727891       0.00000000 </v>
   <v>       0.59183673      -0.18367347       0.00000000 </v>
   <v>       0.58503401      -0.17006803       0.00000000 </v>
   <v>       0.57823129      -0.15646259       0.00000000 </v>
   <v>       0.57142857      -0.14285714       0.00000000 </v>
   <v>       0.56462585      -0.12925170       0.00000000 </v>
   <v>       0.55782313      -0.11564626       0.00000000 </v>
   <v>       0.55102041      -0.10204082       0.00000000 </v>
   <v>       0.54421769      -0.08843537       0.00000000 </v>
   <v>       0.53741497      -0.07482993       0.00000000 </v>
   <v>       0.53061224      -0.06122449       0.00000000 </v>
   <v>       0.52380952      -0.04761905       0.00000000 </v>
   <v>       0.51700680      -0.03401361       0.00000000 </v>
   <v>       0.51020408      -0.02040816       0.00000000 </v>
   <v>       0.50340136      -0.00680272       0.00000000 </v>
   <v>       0.49659864       0.00680272       0.00000000 </v>
   <v>       0.48979592       0.02040816       0.00000000 </v>
   <v>       0.48299320       0.03401361       0.00000000 </v>
   <v>       0.47619048       0.04761905       0.00000000 </v>
   <v>       0.46938776       0.06122449       0.00000000 </v>
   <v>       0.46258503       0.07482993       0.00000000 </v>
   <v>       0.45578231       0.08843537       0.00000000 </v>
   <v>       0.44897959       0.10204082       0.00000000 </v>
   <v>       0.44217687       0.11564626       0.00000000 </v>
   <v>       0.43537415       0.12925170       0.00000000 </v>
   <v>       0.42857143       0.14285714       0.00000000 </v>
   <v>       0.42176871       0.15646259       0.00000000 </v>
   <v>       0.41496599       0.17006803       0.00000000 </v>
   <v>       0.40816327       0.18367347       0.00000000 </v>
   <v>       0.40136054       0.19727891       0.00000000 </v>
   <v>       0.39455782       0.21088435       0.00000000 </v>
   <v>       0.38775510       0.22448980       0.00000000 </v>
   <v>       0.38095238       0.23809524       0.00000000 </v>
   <v>       0.37414966       0.25170068       0.00000000 </v>
   <v>       0.36734694       0.26530612       0.00000000 </v>
   <v>       0.36054422       0.27891156       0.00000000 </v>
   <v>       0.35374150       0.29251701       0.00000000 </v>
   <v>       0.34693878       0.30612245       0.00000000 </v>
   <v>       0.34013605       0.31972789       0.00000000 </v>
   <v>       0.33333333       0.33333333       0.00000000 </v>
   <v>       0.33333333       0.33333333       0.00000000 </v>
   <v>       0.32653061       0.32653061       0.00000000 </v>
   <v>       0.31972789       0.31972789       0.00000000 </v>
   <v>       0.31292517       0.31292517       0.00000000 </v>
   <v>       0.30612245       0.30612245       0.00000000 </v>
   <v>       0.29931973       0.29931973       0.00000000 </v>
   <v>       0.29251701       0.29251701       0.00000000 </v>
   <v>       0.28571429       0.28571429       0.00000000 </v>
   <v>       0.27891156       0.27891156       0.00000000 </v>
   <v>       0.27210884       0.27210884       0.00000000 </v>
   <v>       0.26530612       0.26530612       0.00000000 </v>
   <v>       0.25850340       0.25850340       0.00000000 </v>
   <v>       0.25170068       0.25170068       0.00000000 </v>
   <v>       0.24489796       0.24489796       0.00000000 </v>
   <v>       0.23809524       0.23809524       0.00000000 </v>
   <v>       0.23129252       0.23129252       0.00000000 </v>
   <v>       0.22448980       0.22448980       0.00000000 </v>
   <v>       0.21768707       0.21768707       0.00000000 </v>
   <v>       0.21088435       0.21088435       0.00000000 </v>
   <v>       0.20408163       0.20408163       0.00000000 </v>
   <v>       0.19727891       0.19727891       0.00000000 </v>
   <v>       0.19047619       0.19047619       0.00000000 </v>
   <v>       0.18367347       0.18367347       0.00000000 </v>
   <v>       0.17687075       0.17687075       0.00000000 </v>
   <v>       0.17006803       0.17006803       0.00000000 </v>
   <v>       0.16326531       0.16326531       0.00000000 </v>
   <v>       0.15646259       0.15646259       0.00000000 </v>
   <v>       0.14965986       0.14965986       0.00000000 </v>
   <v>       0.14285714       0.14285714       0.00000000 </v>
   <v>       0.13605442       0.13605442       0.00000000 </v>
   <v>       0.12925170       0.12925170       0.00000000 </v>
   <v>       0.12244898       0.12244898       0.00000000 </v>
   <v>       0.11564626       0.11564626       0.00000000 </v>
   <v>       0.10884354       0.10884354       0.00000000 </v>
   <v>       0.10204082       0.10204082       0.00000000 </v>
   <v>       0.09523810       0.09523810       0.00000000 </v>
   <v>       0.08843537       0.08843537       0.00000000 </v>
   <v>       0.08163265       0.08163265       0.00000000 </v>
   <v>       0.07482993       0.07482993       0.00000000 </v>
   <v>       0.06802721       0.06802721       0.00000000 </v>
   <v>       0.06122449       0.06122449       0.00000000 </v>
   <v>       0.05442177       0.05442177       0.00000000 </v>
   <v>       0.04761905       0.04761905       0.00000000 </v>
   <v>       0.04081633       0.04081633       0.00000000 </v>
   <v>       0.03401361       0.03401361       0.00000000 </v>
   <v>       0.02721088       0.02721088       0.00000000 </v>
   <v>       0.02040816       0.02040816       0.00000000 </v>
   <v>       0.01360544       0.01360544       0.00000000 </v>
   <v>       0.00680272       0.00680272       0.00000000 </v>
   <v>       0.00000000       0.00000000       0.00000000 </v>
  </varray>
  <varray name="weights" >
   <v>       0.00666667 </v>
   <v>       0.00666667 </v>
   <v>       0.00666667 </v>
   <v>       0.00666667 </v>
   <v>       0.00666667 </v>
   <v>       0.00666667 </v>
   <v>       0.00666667 </v>
   <v>       0.00666667 </v>
   <v>       0.00666667 </v>
   <v>       0.00666667 </v>
   <v>       0.00666667 </v>
   <v>       0.00666667 </v>
   <v>       0.00666667 </v>
   <v>       0.00666667 </v>
   <v>       0.00666667 </v>
   <v>       0.00666667 </v>
   <v>       0.00666667 </v>
   <v>       0.00666667 </v>
   <v>       0.00666667 </v>
   <v>       0.00666667 </v>
   <v>       0.00666667 </v>
   <v>       0.00666667 </v>
   <v>       0.00666667 </v>
   <v>       0.00666667 </v>
   <v>       0.00666667 </v>
   <v>       0.00666667 </v>
   <v>       0.00666667 </v>
   <v>       0.00666667 </v>
   <v>       0.00666667 </v>
   <v>       0.00666667 </v>
   <v>       0.00666667 </v>
   <v>       0.00666667 </v>
   <v>       0.00666667 </v>
   <v>       0.00666667 </v>
   <v>       0.00666667 </v>
   <v>       0.00666667 </v>
   <v>       0.00666667 </v>
   <v>       0.00666667 </v>
   <v>       0.00666667 </v>
   <v>       0.00666667 </v>
   <v>       0.00666667 </v>
   <v>       0.00666667 </v>
   <v>       0.00666667 </v>
   <v>       0.00666667 </v>
   <v>       0.00666667 </v>
   <v>       0.00666667 </v>
   <v>       0.00666667 </v>
   <v>       0.00666667 </v>
   <v>       0.00666667 </v>
   <v>       0.00666667 </v>
   <v>       0.00666667 </v>
   <v>       0.00666667 </v>
   <v>       0.00666667 </v>
   <v>       0.00666667 </v>
   <v>       0.00666667 </v>
   <v>       0.00666667 </v>
   <v>       0.00666667 </v>
   <v>       0.00666667 </v>
   <v>       0.00666667 </v>
   <v>       0.00666667 </v>
   <v>       0.00666667 </v>
   <v>       0.00666667 </v>
   <v>       0.00666667 </v>
   <v>       0.00666667 </v>
   <v>       0.00666667 </v>
   <v>       0.00666667 </v>
   <v>       0.00666667 </v>
   <v>       0.00666667 </v>
   <v>       0.00666667 </v>
   <v>       0.00666667 </v>
   <v>       0.00666667 </v>
   <v>       0.00666667 </v>
   <v>       0.00666667 </v>
   <v>       0.00666667 </v>
   <v>       0.00666667 </v>
   <v>       0.00666667 </v>
   <v>       0.00666667 </v>
   <v>       0.00666667 </v>
   <v>       0.00666667 </v>
   <v>       0.00666667 </v>
   <v>       0.00666667 </v>
   <v>       0.00666667 </v>
   <v>       0.00666667 </v>
   <v>       0.00666667 </v>
   <v>       0.00666667 </v>
   <v>       0.00666667 </v>
   <v>       0.00666667 </v>
   <v>       0.00666667 </v>
   <v>       0.00666667 </v>
   <v>       0.00666667 </v>
   <v>       0.00666667 </v>
   <v>       0.00666667 </v>
   <v>       0.00666667 </v>
   <v>       0.00666667 </v>
   <v>       0.00666667 </v>
   <v>       0.00666667 </v>
   <v>       0.00666667 </v>
   <v>       0.00666667 </v>
   <v>       0.00666667 </v>
   <v>       0.00666667 </v>
   <v>       0.00666667 </v>
   <v>       0.00666667 </v>
   <v>       0.00666667 </v>
   <v>       0.00666667 </v>
   <v>       0.00666667 </v>
   <v>       0.00666667 </v>
   <v>       0.00666667 </v>
   <v>       0.00666667 </v>
   <v>       0.00666667 </v>
   <v>       0.00666667 </v>
   <v>       0.00666667 </v>
   <v>       0.00666667 </v>
   <v>       0.00666667 </v>
   <v>       0.00666667 </v>
   <v>       0.00666667 </v>
   <v>       0.00666667 </v>
   <v>       0.00666667 </v>
   <v>       0.00666667 </v>
   <v>       0.00666667 </v>
   <v>       0.00666667 </v>
   <v>       0.00666667 </v>
   <v>       0.00666667 </v>
   <v>       0.00666667 </v>
   <v>       0.00666667 </v>
   <v>       0.00666667 </v>
   <v>       0.00666667 </v>
   <v>       0.00666667 </v>
   <v>       0.00666667 </v>
   <v>       0.00666667 </v>
   <v>       0.00666667 </v>
   <v>       0.00666667 </v>
   <v>       0.00666667 </v>
   <v>       0.00666667 </v>
   <v>       0.00666667 </v>
   <v>       0.00666667 </v>
   <v>       0.00666667 </v>
   <v>       0.00666667 </v>
   <v>       0.00666667 </v>
   <v>       0.00666667 </v>
   <v>       0.00666667 </v>
   <v>       0.00666667 </v>
   <v>       0.00666667 </v>
   <v>       0.00666667 </v>
   <v>       0.00666667 </v>
   <v>       0.00666667 </v>
   <v>       0.00666667 </v>
   <v>       0.00666667 </v>
   <v>       0.00666667 </v>
   <v>       0.00666667 </v>
   <v>       0.00666667 </v>
  </varray>
  <kpoints_labels>
   <i name="G" type="int">       1 </i>
   <i name="K" type="int">       2 </i>
   <i name="K" type="int">       3 </i>
   <i name="K'" type="int">       4 </i>
   <i name="K'" type="int">       5 </i>
   <i name="G" type="int">       6 </i>
  </kpoints_labels>
 </kpoints>
 <parameters>
  <separator name="general" >
   <i type="string" name="SYSTEM">unknown system</i>
   <i type="logical" name="LCOMPAT"> F  </i>
  </separator>
  <separator name="electronic" >
   <i type="string" name="PREC">accura</i>
   <i name="ENMAX">    286.92000000</i>
   <i name="ENAUG">    499.73200000</i>
   <i name="EDIFF">      0.00000100</i>
   <i type="int" name="IALGO">    38</i>
   <i type="int" name="IWAVPR">    10</i>
   <i type="int" name="NBANDS">    16</i>
   <i type="int" name="NBANDSLOW">    -1</i>
   <i type="int" name="NBANDSHIGH">    -1</i>
   <i name="NELECT">     10.00000000</i>
   <i type="int" name="TURBO">     0</i>
   <i type="int" name="IRESTART">     0</i>
   <i type="int" name="NREBOOT">     0</i>
   <i type="int" name="NMIN">     0</i>
   <i name="EREF">      0.00000000</i>
   <separator name="electronic smearing" >
    <i type="int" name="ISMEAR">     0</i>
    <i name="SIGMA">      0.01000000</i>
    <i name="KSPACING">      0.50000000</i>
    <i type="logical" name="KGAMMA"> T  </i>
    <i type="logical" name="KBLOWUP"> T  </i>
   </separator>
   <separator name="electronic projectors" >
    <i type="logical" name="LREAL"> F  </i>
    <v name="ROPT">      0.00000000</v>
    <i type="int" name="LMAXPAW">  -100</i>
    <i type="int" name="LMAXMIX">     2</i>
    <i type="logical" name="NLSPLINE"> F  </i>
   </separator>
   <separator name="electronic startup" >
    <i type="int" name="ISTART">     0</i>
    <i type="int" name="ICHARG">    11</i>
    <i type="int" name="INIWAV">     1</i>
   </separator>
   <separator name="electronic spin" >
    <i type="int" name="ISPIN">     1</i>
    <i type="logical" name="LNONCOLLINEAR"> F  </i>
    <v name="MAGMOM">      1.00000000      1.00000000</v>
    <i name="NUPDOWN">     -1.00000000</i>
    <i type="logical" name="LSORBIT"> F  </i>
    <v name="SAXIS">      0.00000000      0.00000000      1.00000000</v>
    <i type="logical" name="LSPIRAL"> F  </i>
    <v name="QSPIRAL">      0.00000000      0.00000000      0.00000000</v>
    <i type="logical" name="LZEROZ"> F  </i>
   </separator>
   <separator name="electronic exchange-correlation" >
    <i type="logical" name="LASPH"> T  </i>
    <i type="logical" name="LMETAGGA"> F  </i>
   </separator>
   <separator name="electronic convergence" >
    <i type="int" name="NELM">   200</i>
    <i type="int" name="NELMDL">   -12</i>
    <i type="int" name="NELMIN">     6</i>
    <i name="ENINI">    286.92000000</i>
    <separator name="electronic convergence detail" >
     <i type="logical" name="LDIAG"> T  </i>
     <i type="logical" name="LSUBROT"> F  </i>
     <i name="WEIMIN">      0.00000000</i>
     <i name="EBREAK">      0.00000002</i>
     <i name="DEPER">      0.30000000</i>
     <i type="int" name="NRMM">     4</i>
     <i name="TIME">      0.40000000</i>
    </separator>
   </separator>
   <separator name="electronic mixer" >
    <i name="AMIX">      0.10000000</i>
    <i name="BMIX">      0.00010000</i>
    <i name="AMIN">      0.10000000</i>
    <i name="AMIX_MAG">      0.40000000</i>
    <i name="BMIX_MAG">      0.00010000</i>
    <separator name="electronic mixer details" >
     <i type="int" name="IMIX">     4</i>
     <i type="logical" name="MIXFIRST"> F  </i>
     <i type="int" name="MAXMIX">   -45</i>
     <i name="WC">    100.00000000</i>
     <i type="int" name="INIMIX">     1</i>
     <i type="int" name="MIXPRE">     1</i>
     <i type="int" name="MREMOVE">     5</i>
    </separator>
   </separator>
   <separator name="electronic dipolcorrection" >
    <i type="logical" name="LDIPOL"> F  </i>
    <i type="logical" name="LMONO"> F  </i>
    <i type="int" name="IDIPOL">     0</i>
    <i name="EPSILON">      1.00000000</i>
    <v name="DIPOL">   -100.00000000   -100.00000000   -100.00000000</v>
    <i name="EFIELD">      0.00000000</i>
   </separator>
  </separator>
  <separator name="grids" >
   <i type="int" name="NGX">    18</i>
   <i type="int" name="NGY">    18</i>
   <i type="int" name="NGZ">    90</i>
   <i type="int" name="NGXF">    36</i>
   <i type="int" name="NGYF">    36</i>
   <i type="int" name="NGZF">   180</i>
   <i type="logical" name="ADDGRID"> T  </i>
  </separator>
  <separator name="ionic" >
   <i type="int" name="NSW">     0</i>
   <i type="int" name="IBRION">    -1</i>
   <i type="int" name="MDALGO">     0</i>
   <i type="int" name="ISIF">    -1</i>
   <i name="PSTRESS">      0.00000000</i>
   <i name="EDIFFG">     -0.01000000</i>
   <i type="int" name="NFREE">     1</i>
   <i name="POTIM">      0.50000000</i>
   <i name="SMASS">     -3.00000000</i>
   <i name="SCALEE">      1.00000000</i>
  </separator>
  <separator name="ionic md" >
   <i name="TEBEG">      0.00010000</i>
   <i name="TEEND">      0.00010000</i>
   <i type="int" name="NBLOCK">     1</i>
   <i type="int" name="KBLOCK">     1</i>
   <i type="int" name="NPACO">   256</i>
   <i name="APACO">     10.00000000</i>
  </separator>
  <separator name="symmetry" >
   <i type="int" name="ISYM">     2</i>
   <i name="SYMPREC">      0.00001000</i>
  </separator>
  <separator name="dos" >
   <i type="int" name="LORBIT">    10</i>
   <v name="RWIGS">     -1.00000000</v>
   <i type="int" name="NEDOS">  6001</i>
   <i name="EMIN">     10.00000000</i>
   <i name="EMAX">    -10.00000000</i>
   <i name="EFERMI">      0.00000000</i>
  </separator>
  <separator name="writing" >
   <i type="int" name="NWRITE">     1</i>
   <i type="logical" name="LWAVE"> F  </i>
   <i type="logical" name="LDOWNSAMPLE"> F  </i>
   <i type="logical" name="LCHARG"> F  </i>
   <i type="logical" name="LPARD"> F  </i>
   <i type="logical" name="LVTOT"> F  </i>
   <i type="logical" name="LVHAR"> F  </i>
   <i type="logical" name="LELF"> F  </i>
   <i type="logical" name="LOPTICS"> F  </i>
   <v name="STM">      0.00000000      0.00000000      0.00000000      0.00000000      0.00000000      0.00000000      0.00000000</v>
  </separator>
  <separator name="performance" >
   <i type="int" name="NPAR">     4</i>
   <i type="int" name="NSIM">     4</i>
   <i type="int" name="NBLK">    -1</i>
   <i type="logical" name="LPLANE"> T  </i>
   <i type="logical" name="LSCALAPACK"> T  </i>
   <i type="logical" name="LSCAAWARE"> F  </i>
   <i type="logical" name="LSCALU"> F  </i>
   <i type="logical" name="LASYNC"> F  </i>
   <i type="logical" name="LORBITALREAL"> F  </i>
  </separator>
  <separator name="miscellaneous" >
   <i type="int" name="IDIOT">     3</i>
   <i type="int" name="PHON_NSTRUCT">    -1</i>
   <i type="logical" name="LMUSIC"> F  </i>
   <v name="POMASS">     30.97400000</v>
   <v name="DARWINR">      0.00000000</v>
   <v name="DARWINV">      1.00000000</v>
   <i type="logical" name="LCORR"> T  </i>
  </separator>
  <i type="logical" name="GGA_COMPAT"> T  </i>
  <i type="logical" name="LBERRY"> F  </i>
  <i type="int" name="ICORELEVEL">     0</i>
  <i type="logical" name="LDAU"> F  </i>
  <i type="int" name="I_CONSTRAINED_M">     0</i>
  <separator name="electronic exchange-correlation" >
   <i type="string" name="GGA">--</i>
   <i type="int" name="VOSKOWN">     0</i>
   <i type="logical" name="LHFCALC"> F  </i>
   <i type="string" name="PRECFOCK"></i>
   <i type="logical" name="LSYMGRAD"> F  </i>
   <i type="logical" name="LHFONE"> F  </i>
   <i type="logical" name="LRHFCALC"> F  </i>
   <i type="logical" name="LTHOMAS"> F  </i>
   <i type="logical" name="LMODELHF"> F  </i>
   <i type="logical" name="LFOCKACE"> F  </i>
   <i name="ENCUT4O">     -1.00000000</i>
   <i type="int" name="EXXOEP">     0</i>
   <i type="int" name="FOURORBIT">     0</i>
   <i name="AEXX">      0.00000000</i>
   <i name="HFALPHA">      0.00000000</i>
   <i name="MCALPHA">      0.00000000</i>
   <i name="ALDAX">      1.00000000</i>
   <i name="AGGAX">      1.00000000</i>
   <i name="ALDAC">      1.00000000</i>
   <i name="AGGAC">      1.00000000</i>
   <i type="int" name="NKREDX">     1</i>
   <i type="int" name="NKREDY">     1</i>
   <i type="int" name="NKREDZ">     1</i>
   <i type="logical" name="SHIFTRED"> F  </i>
   <i type="logical" name="ODDONLY"> F  </i>
   <i type="logical" name="EVENONLY"> F  </i>
   <i type="int" name="LMAXFOCK">     0</i>
   <i type="int" name="NMAXFOCKAE">     0</i>
   <i type="logical" name="LFOCKAEDFT"> F  </i>
   <i name="HFSCREEN">      0.00000000</i>
   <i name="HFSCREENC">      0.00000000</i>
   <i type="int" name="NBANDSGWLOW">     0</i>
  </separator>
  <separator name="vdW DFT" >
   <i type="logical" name="LUSE_VDW"> F  </i>
   <i type="int" name="IVDW_NL">     1</i>
   <i type="logical" name="LSPIN_VDW"> F  </i>
   <i name="Zab_VDW">     -0.84910000</i>
   <i name="PARAM1">      0.12340000</i>
   <i name="PARAM2">      1.00000000</i>
   <i name="PARAM3">      0.00000000</i>
  </separator>
  <separator name="model GW" >
   <i type="int" name="MODEL_GW">     0</i>
   <i name="MODEL_EPS0">     44.78575751</i>
   <i name="MODEL_ALPHA">      1.00000000</i>
  </separator>
  <separator name="linear response parameters" >
   <i type="logical" name="LEPSILON"> F  </i>
   <i type="logical" name="LRPA"> F  </i>
   <i type="logical" name="LNABLA"> F  </i>
   <i type="logical" name="LVEL"> F  </i>
   <i name="CSHIFT">      0.10000000</i>
   <i name="OMEGAMAX">     -1.00000000</i>
   <i name="DEG_THRESHOLD">      0.00200000</i>
   <i name="RTIME">     -0.10000000</i>
   <i name="WPLASMAI">      0.00000000</i>
   <v name="DFIELD">      0.00000000      0.00000000      0.00000000</v>
   <v name="WPLASMA">      0.00000000      0.00000000      0.00000000      0.00000000      0.00000000      0.00000000      0.00000000      0.00000000      0.00000000</v>
  </separator>
  <separator name="orbital magnetization" >
   <i type="logical" name="NUCIND"> F  </i>
   <v name="MAGPOS">      0.00000000      0.00000000      0.00000000</v>
   <i type="logical" name="LNICSALL"> T  </i>
   <i type="logical" name="ORBITALMAG"> F  </i>
   <i type="logical" name="LMAGBLOCH"> F  </i>
   <i type="logical" name="LCHIMAG"> F  </i>
   <i type="logical" name="LGAUGE"> T  </i>
   <i type="int" name="MAGATOM">     0</i>
   <v name="MAGDIPOL">      0.00000000      0.00000000      0.00000000</v>
   <v name="AVECCONST">      0.00000000      0.00000000      0.00000000</v>
  </separator>
  <separator name="response functions" >
   <i type="logical" name="LALL_IN_ONE"> F  </i>
   <i type="int" name="IALL_IN_ONE">    -1</i>
   <i type="int" name="NBANDS_WAVE">    -1</i>
   <i type="logical" name="LFINITE_TEMPERATURE"> F  </i>
   <i type="logical" name="LADDER"> F  </i>
   <i type="logical" name="LRPAFORCE"> F  </i>
   <i type="logical" name="LFXC"> F  </i>
   <i type="logical" name="LHARTREE"> T  </i>
   <i type="int" name="IBSE">     0</i>
   <v type="int" name="KPOINT">    -1     0     0     0</v>
   <i type="logical" name="LTCTC"> F  </i>
   <i type="logical" name="LTCTE"> F  </i>
   <i type="logical" name="LTETE"> F  </i>
   <i type="logical" name="LTRIPLET"> F  </i>
   <i type="logical" name="LFXCEPS"> F  </i>
   <i type="logical" name="LFXHEG"> F  </i>
   <i type="int" name="NATURALO">     2</i>
   <i type="logical" name="LHOLEGF"> F  </i>
   <i type="logical" name="L2ORDER"> F  </i>
   <i type="logical" name="LDMP1"> F  </i>
   <i type="logical" name="LMP2LT"> F  </i>
   <i type="logical" name="LSMP2LT"> F  </i>
   <i type="logical" name="LGWLF"> F  </i>
   <i name="ENCUTGW">     -1.60000002</i>
   <i name="ENCUTGWSOFT">     -1.60000002</i>
   <i name="ENCUTLF">     -1.00000000</i>
   <i type="logical" name="LESF_SPLINES"> F  </i>
   <i type="int" name="LMAXMP2">    -1</i>
   <i name="SCISSOR">      0.00000000</i>
   <i type="int" name="NOMEGA">     0</i>
   <i type="int" name="NOMEGAR">     0</i>
   <i type="int" name="NBANDSGW">    -1</i>
   <i type="int" name="NBANDSO">    -1</i>
   <i type="int" name="NBANDSV">    -1</i>
   <i type="int" name="NELMGW">     1</i>
   <i type="int" name="NELMHF">     1</i>
   <i type="int" name="DIM">     3</i>
   <i type="int" name="IESPILON">     4</i>
   <i type="int" name="ANTIRES">     0</i>
   <i name="OMEGAMAX">    -30.00000000</i>
   <i name="OMEGAMIN">    -30.00000000</i>
   <i name="OMEGATL">   -200.00000000</i>
   <i type="int" name="OMEGAGRID">     0</i>
   <i name="CSHIFT">     -0.10000000</i>
   <i type="logical" name="LSELFENERGY"> F  </i>
   <i type="logical" name="LSPECTRAL"> F  </i>
   <i type="logical" name="LSPECTRALGW"> F  </i>
   <i type="logical" name="LSINGLES"> F  </i>
   <i type="logical" name="LFERMIGW"> F  </i>
   <i type="logical" name="ODDONLYGW"> F  </i>
   <i type="logical" name="EVENONLYGW"> F  </i>
   <i type="int" name="NKREDLFX">     1</i>
   <i type="int" name="NKREDLFY">     1</i>
   <i type="int" name="NKREDLFZ">     1</i>
   <i type="int" name="MAXMEM">  2800</i>
   <i type="int" name="TELESCOPE">     0</i>
   <i type="int" name="NTAUPAR">    -1</i>
   <i type="int" name="NOMEGAPAR">    -1</i>
   <i name="DAMP_NEWTON">      0.80000001</i>
   <i name="LAMBDA">      1.00000000</i>
  </separator>
  <separator name="External order field" >
   <i name="OFIELD_KAPPA">      0.00000000</i>
   <v name="OFIELD_K">      0.00000000      0.00000000      0.00000000</v>
   <i name="OFIELD_Q6_NEAR">      0.00000000</i>
   <i name="OFIELD_Q6_FAR">      0.00000000</i>
   <i name="OFIELD_A">      0.00000000</i>
  </separator>
  <separator name="optional k-points parameters" >
   <i type="int" name="KPOINTS_OPT_MODE">     1</i>
   <i type="logical" name="LKPOINTS_OPT"> F  </i>
  </separator>
 </parameters>
 <atominfo>
  <atoms>       2 </atoms>
  <types>       1 </types>
  <array name="atoms" >
   <dimension dim="1">ion</dimension>
   <field type="string">element</field>
   <field type="int">atomtype</field>
   <set>
    <rc><c>P </c><c>   1</c></rc>
    <rc><c>P </c><c>   1</c></rc>
   </set>
  </array>
  <array name="atomtypes" >
   <dimension dim="1">type</dimension>
   <field type="int">atomspertype</field>
   <field type="string">element</field>
   <field>mass</field>
   <field>valence</field>
   <field type="string">pseudopotential</field>
   <set>
    <rc><c>   2</c><c>P </c><c>     30.97400000</c><c>      5.00000000</c><c>  PAW_PBE P_GW 19Mar2012                </c></rc>
   </set>
  </array>
 </atominfo>
 <structure name="initialpos" >
  <crystal>
   <varray name="basis" >
    <v>       3.28234349       0.00000000       0.00000000 </v>
    <v>      -1.64117175       2.84259285       0.00000000 </v>
    <v>       0.00000000       0.00000000      16.00000000 </v>
   </varray>
   <i name="volume">    149.28585836 </i>
   <varray name="rec_basis" >
    <v>       0.30466038       0.17589575       0.00000000 </v>
    <v>       0.00000000       0.35179150       0.00000000 </v>
    <v>       0.00000000       0.00000000       0.06250000 </v>
   </varray>
  </crystal>
  <varray name="positions" >
   <v>       0.66666667       0.33333333       0.46118284 </v>
   <v>       0.33333333       0.66666667       0.53881716 </v>
  </varray>
 </structure>
 <calculation>
  <scstep>
   <time name="dav">    1.10    1.10</time>
   <time name="total">    1.33    1.37</time>
   <energy>
    <i name="alphaZ">      3.71007814 </i>
    <i name="ewald">    534.42243236 </i>
    <i name="hartreedc">   -838.78022028 </i>
    <i name="XCdc">     -7.05571711 </i>
    <i name="pawpsdc">    350.86819597 </i>
    <i name="pawaedc">   -320.30649724 </i>
    <i name="eentropy">     -0.00006085 </i>
    <i name="bandstr">    -41.28772305 </i>
    <i name="atom">    352.07568098 </i>
    <i name="e_fr_energy">     33.64616892 </i>
    <i name="e_wo_entrp">     33.64622978 </i>
    <i name="e_0_energy">     33.64619935 </i>
   </energy>
  </scstep>
  <scstep>
   <time name="dav">    1.38    1.38</time>
   <time name="total">    1.39    1.39</time>
   <energy>
    <i name="e_fr_energy">     -7.57766420 </i>
    <i name="e_wo_entrp">     -7.57766420 </i>
    <i name="e_0_energy">     -7.57766420 </i>
   </energy>
  </scstep>
  <scstep>
   <time name="dav">    1.27    1.27</time>
   <time name="total">    1.27    1.27</time>
   <energy>
    <i name="e_fr_energy">    -10.58463488 </i>
    <i name="e_wo_entrp">    -10.58463488 </i>
    <i name="e_0_energy">    -10.58463488 </i>
   </energy>
  </scstep>
  <scstep>
   <time name="dav">    1.48    1.48</time>
   <time name="total">    1.48    1.48</time>
   <energy>
    <i name="e_fr_energy">    -10.72644396 </i>
    <i name="e_wo_entrp">    -10.72644396 </i>
    <i name="e_0_energy">    -10.72644396 </i>
   </energy>
  </scstep>
  <scstep>
   <time name="dav">    1.25    1.25</time>
   <time name="total">    1.25    1.25</time>
   <energy>
    <i name="e_fr_energy">    -10.72820555 </i>
    <i name="e_wo_entrp">    -10.72820555 </i>
    <i name="e_0_energy">    -10.72820555 </i>
   </energy>
  </scstep>
  <scstep>
   <time name="dav">    1.15    1.15</time>
   <time name="total">    1.15    1.15</time>
   <energy>
    <i name="e_fr_energy">    -10.72826981 </i>
    <i name="e_wo_entrp">    -10.72826981 </i>
    <i name="e_0_energy">    -10.72826981 </i>
   </energy>
  </scstep>
  <scstep>
   <time name="dav">    1.02    1.02</time>
   <time name="total">    1.03    1.03</time>
   <energy>
    <i name="e_fr_energy">    -10.72827110 </i>
    <i name="e_wo_entrp">    -10.72827110 </i>
    <i name="e_0_energy">    -10.72827110 </i>
   </energy>
  </scstep>
  <scstep>
   <time name="dav">    1.13    1.13</time>
   <time name="total">    1.13    1.13</time>
   <energy>
    <i name="e_fr_energy">    -10.72827113 </i>
    <i name="e_wo_entrp">    -10.72827113 </i>
    <i name="e_0_energy">    -10.72827113 </i>
   </energy>
  </scstep>
  <scstep>
   <time name="dav">    1.16    1.16</time>
   <time name="total">    1.16    1.16</time>
   <energy>
    <i name="e_fr_energy">    -10.72827114 </i>
    <i name="e_wo_entrp">    -10.72827114 </i>
    <i name="e_0_energy">    -10.72827114 </i>
   </energy>
  </scstep>
  <scstep>
   <time name="dav">    1.08    1.08</time>
   <time name="total">    1.09    1.09</time>
   <energy>
    <i name="e_fr_energy">    -10.72827114 </i>
    <i name="e_wo_entrp">    -10.72827114 </i>
    <i name="e_0_energy">    -10.72827114 </i>
   </energy>
  </scstep>
  <scstep>
   <time name="dav">    1.02    1.02</time>
   <time name="total">    1.02    1.03</time>
   <energy>
    <i name="e_fr_energy">    -10.72827114 </i>
    <i name="e_wo_entrp">    -10.72827114 </i>
    <i name="e_0_energy">    -10.72827114 </i>
   </energy>
  </scstep>
  <scstep>
   <time name="dav">    0.96    0.96</time>
   <time name="total">    0.97    0.97</time>
   <energy>
    <i name="e_fr_energy">    -10.72827114 </i>
    <i name="e_wo_entrp">    -10.72827114 </i>
    <i name="e_0_energy">    -10.72827114 </i>
   </energy>
  </scstep>
  <scstep>
   <time name="dav">    0.94    0.94</time>
   <time name="total">    0.94    0.94</time>
   <energy>
    <i name="alphaZ">      3.71007814 </i>
    <i name="ewald">    534.42243236 </i>
    <i name="hartreedc">   -838.78022028 </i>
    <i name="XCdc">     -7.05571711 </i>
    <i name="pawpsdc">    350.86819597 </i>
    <i name="pawaedc">   -320.30649724 </i>
    <i name="eentropy">     -0.00000000 </i>
    <i name="bandstr">    -85.66222397 </i>
    <i name="atom">    352.07568098 </i>
    <i name="e_fr_energy">    -10.72827114 </i>
    <i name="e_wo_entrp">    -10.72827114 </i>
    <i name="e_0_energy">    -10.72827114 </i>
   </energy>
  </scstep>
  <structure>
   <crystal>
    <varray name="basis" >
     <v>       3.28234349       0.00000000       0.00000000 </v>
     <v>      -1.64117175       2.84259285       0.00000000 </v>
     <v>       0.00000000       0.00000000      16.00000000 </v>
    </varray>
    <i name="volume">    149.28585836 </i>
    <varray name="rec_basis" >
     <v>       0.30466038       0.17589575       0.00000000 </v>
     <v>       0.00000000       0.35179150       0.00000000 </v>
     <v>       0.00000000       0.00000000       0.06250000 </v>
    </varray>
   </crystal>
   <varray name="positions" >
    <v>       0.66666667       0.33333333       0.46118284 </v>
    <v>       0.33333333       0.66666667       0.53881716 </v>
   </varray>
  </structure>
  <varray name="forces" >
   <v>       0.00000000       0.00000000       0.00000000 </v>
   <v>       0.00000000       0.00000000       0.00000000 </v>
  </varray>
  <varray name="stress" >
   <v>       0.00000000       0.00000000       0.00000000 </v>
   <v>       0.00000000       0.00000000       0.00000000 </v>
   <v>       0.00000000       0.00000000       0.00000000 </v>
  </varray>
  <energy>
   <i name="e_fr_energy">    -10.72827114 </i>
   <i name="e_wo_entrp">    -10.72827114 </i>
   <i name="e_0_energy">    -10.72827114 </i>
  </energy>
  <time name="totalsc">   15.22   15.50</time>
  <eigenvalues>
   <array>
    <dimension dim="1">band</dimension>
    <dimension dim="2">kpoint</dimension>
    <dimension dim="3">spin</dimension>
    <field>eigene</field>
    <field>occ</field>
    <set>
     <set comment="spin 1">
      <set comment="kpoint 1">
       <r>  -17.4728    1.0000 </r>
       <r>   -9.7587    1.0000 </r>
       <r>   -3.7662    1.0000 </r>
       <r>   -3.4964    1.0000 </r>
       <r>   -3.4963    1.0000 </r>
       <r>    0.3739    0.0000 </r>
       <r>    0.5274    0.0000 </r>
       <r>    0.5274    0.0000 </r>
       <r>    2.0246    0.0000 </r>
       <r>    2.4622    0.0000 </r>
       <r>    3.8142    0.0000 </r>
       <r>    4.4395    0.0000 </r>
       <r>    6.4785    0.0000 </r>
       <r>    6.4785    0.0000 </r>
       <r>    6.9163    0.0000 </r>
       <r>    7.5660    0.0000 </r>
      </set>
      <set comment="kpoint 2">
       <r>  -17.4706    1.0000 </r>
       <r>   -9.7571    1.0000 </r>
       <r>   -3.7648    1.0000 </r>
       <r>   -3.5183    1.0000 </r>
       <r>   -3.5018    1.0000 </r>
       <r>    0.3914    0.0000 </r>
       <r>    0.5245    0.0000 </r>
       <r>    0.5350    0.0000 </r>
       <r>    2.0274    0.0000 </r>
       <r>    2.4645    0.0000 </r>
       <r>    3.8160    0.0000 </r>
       <r>    4.4420    0.0000 </r>
       <r>    6.4481    0.0000 </r>
       <r>    6.4738    0.0000 </r>
       <r>    6.9308    0.0000 </r>
       <r>    7.5651    0.0000 </r>
      </set>
      <set comment="kpoint 3">
       <r>  -17.4639    1.0000 </r>
       <r>   -9.7526    1.0000 </r>
       <r>   -3.7608    1.0000 </r>
       <r>   -3.5826    1.0000 </r>
       <r>   -3.5183    1.0000 </r>
       <r>    0.4337    0.0000 </r>
       <r>    0.5156    0.0000 </r>
       <r>    0.5658    0.0000 </r>
       <r>    2.0358    0.0000 </r>
       <r>    2.4715    0.0000 </r>
       <r>    3.8213    0.0000 </r>
       <r>    4.4496    0.0000 </r>
       <r>    6.3673    0.0000 </r>
       <r>    6.4597    0.0000 </r>
       <r>    6.9657    0.0000 </r>
       <r>    7.5622    0.0000 </r>
      </set>
      <set comment="kpoint 4">
       <r>  -17.4527    1.0000 </r>
       <r>   -9.7450    1.0000 </r>
       <r>   -3.7542    1.0000 </r>
       <r>   -3.6848    1.0000 </r>
       <r>   -3.5457    1.0000 </r>
       <r>    0.4731    0.0000 </r>
       <r>    0.5013    0.0000 </r>
       <r>    0.6428    0.0000 </r>
       <r>    2.0497    0.0000 </r>
       <r>    2.4831    0.0000 </r>
       <r>    3.8300    0.0000 </r>
       <r>    4.4621    0.0000 </r>
       <r>    6.2542    0.0000 </r>
       <r>    6.4363    0.0000 </r>
       <r>    7.0084    0.0000 </r>
       <r>    7.5569    0.0000 </r>
      </set>
      <set comment="kpoint 5">
       <r>  -17.4371    1.0000 </r>
       <r>   -9.7345    1.0000 </r>
       <r>   -3.8185    1.0000 </r>
       <r>   -3.7449    1.0000 </r>
       <r>   -3.5838    1.0000 </r>
       <r>    0.4825    0.0000 </r>
       <r>    0.4990    0.0000 </r>
       <r>    0.7701    0.0000 </r>
       <r>    2.0694    0.0000 </r>
       <r>    2.4992    0.0000 </r>
       <r>    3.8418    0.0000 </r>
       <r>    4.4796    0.0000 </r>
       <r>    6.1218    0.0000 </r>
       <r>    6.4037    0.0000 </r>
       <r>    7.0533    0.0000 </r>
       <r>    7.5486    0.0000 </r>
      </set>
      <set comment="kpoint 6">
       <r>  -17.4170    1.0000 </r>
       <r>   -9.7211    1.0000 </r>
       <r>   -3.9776    1.0000 </r>
       <r>   -3.7332    1.0000 </r>
       <r>   -3.6327    1.0000 </r>
       <r>    0.4599    0.0000 </r>
       <r>    0.5199    0.0000 </r>
       <r>    0.9315    0.0000 </r>
       <r>    2.0950    0.0000 </r>
       <r>    2.5198    0.0000 </r>
       <r>    3.8566    0.0000 </r>
       <r>    4.5022    0.0000 </r>
       <r>    5.9778    0.0000 </r>
       <r>    6.3622    0.0000 </r>
       <r>    7.0988    0.0000 </r>
       <r>    7.5365    0.0000 </r>
      </set>
      <set comment="kpoint 7">
       <r>  -17.3924    1.0000 </r>
       <r>   -9.7051    1.0000 </r>
       <r>   -4.1561    1.0000 </r>
       <r>   -3.7193    1.0000 </r>
       <r>   -3.6920    1.0000 </r>
       <r>    0.4342    0.0000 </r>
       <r>    0.5408    0.0000 </r>
       <r>    1.1144    0.0000 </r>
       <r>    2.1269    0.0000 </r>
       <r>    2.5448    0.0000 </r>
       <r>    3.8736    0.0000 </r>
       <r>    4.5297    0.0000 </r>
       <r>    5.8278    0.0000 </r>
       <r>    6.3126    0.0000 </r>
       <r>    7.1449    0.0000 </r>
       <r>    7.5200    0.0000 </r>
      </set>
      <set comment="kpoint 8">
       <r>  -17.3634    1.0000 </r>
       <r>   -9.6865    1.0000 </r>
       <r>   -4.3488    1.0000 </r>
       <r>   -3.7623    1.0000 </r>
       <r>   -3.7022    1.0000 </r>
       <r>    0.4068    0.0000 </r>
       <r>    0.5635    0.0000 </r>
       <r>    1.3101    0.0000 </r>
       <r>    2.1656    0.0000 </r>
       <r>    2.5740    0.0000 </r>
       <r>    3.8923    0.0000 </r>
       <r>    4.5622    0.0000 </r>
       <r>    5.6767    0.0000 </r>
       <r>    6.2568    0.0000 </r>
       <r>    7.1921    0.0000 </r>
       <r>    7.4991    0.0000 </r>
      </set>
      <set comment="kpoint 9">
       <r>  -17.3300    1.0000 </r>
       <r>   -9.6656    1.0000 </r>
       <r>   -4.5520    1.0000 </r>
       <r>   -3.8425    1.0000 </r>
       <r>   -3.6837    1.0000 </r>
       <r>    0.3780    0.0000 </r>
       <r>    0.5880    0.0000 </r>
       <r>    1.5103    0.0000 </r>
       <r>    2.2120    0.0000 </r>
       <r>    2.6073    0.0000 </r>
       <r>    3.9117    0.0000 </r>
       <r>    4.5997    0.0000 </r>
       <r>    5.5279    0.0000 </r>
       <r>    6.1974    0.0000 </r>
       <r>    7.2406    0.0000 </r>
       <r>    7.4737    0.0000 </r>
      </set>
      <set comment="kpoint 10">
       <r>  -17.2922    1.0000 </r>
       <r>   -9.6426    1.0000 </r>
       <r>   -4.7616    1.0000 </r>
       <r>   -3.9323    1.0000 </r>
       <r>   -3.6631    1.0000 </r>
       <r>    0.3490    0.0000 </r>
       <r>    0.6150    0.0000 </r>
       <r>    1.7073    0.0000 </r>
       <r>    2.2678    0.0000 </r>
       <r>    2.6445    0.0000 </r>
       <r>    3.9305    0.0000 </r>
       <r>    4.6422    0.0000 </r>
       <r>    5.3855    0.0000 </r>
       <r>    6.1385    0.0000 </r>
       <r>    7.2908    0.0000 </r>
       <r>    7.4448    0.0000 </r>
      </set>
      <set comment="kpoint 11">
       <r>  -17.2500    1.0000 </r>
       <r>   -9.6179    1.0000 </r>
       <r>   -4.9748    1.0000 </r>
       <r>   -4.0313    1.0000 </r>
       <r>   -3.6407    1.0000 </r>
       <r>    0.3207    0.0000 </r>
       <r>    0.6442    0.0000 </r>
       <r>    1.8921    0.0000 </r>
       <r>    2.3355    0.0000 </r>
       <r>    2.6852    0.0000 </r>
       <r>    3.9469    0.0000 </r>
       <r>    4.6895    0.0000 </r>
       <r>    5.2536    0.0000 </r>
       <r>    6.0852    0.0000 </r>
       <r>    7.3428    0.0000 </r>
       <r>    7.4133    0.0000 </r>
      </set>
      <set comment="kpoint 12">
       <r>  -17.2034    1.0000 </r>
       <r>   -9.5920    1.0000 </r>
       <r>   -5.1895    1.0000 </r>
       <r>   -4.1392    1.0000 </r>
       <r>   -3.6168    1.0000 </r>
       <r>    0.2935    0.0000 </r>
       <r>    0.6753    0.0000 </r>
       <r>    2.0552    0.0000 </r>
       <r>    2.4184    0.0000 </r>
       <r>    2.7292    0.0000 </r>
       <r>    3.9585    0.0000 </r>
       <r>    4.7418    0.0000 </r>
       <r>    5.1368    0.0000 </r>
       <r>    6.0440    0.0000 </r>
       <r>    7.3801    0.0000 </r>
       <r>    7.3967    0.0000 </r>
      </set>
      <set comment="kpoint 13">
       <r>  -17.1525    1.0000 </r>
       <r>   -9.5653    1.0000 </r>
       <r>   -5.4035    1.0000 </r>
       <r>   -4.2550    1.0000 </r>
       <r>   -3.5918    1.0000 </r>
       <r>    0.2678    0.0000 </r>
       <r>    0.7083    0.0000 </r>
       <r>    2.1901    0.0000 </r>
       <r>    2.5155    0.0000 </r>
       <r>    2.7757    0.0000 </r>
       <r>    3.9627    0.0000 </r>
       <r>    4.7989    0.0000 </r>
       <r>    5.0396    0.0000 </r>
       <r>    6.0210    0.0000 </r>
       <r>    7.3457    0.0000 </r>
       <r>    7.4525    0.0000 </r>
      </set>
      <set comment="kpoint 14">
       <r>  -17.0972    1.0000 </r>
       <r>   -9.5386    1.0000 </r>
       <r>   -5.6150    1.0000 </r>
       <r>   -4.3783    1.0000 </r>
       <r>   -3.5657    1.0000 </r>
       <r>    0.2438    0.0000 </r>
       <r>    0.7426    0.0000 </r>
       <r>    2.2995    0.0000 </r>
       <r>    2.6180    0.0000 </r>
       <r>    2.8242    0.0000 </r>
       <r>    3.9572    0.0000 </r>
       <r>    4.8608    0.0000 </r>
       <r>    4.9664    0.0000 </r>
       <r>    6.0230    0.0000 </r>
       <r>    7.3118    0.0000 </r>
       <r>    7.5102    0.0000 </r>
      </set>
      <set comment="kpoint 15">
       <r>  -17.0376    1.0000 </r>
       <r>   -9.5125    1.0000 </r>
       <r>   -5.8221    1.0000 </r>
       <r>   -4.5083    1.0000 </r>
       <r>   -3.5392    1.0000 </r>
       <r>    0.2217    0.0000 </r>
       <r>    0.7777    0.0000 </r>
       <r>    2.3924    0.0000 </r>
       <r>    2.7113    0.0000 </r>
       <r>    2.8736    0.0000 </r>
       <r>    3.9415    0.0000 </r>
       <r>    4.9203    0.0000 </r>
       <r>    4.9273    0.0000 </r>
       <r>    6.0553    0.0000 </r>
       <r>    7.2794    0.0000 </r>
       <r>    7.5694    0.0000 </r>
      </set>
      <set comment="kpoint 16">
       <r>  -16.9736    1.0000 </r>
       <r>   -9.4883    1.0000 </r>
       <r>   -6.0232    1.0000 </r>
       <r>   -4.6441    1.0000 </r>
       <r>   -3.5126    1.0000 </r>
       <r>    0.2014    0.0000 </r>
       <r>    0.8130    0.0000 </r>
       <r>    2.4758    0.0000 </r>
       <r>    2.7848    0.0000 </r>
       <r>    2.9224    0.0000 </r>
       <r>    3.9176    0.0000 </r>
       <r>    4.9017    0.0000 </r>
       <r>    4.9984    0.0000 </r>
       <r>    6.1191    0.0000 </r>
       <r>    7.2514    0.0000 </r>
       <r>    7.6299    0.0000 </r>
      </set>
      <set comment="kpoint 17">
       <r>  -16.9055    1.0000 </r>
       <r>   -9.4672    1.0000 </r>
       <r>   -6.2162    1.0000 </r>
       <r>   -4.7853    1.0000 </r>
       <r>   -3.4863    1.0000 </r>
       <r>    0.1831    0.0000 </r>
       <r>    0.8475    0.0000 </r>
       <r>    2.5519    0.0000 </r>
       <r>    2.8359    0.0000 </r>
       <r>    2.9688    0.0000 </r>
       <r>    3.8908    0.0000 </r>
       <r>    4.9083    0.0000 </r>
       <r>    5.0738    0.0000 </r>
       <r>    6.2107    0.0000 </r>
       <r>    7.2331    0.0000 </r>
       <r>    7.6911    0.0000 </r>
      </set>
      <set comment="kpoint 18">
       <r>  -16.8331    1.0000 </r>
       <r>   -9.4506    1.0000 </r>
       <r>   -6.3993    1.0000 </r>
       <r>   -4.9310    1.0000 </r>
       <r>   -3.4610    1.0000 </r>
       <r>    0.1666    0.0000 </r>
       <r>    0.8802    0.0000 </r>
       <r>    2.6167    0.0000 </r>
       <r>    2.8712    0.0000 </r>
       <r>    3.0107    0.0000 </r>
       <r>    3.8680    0.0000 </r>
       <r>    4.9363    0.0000 </r>
       <r>    5.1534    0.0000 </r>
       <r>    6.3178    0.0000 </r>
       <r>    7.2349    0.0000 </r>
       <r>    7.7521    0.0000 </r>
      </set>
      <set comment="kpoint 19">
       <r>  -16.7565    1.0000 </r>
       <r>   -9.4407    1.0000 </r>
       <r>   -6.5703    1.0000 </r>
       <r>   -5.0805    1.0000 </r>
       <r>   -3.4373    1.0000 </r>
       <r>    0.1518    0.0000 </r>
       <r>    0.9098    0.0000 </r>
       <r>    2.6582    0.0000 </r>
       <r>    2.9081    0.0000 </r>
       <r>    3.0454    0.0000 </r>
       <r>    3.8562    0.0000 </r>
       <r>    4.9816    0.0000 </r>
       <r>    5.2368    0.0000 </r>
       <r>    6.4175    0.0000 </r>
       <r>    7.2750    0.0000 </r>
       <r>    7.8118    0.0000 </r>
      </set>
      <set comment="kpoint 20">
       <r>  -16.6758    1.0000 </r>
       <r>   -9.4394    1.0000 </r>
       <r>   -6.7265    1.0000 </r>
       <r>   -5.2331    1.0000 </r>
       <r>   -3.4158    1.0000 </r>
       <r>    0.1390    0.0000 </r>
       <r>    0.9343    0.0000 </r>
       <r>    2.6651    0.0000 </r>
       <r>    2.9649    0.0000 </r>
       <r>    3.0717    0.0000 </r>
       <r>    3.8614    0.0000 </r>
       <r>    5.0409    0.0000 </r>
       <r>    5.3236    0.0000 </r>
       <r>    6.4844    0.0000 </r>
       <r>    7.3745    0.0000 </r>
       <r>    7.8687    0.0000 </r>
      </set>
      <set comment="kpoint 21">
       <r>  -16.5910    1.0000 </r>
       <r>   -9.4492    1.0000 </r>
       <r>   -6.8651    1.0000 </r>
       <r>   -5.3881    1.0000 </r>
       <r>   -3.3972    1.0000 </r>
       <r>    0.1286    0.0000 </r>
       <r>    0.9518    0.0000 </r>
       <r>    2.6430    0.0000 </r>
       <r>    3.0435    0.0000 </r>
       <r>    3.0898    0.0000 </r>
       <r>    3.8867    0.0000 </r>
       <r>    5.1116    0.0000 </r>
       <r>    5.4131    0.0000 </r>
       <r>    6.5067    0.0000 </r>
       <r>    7.5417    0.0000 </r>
       <r>    7.9207    0.0000 </r>
      </set>
      <set comment="kpoint 22">
       <r>  -16.5022    1.0000 </r>
       <r>   -9.4726    1.0000 </r>
       <r>   -6.9839    1.0000 </r>
       <r>   -5.5448    1.0000 </r>
       <r>   -3.3822    1.0000 </r>
       <r>    0.1204    0.0000 </r>
       <r>    0.9597    0.0000 </r>
       <r>    2.6060    0.0000 </r>
       <r>    3.1015    0.0000 </r>
       <r>    3.1368    0.0000 </r>
       <r>    3.9319    0.0000 </r>
       <r>    5.1916    0.0000 </r>
       <r>    5.5040    0.0000 </r>
       <r>    6.4913    0.0000 </r>
       <r>    7.7642    0.0000 </r>
       <r>    7.9651    0.0000 </r>
      </set>
      <set comment="kpoint 23">
       <r>  -16.4093    1.0000 </r>
       <r>   -9.5116    1.0000 </r>
       <r>   -7.0803    1.0000 </r>
       <r>   -5.7028    1.0000 </r>
       <r>   -3.3717    1.0000 </r>
       <r>    0.1152    0.0000 </r>
       <r>    0.9556    0.0000 </r>
       <r>    2.5654    0.0000 </r>
       <r>    3.1106    0.0000 </r>
       <r>    3.2399    0.0000 </r>
       <r>    3.9951    0.0000 </r>
       <r>    5.2795    0.0000 </r>
       <r>    5.5937    0.0000 </r>
       <r>    6.4542    0.0000 </r>
       <r>    7.9988    0.0000 </r>
       <r>    8.0244    0.0000 </r>
      </set>
      <set comment="kpoint 24">
       <r>  -16.3126    1.0000 </r>
       <r>   -9.5678    1.0000 </r>
       <r>   -7.1530    1.0000 </r>
       <r>   -5.8613    1.0000 </r>
       <r>   -3.3664    1.0000 </r>
       <r>    0.1138    0.0000 </r>
       <r>    0.9369    0.0000 </r>
       <r>    2.5296    0.0000 </r>
       <r>    3.1207    0.0000 </r>
       <r>    3.3503    0.0000 </r>
       <r>    4.0736    0.0000 </r>
       <r>    5.3742    0.0000 </r>
       <r>    5.6777    0.0000 </r>
       <r>    6.4100    0.0000 </r>
       <r>    8.0184    0.0000 </r>
       <r>    8.3094    0.0000 </r>
      </set>
      <set comment="kpoint 25">
       <r>  -16.2119    1.0000 </r>
       <r>   -9.6415    1.0000 </r>
       <r>   -7.2012    1.0000 </r>
       <r>   -6.0199    1.0000 </r>
       <r>   -3.3669    1.0000 </r>
       <r>    0.1167    0.0000 </r>
       <r>    0.9020    0.0000 </r>
       <r>    2.5035    0.0000 </r>
       <r>    3.1351    0.0000 </r>
       <r>    3.4670    0.0000 </r>
       <r>    4.1648    0.0000 </r>
       <r>    5.4748    0.0000 </r>
       <r>    5.7475    0.0000 </r>
       <r>    6.3736    0.0000 </r>
       <r>    8.0211    0.0000 </r>
       <r>    8.6074    0.0000 </r>
      </set>
      <set comment="kpoint 26">
       <r>  -16.1076    1.0000 </r>
       <r>   -9.7323    1.0000 </r>
       <r>   -7.2258    1.0000 </r>
       <r>   -6.1781    1.0000 </r>
       <r>   -3.3742    1.0000 </r>
       <r>    0.1249    0.0000 </r>
       <r>    0.8502    0.0000 </r>
       <r>    2.4900    0.0000 </r>
       <r>    3.1559    0.0000 </r>
       <r>    3.5895    0.0000 </r>
       <r>    4.2664    0.0000 </r>
       <r>    5.5802    0.0000 </r>
       <r>    5.7890    0.0000 </r>
       <r>    6.3627    0.0000 </r>
       <r>    8.0051    0.0000 </r>
       <r>    8.9107    0.0000 </r>
      </set>
      <set comment="kpoint 27">
       <r>  -15.9995    1.0000 </r>
       <r>   -9.8383    1.0000 </r>
       <r>   -7.2281    1.0000 </r>
       <r>   -6.3353    1.0000 </r>
       <r>   -3.3886    1.0000 </r>
       <r>    0.1394    0.0000 </r>
       <r>    0.7823    0.0000 </r>
       <r>    2.4903    0.0000 </r>
       <r>    3.1849    0.0000 </r>
       <r>    3.7173    0.0000 </r>
       <r>    4.3769    0.0000 </r>
       <r>    5.6898    0.0000 </r>
       <r>    5.7903    0.0000 </r>
       <r>    6.3929    0.0000 </r>
       <r>    7.9709    0.0000 </r>
       <r>    9.2111    0.0000 </r>
      </set>
      <set comment="kpoint 28">
       <r>  -15.8878    1.0000 </r>
       <r>   -9.9574    1.0000 </r>
       <r>   -7.2104    1.0000 </r>
       <r>   -6.4911    1.0000 </r>
       <r>   -3.4104    1.0000 </r>
       <r>    0.1607    0.0000 </r>
       <r>    0.6999    0.0000 </r>
       <r>    2.5034    0.0000 </r>
       <r>    3.2229    0.0000 </r>
       <r>    3.8503    0.0000 </r>
       <r>    4.4949    0.0000 </r>
       <r>    5.7536    0.0000 </r>
       <r>    5.8026    0.0000 </r>
       <r>    6.4641    0.0000 </r>
       <r>    7.9210    0.0000 </r>
       <r>    9.4930    0.0000 </r>
      </set>
      <set comment="kpoint 29">
       <r>  -15.7726    1.0000 </r>
       <r>  -10.0873    1.0000 </r>
       <r>   -7.1753    1.0000 </r>
       <r>   -6.6452    1.0000 </r>
       <r>   -3.4401    1.0000 </r>
       <r>    0.1896    0.0000 </r>
       <r>    0.6054    0.0000 </r>
       <r>    2.5273    0.0000 </r>
       <r>    3.2699    0.0000 </r>
       <r>    3.9883    0.0000 </r>
       <r>    4.6196    0.0000 </r>
       <r>    5.6921    0.0000 </r>
       <r>    5.9173    0.0000 </r>
       <r>    6.5650    0.0000 </r>
       <r>    7.8590    0.0000 </r>
       <r>    9.5648    0.0000 </r>
      </set>
      <set comment="kpoint 30">
       <r>  -15.6541    1.0000 </r>
       <r>  -10.2255    1.0000 </r>
       <r>   -7.1250    1.0000 </r>
       <r>   -6.7970    1.0000 </r>
       <r>   -3.4776    1.0000 </r>
       <r>    0.2268    0.0000 </r>
       <r>    0.5017    0.0000 </r>
       <r>    2.5598    0.0000 </r>
       <r>    3.3264    0.0000 </r>
       <r>    4.1311    0.0000 </r>
       <r>    4.7500    0.0000 </r>
       <r>    5.6188    0.0000 </r>
       <r>    6.0323    0.0000 </r>
       <r>    6.6850    0.0000 </r>
       <r>    7.7903    0.0000 </r>
       <r>    9.6477    0.0000 </r>
      </set>
      <set comment="kpoint 31">
       <r>  -15.5324    1.0000 </r>
       <r>  -10.3698    1.0000 </r>
       <r>   -7.0619    1.0000 </r>
       <r>   -6.9462    1.0000 </r>
       <r>   -3.5228    1.0000 </r>
       <r>    0.2727    0.0000 </r>
       <r>    0.3910    0.0000 </r>
       <r>    2.5979    0.0000 </r>
       <r>    3.3923    0.0000 </r>
       <r>    4.2786    0.0000 </r>
       <r>    4.8852    0.0000 </r>
       <r>    5.5419    0.0000 </r>
       <r>    6.1453    0.0000 </r>
       <r>    6.8181    0.0000 </r>
       <r>    7.7205    0.0000 </r>
       <r>    9.7388    0.0000 </r>
      </set>
      <set comment="kpoint 32">
       <r>  -15.4075    1.0000 </r>
       <r>  -10.5184    1.0000 </r>
       <r>   -7.0925    1.0000 </r>
       <r>   -6.9880    1.0000 </r>
       <r>   -3.5754    1.0000 </r>
       <r>    0.2758    0.0000 </r>
       <r>    0.3272    0.0000 </r>
       <r>    2.6390    0.0000 </r>
       <r>    3.4672    0.0000 </r>
       <r>    4.4304    0.0000 </r>
       <r>    5.0245    0.0000 </r>
       <r>    5.4670    0.0000 </r>
       <r>    6.2529    0.0000 </r>
       <r>    6.9609    0.0000 </r>
       <r>    7.6561    0.0000 </r>
       <r>    9.8338    0.0000 </r>
      </set>
      <set comment="kpoint 33">
       <r>  -15.2798    1.0000 </r>
       <r>  -10.6698    1.0000 </r>
       <r>   -7.2353    1.0000 </r>
       <r>   -6.9049    1.0000 </r>
       <r>   -3.6349    1.0000 </r>
       <r>    0.1579    0.0000 </r>
       <r>    0.3903    0.0000 </r>
       <r>    2.6800    0.0000 </r>
       <r>    3.5499    0.0000 </r>
       <r>    4.5860    0.0000 </r>
       <r>    5.1664    0.0000 </r>
       <r>    5.3983    0.0000 </r>
       <r>    6.3506    0.0000 </r>
       <r>    7.1115    0.0000 </r>
       <r>    7.6053    0.0000 </r>
       <r>    9.9278    0.0000 </r>
      </set>
      <set comment="kpoint 34">
       <r>  -15.1494    1.0000 </r>
       <r>  -10.8227    1.0000 </r>
       <r>   -7.3744    1.0000 </r>
       <r>   -6.8141    1.0000 </r>
       <r>   -3.7007    1.0000 </r>
       <r>    0.0391    0.0000 </r>
       <r>    0.4622    0.0000 </r>
       <r>    2.7185    0.0000 </r>
       <r>    3.6408    0.0000 </r>
       <r>    4.7440    0.0000 </r>
       <r>    5.3095    0.0000 </r>
       <r>    5.3409    0.0000 </r>
       <r>    6.4329    0.0000 </r>
       <r>    7.2690    0.0000 </r>
       <r>    7.5772    0.0000 </r>
       <r>   10.0134    0.0000 </r>
      </set>
      <set comment="kpoint 35">
       <r>  -15.0165    1.0000 </r>
       <r>  -10.9760    1.0000 </r>
       <r>   -7.5094    1.0000 </r>
       <r>   -6.7167    1.0000 </r>
       <r>   -3.7722    1.0000 </r>
       <r>   -0.0795    0.0000 </r>
       <r>    0.5423    0.0000 </r>
       <r>    2.7514    0.0000 </r>
       <r>    3.7386    0.0000 </r>
       <r>    4.9004    0.0000 </r>
       <r>    5.3011    0.0000 </r>
       <r>    5.4509    0.0000 </r>
       <r>    6.4951    0.0000 </r>
       <r>    7.4326    0.0000 </r>
       <r>    7.5803    0.0000 </r>
       <r>   10.0797    0.0000 </r>
      </set>
      <set comment="kpoint 36">
       <r>  -14.8813    1.0000 </r>
       <r>  -11.1290    1.0000 </r>
       <r>   -7.6397    1.0000 </r>
       <r>   -6.6138    1.0000 </r>
       <r>   -3.8487    1.0000 </r>
       <r>   -0.1963    0.0000 </r>
       <r>    0.6301    0.0000 </r>
       <r>    2.7770    0.0000 </r>
       <r>    3.8436    0.0000 </r>
       <r>    5.0415    0.0000 </r>
       <r>    5.2959    0.0000 </r>
       <r>    5.5863    0.0000 </r>
       <r>    6.5379    0.0000 </r>
       <r>    7.6020    0.0000 </r>
       <r>    7.6202    0.0000 </r>
       <r>   10.0636    0.0000 </r>
      </set>
      <set comment="kpoint 37">
       <r>  -14.7442    1.0000 </r>
       <r>  -11.2809    1.0000 </r>
       <r>   -7.7652    1.0000 </r>
       <r>   -6.5065    1.0000 </r>
       <r>   -3.9295    1.0000 </r>
       <r>   -0.3106    0.0000 </r>
       <r>    0.7252    0.0000 </r>
       <r>    2.7925    0.0000 </r>
       <r>    3.9539    0.0000 </r>
       <r>    5.1279    0.0000 </r>
       <r>    5.3663    0.0000 </r>
       <r>    5.7083    0.0000 </r>
       <r>    6.5702    0.0000 </r>
       <r>    7.6958    0.0000 </r>
       <r>    7.7767    0.0000 </r>
       <r>    9.8782    0.0000 </r>
      </set>
      <set comment="kpoint 38">
       <r>  -14.6054    1.0000 </r>
       <r>  -11.4312    1.0000 </r>
       <r>   -7.8854    1.0000 </r>
       <r>   -6.3956    1.0000 </r>
       <r>   -4.0138    1.0000 </r>
       <r>   -0.4214    0.0000 </r>
       <r>    0.8268    0.0000 </r>
       <r>    2.7965    0.0000 </r>
       <r>    4.0686    0.0000 </r>
       <r>    5.1617    0.0000 </r>
       <r>    5.5118    0.0000 </r>
       <r>    5.8065    0.0000 </r>
       <r>    6.6097    0.0000 </r>
       <r>    7.8013    0.0000 </r>
       <r>    7.9565    0.0000 </r>
       <r>    9.6971    0.0000 </r>
      </set>
      <set comment="kpoint 39">
       <r>  -14.4653    1.0000 </r>
       <r>  -11.5796    1.0000 </r>
       <r>   -7.9997    1.0000 </r>
       <r>   -6.2819    1.0000 </r>
       <r>   -4.1009    1.0000 </r>
       <r>   -0.5277    0.0000 </r>
       <r>    0.9343    0.0000 </r>
       <r>    2.7881    0.0000 </r>
       <r>    4.1863    0.0000 </r>
       <r>    5.1898    0.0000 </r>
       <r>    5.6863    0.0000 </r>
       <r>    5.8703    0.0000 </r>
       <r>    6.6756    0.0000 </r>
       <r>    7.9288    0.0000 </r>
       <r>    8.1409    0.0000 </r>
       <r>    9.5175    0.0000 </r>
      </set>
      <set comment="kpoint 40">
       <r>  -14.3244    1.0000 </r>
       <r>  -11.7255    1.0000 </r>
       <r>   -8.1079    1.0000 </r>
       <r>   -6.1663    1.0000 </r>
       <r>   -4.1904    1.0000 </r>
       <r>   -0.6291    0.0000 </r>
       <r>    1.0469    0.0000 </r>
       <r>    2.7673    0.0000 </r>
       <r>    4.3056    0.0000 </r>
       <r>    5.2292    0.0000 </r>
       <r>    5.8729    0.0000 </r>
       <r>    5.8975    0.0000 </r>
       <r>    6.7778    0.0000 </r>
       <r>    8.0702    0.0000 </r>
       <r>    8.3294    0.0000 </r>
       <r>    9.3373    0.0000 </r>
      </set>
      <set comment="kpoint 41">
       <r>  -14.1830    1.0000 </r>
       <r>  -11.8687    1.0000 </r>
       <r>   -8.2090    1.0000 </r>
       <r>   -6.0494    1.0000 </r>
       <r>   -4.2813    1.0000 </r>
       <r>   -0.7243    0.0000 </r>
       <r>    1.1637    0.0000 </r>
       <r>    2.7350    0.0000 </r>
       <r>    4.4242    0.0000 </r>
       <r>    5.2839    0.0000 </r>
       <r>    5.8979    0.0000 </r>
       <r>    6.0670    0.0000 </r>
       <r>    6.9138    0.0000 </r>
       <r>    8.2170    0.0000 </r>
       <r>    8.5209    0.0000 </r>
       <r>    9.1535    0.0000 </r>
      </set>
      <set comment="kpoint 42">
       <r>  -14.0419    1.0000 </r>
       <r>  -12.0090    1.0000 </r>
       <r>   -8.3028    1.0000 </r>
       <r>   -5.9321    1.0000 </r>
       <r>   -4.3732    1.0000 </r>
       <r>   -0.8129    0.0000 </r>
       <r>    1.2836    0.0000 </r>
       <r>    2.6922    0.0000 </r>
       <r>    4.5393    0.0000 </r>
       <r>    5.3542    0.0000 </r>
       <r>    5.8867    0.0000 </r>
       <r>    6.2670    0.0000 </r>
       <r>    7.0748    0.0000 </r>
       <r>    8.3525    0.0000 </r>
       <r>    8.7115    0.0000 </r>
       <r>    8.9643    0.0000 </r>
      </set>
      <set comment="kpoint 43">
       <r>  -13.9015    1.0000 </r>
       <r>  -12.1461    1.0000 </r>
       <r>   -8.3885    1.0000 </r>
       <r>   -5.8154    1.0000 </r>
       <r>   -4.4655    1.0000 </r>
       <r>   -0.8940    0.0000 </r>
       <r>    1.4052    0.0000 </r>
       <r>    2.6404    0.0000 </r>
       <r>    4.6453    0.0000 </r>
       <r>    5.4385    0.0000 </r>
       <r>    5.8776    0.0000 </r>
       <r>    6.4722    0.0000 </r>
       <r>    7.2527    0.0000 </r>
       <r>    8.4226    0.0000 </r>
       <r>    8.7917    0.0000 </r>
       <r>    8.8813    0.0000 </r>
      </set>
      <set comment="kpoint 44">
       <r>  -13.7624    1.0000 </r>
       <r>  -12.2798    1.0000 </r>
       <r>   -8.4655    1.0000 </r>
       <r>   -5.7001    1.0000 </r>
       <r>   -4.5579    1.0000 </r>
       <r>   -0.9668    0.0000 </r>
       <r>    1.5274    0.0000 </r>
       <r>    2.5814    0.0000 </r>
       <r>    4.7376    0.0000 </r>
       <r>    5.5355    0.0000 </r>
       <r>    5.8829    0.0000 </r>
       <r>    6.6822    0.0000 </r>
       <r>    7.4408    0.0000 </r>
       <r>    8.3071    0.0000 </r>
       <r>    8.6965    0.0000 </r>
       <r>    8.9159    0.0000 </r>
      </set>
      <set comment="kpoint 45">
       <r>  -13.6256    1.0000 </r>
       <r>  -12.4100    1.0000 </r>
       <r>   -8.5330    1.0000 </r>
       <r>   -5.5870    1.0000 </r>
       <r>   -4.6498    1.0000 </r>
       <r>   -1.0306    0.0000 </r>
       <r>    1.6485    0.0000 </r>
       <r>    2.5168    0.0000 </r>
       <r>    4.8109    0.0000 </r>
       <r>    5.6436    0.0000 </r>
       <r>    5.9122    0.0000 </r>
       <r>    6.8964    0.0000 </r>
       <r>    7.6263    0.0000 </r>
       <r>    8.0651    0.0000 </r>
       <r>    8.5994    0.0000 </r>
       <r>    8.8140    0.0000 </r>
      </set>
      <set comment="kpoint 46">
       <r>  -13.4917    1.0000 </r>
       <r>  -12.5365    1.0000 </r>
       <r>   -8.5902    1.0000 </r>
       <r>   -5.4773    1.0000 </r>
       <r>   -4.7409    1.0000 </r>
       <r>   -1.0844    0.0000 </r>
       <r>    1.7668    0.0000 </r>
       <r>    2.4483    0.0000 </r>
       <r>    4.8623    0.0000 </r>
       <r>    5.7611    0.0000 </r>
       <r>    5.9712    0.0000 </r>
       <r>    7.1143    0.0000 </r>
       <r>    7.6655    0.0000 </r>
       <r>    7.9314    0.0000 </r>
       <r>    8.4764    0.0000 </r>
       <r>    8.6904    0.0000 </r>
      </set>
      <set comment="kpoint 47">
       <r>  -13.3616    1.0000 </r>
       <r>  -12.6593    1.0000 </r>
       <r>   -8.6363    1.0000 </r>
       <r>   -5.3716    1.0000 </r>
       <r>   -4.8308    1.0000 </r>
       <r>   -1.1275    0.0000 </r>
       <r>    1.8800    0.0000 </r>
       <r>    2.3772    0.0000 </r>
       <r>    4.8932    0.0000 </r>
       <r>    5.8864    0.0000 </r>
       <r>    6.0600    0.0000 </r>
       <r>    7.3349    0.0000 </r>
       <r>    7.3924    0.0000 </r>
       <r>    8.0905    0.0000 </r>
       <r>    8.3573    0.0000 </r>
       <r>    8.5663    0.0000 </r>
      </set>
      <set comment="kpoint 48">
       <r>  -13.2364    1.0000 </r>
       <r>  -12.7783    1.0000 </r>
       <r>   -8.6702    1.0000 </r>
       <r>   -5.2713    1.0000 </r>
       <r>   -4.9191    1.0000 </r>
       <r>   -1.1590    0.0000 </r>
       <r>    1.9853    0.0000 </r>
       <r>    2.3048    0.0000 </r>
       <r>    4.9087    0.0000 </r>
       <r>    6.0177    0.0000 </r>
       <r>    6.1720    0.0000 </r>
       <r>    7.0818    0.0000 </r>
       <r>    7.5558    0.0000 </r>
       <r>    8.1646    0.0000 </r>
       <r>    8.3668    0.0000 </r>
       <r>    8.4478    0.0000 </r>
      </set>
      <set comment="kpoint 49">
       <r>  -13.1170    1.0000 </r>
       <r>  -12.8933    1.0000 </r>
       <r>   -8.6912    1.0000 </r>
       <r>   -5.1771    1.0000 </r>
       <r>   -5.0056    1.0000 </r>
       <r>   -1.1783    0.0000 </r>
       <r>    2.0799    0.0000 </r>
       <r>    2.2321    0.0000 </r>
       <r>    4.9159    0.0000 </r>
       <r>    6.1543    0.0000 </r>
       <r>    6.2882    0.0000 </r>
       <r>    6.7874    0.0000 </r>
       <r>    7.7695    0.0000 </r>
       <r>    8.0604    0.0000 </r>
       <r>    8.3431    0.0000 </r>
       <r>    8.5632    0.0000 </r>
      </set>
      <set comment="kpoint 50">
       <r>  -13.0043    1.0000 </r>
       <r>  -13.0043    1.0000 </r>
       <r>   -8.6983    1.0000 </r>
       <r>   -5.0900    1.0000 </r>
       <r>   -5.0900    1.0000 </r>
       <r>   -1.1848    0.0000 </r>
       <r>    2.1600    0.0000 </r>
       <r>    2.1600    0.0000 </r>
       <r>    4.9180    0.0000 </r>
       <r>    6.2930    0.0000 </r>
       <r>    6.2930    0.0000 </r>
       <r>    6.6290    0.0000 </r>
       <r>    7.9416    0.0000 </r>
       <r>    7.9416    0.0000 </r>
       <r>    8.2867    0.0000 </r>
       <r>    8.7454    0.0000 </r>
      </set>
      <set comment="kpoint 51">
       <r>  -13.0043    1.0000 </r>
       <r>  -13.0043    1.0000 </r>
       <r>   -8.6983    1.0000 </r>
       <r>   -5.0900    1.0000 </r>
       <r>   -5.0900    1.0000 </r>
       <r>   -1.1848    0.0000 </r>
       <r>    2.1600    0.0000 </r>
       <r>    2.1600    0.0000 </r>
       <r>    4.9180    0.0000 </r>
       <r>    6.2930    0.0000 </r>
       <r>    6.2930    0.0000 </r>
       <r>    6.6290    0.0000 </r>
       <r>    7.9416    0.0000 </r>
       <r>    7.9416    0.0000 </r>
       <r>    8.2867    0.0000 </r>
       <r>    8.7453    0.0000 </r>
      </set>
      <set comment="kpoint 52">
       <r>  -13.1112    1.0000 </r>
       <r>  -12.8993    1.0000 </r>
       <r>   -8.6910    1.0000 </r>
       <r>   -5.1721    1.0000 </r>
       <r>   -5.0107    1.0000 </r>
       <r>   -1.1782    0.0000 </r>
       <r>    2.0892    0.0000 </r>
       <r>    2.2217    0.0000 </r>
       <r>    4.9147    0.0000 </r>
       <r>    6.0708    0.0000 </r>
       <r>    6.4324    0.0000 </r>
       <r>    6.7284    0.0000 </r>
       <r>    7.8248    0.0000 </r>
       <r>    7.9720    0.0000 </r>
       <r>    8.3754    0.0000 </r>
       <r>    8.6380    0.0000 </r>
      </set>
      <set comment="kpoint 53">
       <r>  -13.2140    1.0000 </r>
       <r>  -12.8028    1.0000 </r>
       <r>   -8.6682    1.0000 </r>
       <r>   -5.2516    1.0000 </r>
       <r>   -4.9398    1.0000 </r>
       <r>   -1.1581    0.0000 </r>
       <r>    2.0205    0.0000 </r>
       <r>    2.2614    0.0000 </r>
       <r>    4.8982    0.0000 </r>
       <r>    5.8246    0.0000 </r>
       <r>    6.5708    0.0000 </r>
       <r>    6.8987    0.0000 </r>
       <r>    7.7121    0.0000 </r>
       <r>    7.8988    0.0000 </r>
       <r>    8.4942    0.0000 </r>
       <r>    8.6305    0.0000 </r>
      </set>
      <set comment="kpoint 54">
       <r>  -13.3126    1.0000 </r>
       <r>  -12.7154    1.0000 </r>
       <r>   -8.6297    1.0000 </r>
       <r>   -5.3284    1.0000 </r>
       <r>   -4.8777    1.0000 </r>
       <r>   -1.1247    0.0000 </r>
       <r>    1.9549    0.0000 </r>
       <r>    2.2750    0.0000 </r>
       <r>    4.8454    0.0000 </r>
       <r>    5.6338    0.0000 </r>
       <r>    6.7055    0.0000 </r>
       <r>    7.0880    0.0000 </r>
       <r>    7.6046    0.0000 </r>
       <r>    7.8040    0.0000 </r>
       <r>    8.4184    0.0000 </r>
       <r>    8.5310    0.0000 </r>
      </set>
      <set comment="kpoint 55">
       <r>  -13.4069    1.0000 </r>
       <r>  -12.6376    1.0000 </r>
       <r>   -8.5751    1.0000 </r>
       <r>   -5.4021    1.0000 </r>
       <r>   -4.8244    1.0000 </r>
       <r>   -1.0783    0.0000 </r>
       <r>    1.8927    0.0000 </r>
       <r>    2.2588    0.0000 </r>
       <r>    4.7276    0.0000 </r>
       <r>    5.5395    0.0000 </r>
       <r>    6.8335    0.0000 </r>
       <r>    7.2857    0.0000 </r>
       <r>    7.5041    0.0000 </r>
       <r>    7.7062    0.0000 </r>
       <r>    8.3338    0.0000 </r>
       <r>    8.4312    0.0000 </r>
      </set>
      <set comment="kpoint 56">
       <r>  -13.4970    1.0000 </r>
       <r>  -12.5695    1.0000 </r>
       <r>   -8.5047    1.0000 </r>
       <r>   -5.4727    1.0000 </r>
       <r>   -4.7799    1.0000 </r>
       <r>   -1.0197    0.0000 </r>
       <r>    1.8346    0.0000 </r>
       <r>    2.2096    0.0000 </r>
       <r>    4.5523    0.0000 </r>
       <r>    5.5408    0.0000 </r>
       <r>    6.9507    0.0000 </r>
       <r>    7.3911    0.0000 </r>
       <r>    7.5076    0.0000 </r>
       <r>    7.6099    0.0000 </r>
       <r>    8.2588    0.0000 </r>
       <r>    8.3380    0.0000 </r>
      </set>
      <set comment="kpoint 57">
       <r>  -13.5828    1.0000 </r>
       <r>  -12.5111    1.0000 </r>
       <r>   -8.4187    1.0000 </r>
       <r>   -5.5399    1.0000 </r>
       <r>   -4.7438    1.0000 </r>
       <r>   -0.9502    0.0000 </r>
       <r>    1.7810    0.0000 </r>
       <r>    2.1248    0.0000 </r>
       <r>    4.3546    0.0000 </r>
       <r>    5.6059    0.0000 </r>
       <r>    7.0522    0.0000 </r>
       <r>    7.3056    0.0000 </r>
       <r>    7.5170    0.0000 </r>
       <r>    7.7093    0.0000 </r>
       <r>    8.1968    0.0000 </r>
       <r>    8.2551    0.0000 </r>
      </set>
      <set comment="kpoint 58">
       <r>  -13.6642    1.0000 </r>
       <r>  -12.4620    1.0000 </r>
       <r>   -8.3180    1.0000 </r>
       <r>   -5.6035    1.0000 </r>
       <r>   -4.7154    1.0000 </r>
       <r>   -0.8709    0.0000 </r>
       <r>    1.7329    0.0000 </r>
       <r>    2.0039    0.0000 </r>
       <r>    4.1626    0.0000 </r>
       <r>    5.7103    0.0000 </r>
       <r>    7.1315    0.0000 </r>
       <r>    7.2196    0.0000 </r>
       <r>    7.4290    0.0000 </r>
       <r>    7.9018    0.0000 </r>
       <r>    8.1504    0.0000 </r>
       <r>    8.1990    0.0000 </r>
      </set>
      <set comment="kpoint 59">
       <r>  -13.7412    1.0000 </r>
       <r>  -12.4216    1.0000 </r>
       <r>   -8.2034    1.0000 </r>
       <r>   -5.6632    1.0000 </r>
       <r>   -4.6941    1.0000 </r>
       <r>   -0.7837    0.0000 </r>
       <r>    1.6911    0.0000 </r>
       <r>    1.8477    0.0000 </r>
       <r>    3.9885    0.0000 </r>
       <r>    5.8400    0.0000 </r>
       <r>    7.1392    0.0000 </r>
       <r>    7.1813    0.0000 </r>
       <r>    7.3490    0.0000 </r>
       <r>    7.9913    0.0000 </r>
       <r>    8.1208    0.0000 </r>
       <r>    8.2573    0.0000 </r>
      </set>
      <set comment="kpoint 60">
       <r>  -13.8138    1.0000 </r>
       <r>  -12.3891    1.0000 </r>
       <r>   -8.0765    1.0000 </r>
       <r>   -5.7188    1.0000 </r>
       <r>   -4.6790    1.0000 </r>
       <r>   -0.6905    0.0000 </r>
       <r>    1.6562    0.0000 </r>
       <r>    1.6597    0.0000 </r>
       <r>    3.8368    0.0000 </r>
       <r>    5.9866    0.0000 </r>
       <r>    7.0656    0.0000 </r>
       <r>    7.1877    0.0000 </r>
       <r>    7.2893    0.0000 </r>
       <r>    7.9576    0.0000 </r>
       <r>    8.1062    0.0000 </r>
       <r>    8.4493    0.0000 </r>
      </set>
      <set comment="kpoint 61">
       <r>  -13.8819    1.0000 </r>
       <r>  -12.3638    1.0000 </r>
       <r>   -7.9389    1.0000 </r>
       <r>   -5.7700    1.0000 </r>
       <r>   -4.6694    1.0000 </r>
       <r>   -0.5937    0.0000 </r>
       <r>    1.4450    0.0000 </r>
       <r>    1.6288    0.0000 </r>
       <r>    3.7072    0.0000 </r>
       <r>    6.1428    0.0000 </r>
       <r>    7.0006    0.0000 </r>
       <r>    7.1409    0.0000 </r>
       <r>    7.2611    0.0000 </r>
       <r>    7.9025    0.0000 </r>
       <r>    8.1009    0.0000 </r>
       <r>    8.6712    0.0000 </r>
      </set>
      <set comment="kpoint 62">
       <r>  -13.9456    1.0000 </r>
       <r>  -12.3447    1.0000 </r>
       <r>   -7.7923    1.0000 </r>
       <r>   -5.8162    1.0000 </r>
       <r>   -4.6642    1.0000 </r>
       <r>   -0.4954    0.0000 </r>
       <r>    1.2091    0.0000 </r>
       <r>    1.6099    0.0000 </r>
       <r>    3.5973    0.0000 </r>
       <r>    6.3005    0.0000 </r>
       <r>    6.9481    0.0000 </r>
       <r>    7.0730    0.0000 </r>
       <r>    7.2377    0.0000 </r>
       <r>    7.8499    0.0000 </r>
       <r>    8.0974    0.0000 </r>
       <r>    8.8952    0.0000 </r>
      </set>
      <set comment="kpoint 63">
       <r>  -14.0049    1.0000 </r>
       <r>  -12.3309    1.0000 </r>
       <r>   -7.6391    1.0000 </r>
       <r>   -5.8572    1.0000 </r>
       <r>   -4.6626    1.0000 </r>
       <r>   -0.3983    0.0000 </r>
       <r>    0.9601    0.0000 </r>
       <r>    1.6002    0.0000 </r>
       <r>    3.5048    0.0000 </r>
       <r>    6.4447    0.0000 </r>
       <r>    6.9175    0.0000 </r>
       <r>    7.0022    0.0000 </r>
       <r>    7.2066    0.0000 </r>
       <r>    7.8058    0.0000 </r>
       <r>    8.0887    0.0000 </r>
       <r>    9.0911    0.0000 </r>
      </set>
      <set comment="kpoint 64">
       <r>  -14.0596    1.0000 </r>
       <r>  -12.3214    1.0000 </r>
       <r>   -7.4815    1.0000 </r>
       <r>   -5.8921    1.0000 </r>
       <r>   -4.6639    1.0000 </r>
       <r>   -0.3045    0.0000 </r>
       <r>    0.7027    0.0000 </r>
       <r>    1.6005    0.0000 </r>
       <r>    3.4261    0.0000 </r>
       <r>    6.5480    0.0000 </r>
       <r>    6.9304    0.0000 </r>
       <r>    6.9322    0.0000 </r>
       <r>    7.1691    0.0000 </r>
       <r>    7.7754    0.0000 </r>
       <r>    8.0713    0.0000 </r>
       <r>    9.1810    0.0000 </r>
      </set>
      <set comment="kpoint 65">
       <r>  -14.1098    1.0000 </r>
       <r>  -12.3155    1.0000 </r>
       <r>   -7.3227    1.0000 </r>
       <r>   -5.9198    1.0000 </r>
       <r>   -4.6674    1.0000 </r>
       <r>   -0.2165    0.0000 </r>
       <r>    0.4424    0.0000 </r>
       <r>    1.6111    0.0000 </r>
       <r>    3.3589    0.0000 </r>
       <r>    6.5860    0.0000 </r>
       <r>    6.8641    0.0000 </r>
       <r>    7.0016    0.0000 </r>
       <r>    7.1280    0.0000 </r>
       <r>    7.7660    0.0000 </r>
       <r>    8.0443    0.0000 </r>
       <r>    9.1798    0.0000 </r>
      </set>
      <set comment="kpoint 66">
       <r>  -14.1555    1.0000 </r>
       <r>  -12.3124    1.0000 </r>
       <r>   -7.1662    1.0000 </r>
       <r>   -5.9390    1.0000 </r>
       <r>   -4.6724    1.0000 </r>
       <r>   -0.1363    0.0000 </r>
       <r>    0.1839    0.0000 </r>
       <r>    1.6320    0.0000 </r>
       <r>    3.3013    0.0000 </r>
       <r>    6.5785    0.0000 </r>
       <r>    6.7979    0.0000 </r>
       <r>    7.0858    0.0000 </r>
       <r>    7.0975    0.0000 </r>
       <r>    7.7881    0.0000 </r>
       <r>    8.0091    0.0000 </r>
       <r>    9.1578    0.0000 </r>
      </set>
      <set comment="kpoint 67">
       <r>  -14.1966    1.0000 </r>
       <r>  -12.3113    1.0000 </r>
       <r>   -7.0166    1.0000 </r>
       <r>   -5.9475    1.0000 </r>
       <r>   -4.6784    1.0000 </r>
       <r>   -0.0690    0.0000 </r>
       <r>   -0.0654    0.0000 </r>
       <r>    1.6624    0.0000 </r>
       <r>    3.2517    0.0000 </r>
       <r>    6.5540    0.0000 </r>
       <r>    6.7337    0.0000 </r>
       <r>    7.0443    0.0000 </r>
       <r>    7.1760    0.0000 </r>
       <r>    7.8516    0.0000 </r>
       <r>    7.9681    0.0000 </r>
       <r>    9.1192    0.0000 </r>
      </set>
      <set comment="kpoint 68">
       <r>  -14.2332    1.0000 </r>
       <r>  -12.3118    1.0000 </r>
       <r>   -6.8791    1.0000 </r>
       <r>   -5.9427    1.0000 </r>
       <r>   -4.6848    1.0000 </r>
       <r>   -0.3123    0.0000 </r>
       <r>   -0.0043    0.0000 </r>
       <r>    1.7013    0.0000 </r>
       <r>    3.2092    0.0000 </r>
       <r>    6.5252    0.0000 </r>
[...]
       </set>
       <set comment="band 13">
        <r>  0.0011  0.0415  0.1367 </r>
        <r>  0.0011  0.0415  0.1367 </r>
       </set>
       <set comment="band 14">
        <r>  0.0033  0.0289  0.1945 </r>
        <r>  0.0033  0.0289  0.1945 </r>
       </set>
       <set comment="band 15">
        <r>  0.0184  0.0473  0.0172 </r>
        <r>  0.0184  0.0473  0.0172 </r>
       </set>
       <set comment="band 16">
        <r>  0.0020  0.0698  0.1074 </r>
        <r>  0.0020  0.0698  0.1074 </r>
       </set>
      </set>
      <set comment="kpoint 142">
       <set comment="band 1">
        <r>  0.2602  0.0174  0.0006 </r>
        <r>  0.2602  0.0174  0.0006 </r>
       </set>
       <set comment="band 2">
        <r>  0.2202  0.0499  0.0036 </r>
        <r>  0.2202  0.0499  0.0036 </r>
       </set>
       <set comment="band 3">
        <r>  0.0291  0.2646  0.0313 </r>
        <r>  0.0291  0.2646  0.0313 </r>
       </set>
       <set comment="band 4">
        <r>  0.0004  0.2993  0.0325 </r>
        <r>  0.0004  0.2993  0.0325 </r>
       </set>
       <set comment="band 5">
        <r>  0.0059  0.2095  0.0038 </r>
        <r>  0.0059  0.2095  0.0038 </r>
       </set>
       <set comment="band 6">
        <r>  0.0134  0.2477  0.0426 </r>
        <r>  0.0134  0.2477  0.0426 </r>
       </set>
       <set comment="band 7">
        <r>  0.0638  0.2167  0.0431 </r>
        <r>  0.0638  0.2167  0.0431 </r>
       </set>
       <set comment="band 8">
        <r>  0.1151  0.2061  0.0273 </r>
        <r>  0.1151  0.2061  0.0273 </r>
       </set>
       <set comment="band 9">
        <r>  0.0000  0.0146  0.0292 </r>
        <r>  0.0000  0.0146  0.0292 </r>
       </set>
       <set comment="band 10">
        <r>  0.0027  0.0185  0.0015 </r>
        <r>  0.0027  0.0185  0.0015 </r>
       </set>
       <set comment="band 11">
        <r>  0.0056  0.0264  0.0067 </r>
        <r>  0.0056  0.0264  0.0067 </r>
       </set>
       <set comment="band 12">
        <r>  0.0075  0.0003  0.0230 </r>
        <r>  0.0075  0.0003  0.0230 </r>
       </set>
       <set comment="band 13">
        <r>  0.0012  0.0446  0.1416 </r>
        <r>  0.0012  0.0446  0.1416 </r>
       </set>
       <set comment="band 14">
        <r>  0.0020  0.0352  0.1936 </r>
        <r>  0.0020  0.0352  0.1936 </r>
       </set>
       <set comment="band 15">
        <r>  0.0196  0.0468  0.0171 </r>
        <r>  0.0196  0.0468  0.0171 </r>
       </set>
       <set comment="band 16">
        <r>  0.0028  0.0629  0.0988 </r>
        <r>  0.0028  0.0629  0.0988 </r>
       </set>
      </set>
      <set comment="kpoint 143">
       <set comment="band 1">
        <r>  0.2603  0.0170  0.0005 </r>
        <r>  0.2603  0.0170  0.0005 </r>
       </set>
       <set comment="band 2">
        <r>  0.2181  0.0506  0.0035 </r>
        <r>  0.2181  0.0506  0.0035 </r>
       </set>
       <set comment="band 3">
        <r>  0.0258  0.2709  0.0320 </r>
        <r>  0.0258  0.2709  0.0320 </r>
       </set>
       <set comment="band 4">
        <r>  0.0002  0.3016  0.0328 </r>
        <r>  0.0002  0.3016  0.0328 </r>
       </set>
       <set comment="band 5">
        <r>  0.0057  0.2089  0.0039 </r>
        <r>  0.0057  0.2089  0.0039 </r>
       </set>
       <set comment="band 6">
        <r>  0.0107  0.2500  0.0436 </r>
        <r>  0.0107  0.2500  0.0436 </r>
       </set>
       <set comment="band 7">
        <r>  0.0676  0.2133  0.0433 </r>
        <r>  0.0676  0.2133  0.0433 </r>
       </set>
       <set comment="band 8">
        <r>  0.1177  0.2020  0.0313 </r>
        <r>  0.1177  0.2020  0.0313 </r>
       </set>
       <set comment="band 9">
        <r>  0.0003  0.0100  0.0272 </r>
        <r>  0.0003  0.0100  0.0272 </r>
       </set>
       <set comment="band 10">
        <r>  0.0027  0.0181  0.0011 </r>
        <r>  0.0027  0.0181  0.0011 </r>
       </set>
       <set comment="band 11">
        <r>  0.0056  0.0263  0.0045 </r>
        <r>  0.0056  0.0263  0.0045 </r>
       </set>
       <set comment="band 12">
        <r>  0.0076  0.0003  0.0227 </r>
        <r>  0.0076  0.0003  0.0227 </r>
       </set>
       <set comment="band 13">
        <r>  0.0013  0.0474  0.1458 </r>
        <r>  0.0013  0.0474  0.1458 </r>
       </set>
       <set comment="band 14">
        <r>  0.0011  0.0411  0.1928 </r>
        <r>  0.0011  0.0411  0.1928 </r>
       </set>
       <set comment="band 15">
        <r>  0.0208  0.0462  0.0173 </r>
        <r>  0.0208  0.0462  0.0173 </r>
       </set>
       <set comment="band 16">
        <r>  0.0039  0.0556  0.0898 </r>
        <r>  0.0039  0.0556  0.0898 </r>
       </set>
      </set>
      <set comment="kpoint 144">
       <set comment="band 1">
        <r>  0.2605  0.0167  0.0005 </r>
        <r>  0.2605  0.0167  0.0005 </r>
       </set>
       <set comment="band 2">
        <r>  0.2163  0.0511  0.0035 </r>
        <r>  0.2163  0.0511  0.0035 </r>
       </set>
       <set comment="band 3">
        <r>  0.0219  0.2776  0.0325 </r>
        <r>  0.0219  0.2776  0.0325 </r>
       </set>
       <set comment="band 4">
        <r>  0.0051  0.2089  0.0041 </r>
        <r>  0.0051  0.2089  0.0041 </r>
       </set>
       <set comment="band 5">
        <r>  0.0004  0.3030  0.0329 </r>
        <r>  0.0004  0.3030  0.0329 </r>
       </set>
       <set comment="band 6">
        <r>  0.0082  0.2521  0.0445 </r>
        <r>  0.0082  0.2521  0.0445 </r>
       </set>
       <set comment="band 7">
        <r>  0.0735  0.2085  0.0433 </r>
        <r>  0.0735  0.2085  0.0433 </r>
       </set>
       <set comment="band 8">
        <r>  0.1181  0.1973  0.0344 </r>
        <r>  0.1181  0.1973  0.0344 </r>
       </set>
       <set comment="band 9">
        <r>  0.0008  0.0075  0.0258 </r>
        <r>  0.0008  0.0075  0.0258 </r>
       </set>
       <set comment="band 10">
        <r>  0.0028  0.0179  0.0007 </r>
        <r>  0.0028  0.0179  0.0007 </r>
       </set>
       <set comment="band 11">
        <r>  0.0056  0.0262  0.0030 </r>
        <r>  0.0056  0.0262  0.0030 </r>
       </set>
       <set comment="band 12">
        <r>  0.0077  0.0002  0.0225 </r>
        <r>  0.0077  0.0002  0.0225 </r>
       </set>
       <set comment="band 13">
        <r>  0.0014  0.0501  0.1496 </r>
        <r>  0.0014  0.0501  0.1496 </r>
       </set>
       <set comment="band 14">
        <r>  0.0006  0.0464  0.1920 </r>
        <r>  0.0006  0.0464  0.1920 </r>
       </set>
       <set comment="band 15">
        <r>  0.0219  0.0455  0.0175 </r>
        <r>  0.0219  0.0455  0.0175 </r>
       </set>
       <set comment="band 16">
        <r>  0.0051  0.0485  0.0809 </r>
        <r>  0.0051  0.0485  0.0809 </r>
       </set>
      </set>
      <set comment="kpoint 145">
       <set comment="band 1">
        <r>  0.2606  0.0164  0.0005 </r>
        <r>  0.2606  0.0164  0.0005 </r>
       </set>
       <set comment="band 2">
        <r>  0.2149  0.0516  0.0035 </r>
        <r>  0.2149  0.0516  0.0035 </r>
       </set>
       <set comment="band 3">
        <r>  0.0174  0.2848  0.0330 </r>
        <r>  0.0174  0.2848  0.0330 </r>
       </set>
       <set comment="band 4">
        <r>  0.0051  0.2073  0.0037 </r>
        <r>  0.0051  0.2073  0.0037 </r>
       </set>
       <set comment="band 5">
        <r>  0.0001  0.3058  0.0335 </r>
        <r>  0.0001  0.3058  0.0335 </r>
       </set>
       <set comment="band 6">
        <r>  0.0059  0.2542  0.0453 </r>
        <r>  0.0059  0.2542  0.0453 </r>
       </set>
       <set comment="band 7">
        <r>  0.0835  0.2009  0.0431 </r>
        <r>  0.0835  0.2009  0.0431 </r>
       </set>
       <set comment="band 8">
        <r>  0.1144  0.1948  0.0371 </r>
        <r>  0.1144  0.1948  0.0371 </r>
       </set>
       <set comment="band 9">
        <r>  0.0012  0.0061  0.0248 </r>
        <r>  0.0012  0.0061  0.0248 </r>
       </set>
       <set comment="band 10">
        <r>  0.0028  0.0176  0.0005 </r>
        <r>  0.0028  0.0176  0.0005 </r>
       </set>
       <set comment="band 11">
        <r>  0.0057  0.0261  0.0019 </r>
        <r>  0.0057  0.0261  0.0019 </r>
       </set>
       <set comment="band 12">
        <r>  0.0078  0.0002  0.0223 </r>
        <r>  0.0078  0.0002  0.0223 </r>
       </set>
       <set comment="band 13">
        <r>  0.0014  0.0525  0.1537 </r>
        <r>  0.0014  0.0525  0.1537 </r>
       </set>
       <set comment="band 14">
        <r>  0.0003  0.0510  0.1912 </r>
        <r>  0.0003  0.0510  0.1912 </r>
       </set>
       <set comment="band 15">
        <r>  0.0228  0.0448  0.0176 </r>
        <r>  0.0228  0.0448  0.0176 </r>
       </set>
       <set comment="band 16">
        <r>  0.0063  0.0421  0.0730 </r>
        <r>  0.0063  0.0421  0.0730 </r>
       </set>
      </set>
      <set comment="kpoint 146">
       <set comment="band 1">
        <r>  0.2607  0.0162  0.0004 </r>
        <r>  0.2607  0.0162  0.0004 </r>
       </set>
       <set comment="band 2">
        <r>  0.2138  0.0519  0.0034 </r>
        <r>  0.2138  0.0519  0.0034 </r>
       </set>
       <set comment="band 3">
        <r>  0.0126  0.2920  0.0334 </r>
        <r>  0.0126  0.2920  0.0334 </r>
       </set>
       <set comment="band 4">
        <r>  0.0050  0.2068  0.0037 </r>
        <r>  0.0050  0.2068  0.0037 </r>
       </set>
       <set comment="band 5">
        <r>  0.0000  0.3074  0.0337 </r>
        <r>  0.0000  0.3074  0.0337 </r>
       </set>
       <set comment="band 6">
        <r>  0.0039  0.2561  0.0459 </r>
        <r>  0.0039  0.2561  0.0459 </r>
       </set>
       <set comment="band 7">
        <r>  0.1030  0.1866  0.0423 </r>
        <r>  0.1030  0.1866  0.0423 </r>
       </set>
       <set comment="band 8">
        <r>  0.1010  0.1991  0.0396 </r>
        <r>  0.1010  0.1991  0.0396 </r>
       </set>
       <set comment="band 9">
        <r>  0.0016  0.0053  0.0241 </r>
        <r>  0.0016  0.0053  0.0241 </r>
       </set>
       <set comment="band 10">
        <r>  0.0028  0.0174  0.0003 </r>
        <r>  0.0028  0.0174  0.0003 </r>
       </set>
       <set comment="band 11">
        <r>  0.0057  0.0260  0.0011 </r>
        <r>  0.0057  0.0260  0.0011 </r>
       </set>
       <set comment="band 12">
        <r>  0.0079  0.0002  0.0221 </r>
        <r>  0.0079  0.0002  0.0221 </r>
       </set>
       <set comment="band 13">
        <r>  0.0013  0.0547  0.1584 </r>
        <r>  0.0013  0.0547  0.1584 </r>
       </set>
       <set comment="band 14">
        <r>  0.0001  0.0548  0.1904 </r>
        <r>  0.0001  0.0548  0.1904 </r>
       </set>
       <set comment="band 15">
        <r>  0.0234  0.0440  0.0174 </r>
        <r>  0.0234  0.0440  0.0174 </r>
       </set>
       <set comment="band 16">
        <r>  0.0075  0.0368  0.0664 </r>
        <r>  0.0075  0.0368  0.0663 </r>
       </set>
      </set>
      <set comment="kpoint 147">
       <set comment="band 1">
        <r>  0.2607  0.0160  0.0004 </r>
        <r>  0.2607  0.0160  0.0004 </r>
       </set>
       <set comment="band 2">
        <r>  0.2129  0.0522  0.0034 </r>
        <r>  0.2129  0.0522  0.0034 </r>
       </set>
       <set comment="band 3">
        <r>  0.0049  0.2064  0.0037 </r>
        <r>  0.0049  0.2064  0.0037 </r>
       </set>
       <set comment="band 4">
        <r>  0.0079  0.2988  0.0337 </r>
        <r>  0.0079  0.2988  0.0337 </r>
       </set>
       <set comment="band 5">
        <r>  0.0000  0.3086  0.0338 </r>
        <r>  0.0000  0.3086  0.0338 </r>
       </set>
       <set comment="band 6">
        <r>  0.1436  0.1576  0.0406 </r>
        <r>  0.1436  0.1576  0.0406 </r>
       </set>
       <set comment="band 7">
        <r>  0.0023  0.2578  0.0465 </r>
        <r>  0.0023  0.2578  0.0465 </r>
       </set>
       <set comment="band 8">
        <r>  0.0661  0.2190  0.0427 </r>
        <r>  0.0661  0.2190  0.0427 </r>
       </set>
       <set comment="band 9">
        <r>  0.0019  0.0048  0.0236 </r>
        <r>  0.0019  0.0048  0.0236 </r>
       </set>
       <set comment="band 10">
        <r>  0.0029  0.0173  0.0002 </r>
        <r>  0.0029  0.0173  0.0002 </r>
       </set>
       <set comment="band 11">
        <r>  0.0058  0.0259  0.0006 </r>
        <r>  0.0058  0.0259  0.0006 </r>
       </set>
       <set comment="band 12">
        <r>  0.0079  0.0002  0.0220 </r>
        <r>  0.0079  0.0002  0.0220 </r>
       </set>
       <set comment="band 13">
        <r>  0.0012  0.0568  0.1645 </r>
        <r>  0.0012  0.0568  0.1645 </r>
       </set>
       <set comment="band 14">
        <r>  0.0000  0.0578  0.1898 </r>
        <r>  0.0000  0.0578  0.1898 </r>
       </set>
       <set comment="band 15">
        <r>  0.0237  0.0431  0.0158 </r>
        <r>  0.0237  0.0431  0.0158 </r>
       </set>
       <set comment="band 16">
        <r>  0.0084  0.0328  0.0613 </r>
        <r>  0.0084  0.0328  0.0613 </r>
       </set>
      </set>
      <set comment="kpoint 148">
       <set comment="band 1">
        <r>  0.2608  0.0159  0.0004 </r>
        <r>  0.2608  0.0159  0.0004 </r>
       </set>
       <set comment="band 2">
        <r>  0.2123  0.0523  0.0034 </r>
        <r>  0.2123  0.0523  0.0034 </r>
       </set>
       <set comment="band 3">
        <r>  0.0048  0.2061  0.0037 </r>
        <r>  0.0048  0.2061  0.0037 </r>
       </set>
       <set comment="band 4">
        <r>  0.0038  0.3047  0.0339 </r>
        <r>  0.0038  0.3047  0.0339 </r>
       </set>
       <set comment="band 5">
        <r>  0.0000  0.3094  0.0340 </r>
        <r>  0.0000  0.3094  0.0340 </r>
       </set>
       <set comment="band 6">
        <r>  0.1973  0.1192  0.0382 </r>
        <r>  0.1973  0.1192  0.0382 </r>
       </set>
       <set comment="band 7">
        <r>  0.0010  0.2591  0.0469 </r>
        <r>  0.0010  0.2591  0.0469 </r>
       </set>
       <set comment="band 8">
        <r>  0.0172  0.2501  0.0459 </r>
        <r>  0.0172  0.2501  0.0459 </r>
       </set>
       <set comment="band 9">
        <r>  0.0021  0.0045  0.0233 </r>
        <r>  0.0021  0.0045  0.0233 </r>
       </set>
       <set comment="band 10">
        <r>  0.0029  0.0172  0.0001 </r>
        <r>  0.0029  0.0172  0.0001 </r>
       </set>
       <set comment="band 11">
        <r>  0.0058  0.0258  0.0003 </r>
        <r>  0.0058  0.0258  0.0003 </r>
       </set>
       <set comment="band 12">
        <r>  0.0080  0.0002  0.0219 </r>
        <r>  0.0080  0.0002  0.0219 </r>
       </set>
       <set comment="band 13">
        <r>  0.0008  0.0588  0.1731 </r>
        <r>  0.0008  0.0588  0.1731 </r>
       </set>
       <set comment="band 14">
        <r>  0.0000  0.0599  0.1894 </r>
        <r>  0.0000  0.0599  0.1894 </r>
       </set>
       <set comment="band 15">
        <r>  0.0238  0.0420  0.0116 </r>
        <r>  0.0238  0.0420  0.0116 </r>
       </set>
       <set comment="band 16">
        <r>  0.0091  0.0300  0.0579 </r>
        <r>  0.0092  0.0300  0.0578 </r>
       </set>
      </set>
      <set comment="kpoint 149">
       <set comment="band 1">
        <r>  0.2608  0.0158  0.0004 </r>
        <r>  0.2608  0.0158  0.0004 </r>
       </set>
       <set comment="band 2">
        <r>  0.2119  0.0525  0.0034 </r>
        <r>  0.2119  0.0525  0.0034 </r>
       </set>
       <set comment="band 3">
        <r>  0.0048  0.2059  0.0036 </r>
        <r>  0.0048  0.2059  0.0036 </r>
       </set>
       <set comment="band 4">
        <r>  0.0010  0.3087  0.0340 </r>
        <r>  0.0010  0.3087  0.0340 </r>
       </set>
       <set comment="band 5">
        <r>  0.0000  0.3099  0.0340 </r>
        <r>  0.0000  0.3099  0.0340 </r>
       </set>
       <set comment="band 6">
        <r>  0.2169  0.1043  0.0376 </r>
        <r>  0.2169  0.1043  0.0376 </r>
       </set>
       <set comment="band 7">
        <r>  0.0003  0.2599  0.0471 </r>
        <r>  0.0003  0.2599  0.0471 </r>
       </set>
       <set comment="band 8">
        <r>  0.0009  0.2600  0.0471 </r>
        <r>  0.0009  0.2600  0.0471 </r>
       </set>
       <set comment="band 9">
        <r>  0.0022  0.0043  0.0231 </r>
        <r>  0.0022  0.0043  0.0231 </r>
       </set>
       <set comment="band 10">
        <r>  0.0029  0.0171  0.0000 </r>
        <r>  0.0029  0.0171  0.0000 </r>
       </set>
       <set comment="band 11">
        <r>  0.0059  0.0258  0.0001 </r>
        <r>  0.0059  0.0258  0.0001 </r>
       </set>
       <set comment="band 12">
        <r>  0.0080  0.0002  0.0218 </r>
        <r>  0.0080  0.0002  0.0218 </r>
       </set>
       <set comment="band 13">
        <r>  0.0003  0.0606  0.1834 </r>
        <r>  0.0003  0.0606  0.1834 </r>
       </set>
       <set comment="band 14">
        <r>  0.0000  0.0611  0.1891 </r>
        <r>  0.0000  0.0611  0.1891 </r>
       </set>
       <set comment="band 15">
        <r>  0.0240  0.0407  0.0045 </r>
        <r>  0.0240  0.0407  0.0045 </r>
       </set>
       <set comment="band 16">
        <r>  0.0096  0.0283  0.0558 </r>
        <r>  0.0096  0.0283  0.0559 </r>
       </set>
      </set>
      <set comment="kpoint 150">
       <set comment="band 1">
        <r>  0.2608  0.0158  0.0004 </r>
        <r>  0.2608  0.0158  0.0004 </r>
       </set>
       <set comment="band 2">
        <r>  0.2118  0.0525  0.0034 </r>
        <r>  0.2118  0.0525  0.0034 </r>
       </set>
       <set comment="band 3">
        <r>  0.0048  0.2059  0.0036 </r>
        <r>  0.0048  0.2059  0.0036 </r>
       </set>
       <set comment="band 4">
        <r>  0.0000  0.3101  0.0341 </r>
        <r>  0.0000  0.3101  0.0341 </r>
       </set>
       <set comment="band 5">
        <r>  0.0000  0.3101  0.0341 </r>
        <r>  0.0000  0.3101  0.0341 </r>
       </set>
       <set comment="band 6">
        <r>  0.2189  0.1023  0.0376 </r>
        <r>  0.2189  0.1023  0.0376 </r>
       </set>
       <set comment="band 7">
        <r>  0.0000  0.2602  0.0472 </r>
        <r>  0.0000  0.2602  0.0472 </r>
       </set>
       <set comment="band 8">
        <r>  0.0000  0.2602  0.0472 </r>
        <r>  0.0000  0.2602  0.0472 </r>
       </set>
       <set comment="band 9">
        <r>  0.0023  0.0042  0.0230 </r>
        <r>  0.0023  0.0042  0.0230 </r>
       </set>
       <set comment="band 10">
        <r>  0.0029  0.0171  0.0000 </r>
        <r>  0.0029  0.0171  0.0000 </r>
       </set>
       <set comment="band 11">
        <r>  0.0059  0.0258  0.0000 </r>
        <r>  0.0059  0.0258  0.0000 </r>
       </set>
       <set comment="band 12">
        <r>  0.0080  0.0002  0.0218 </r>
        <r>  0.0080  0.0002  0.0218 </r>
       </set>
       <set comment="band 13">
        <r>  0.0000  0.0615  0.1890 </r>
        <r>  0.0000  0.0615  0.1890 </r>
       </set>
       <set comment="band 14">
        <r>  0.0000  0.0615  0.1890 </r>
        <r>  0.0000  0.0615  0.1890 </r>
       </set>
       <set comment="band 15">
        <r>  0.0242  0.0400  0.0000 </r>
        <r>  0.0242  0.0400  0.0000 </r>
       </set>
       <set comment="band 16">
        <r>  0.0098  0.0278  0.0551 </r>
        <r>  0.0097  0.0278  0.0552 </r>
       </set>
      </set>
     </set>
    </set>
   </array>
  </projected>
 </calculation>
 <structure name="finalpos" >
  <crystal>
   <varray name="basis" >
    <v>       3.28234349       0.00000000       0.00000000 </v>
    <v>      -1.64117175       2.84259285       0.00000000 </v>
    <v>       0.00000000       0.00000000      16.00000000 </v>
   </varray>
   <i name="volume">    149.28585836 </i>
   <varray name="rec_basis" >
    <v>       0.30466038       0.17589575       0.00000000 </v>
    <v>       0.00000000       0.35179150       0.00000000 </v>
    <v>       0.00000000       0.00000000       0.06250000 </v>
   </varray>
  </crystal>
  <varray name="positions" >
   <v>       0.66666667       0.33333333       0.46118284 </v>
   <v>       0.33333333       0.66666667       0.53881716 </v>
  </varray>
 </structure>
</modeling>
