unknown system                          
           1
     3.282343    0.000000    0.000000
    -1.641172    2.842593    0.000000
     0.000000    0.000000   16.000000
   P 
     2
Direct configuration=     1
   0.66666667  0.33333333  0.46118284
   0.33333333  0.66666667  0.53881716
