nqpoint: 300    
npath: 3      
segment_nqpoint:
- 100
- 100
- 100
reciprocal_lattice:
- [   0.27724696,   0.16006861,   0.00000000 ] # a*
- [   0.00000000,   0.32013722,   0.00000000 ] # b*
- [   0.00000000,   0.00000000,   0.06250000 ] # c*
natom: 2      
lattice:
- [     3.606892538962959,     0.000000000000000,     0.000000000000000 ] # a
- [    -1.803446269481479,     3.123660567462475,     0.000000000000000 ] # b
- [     0.000000000000000,     0.000000000000000,    16.000000000000000 ] # c
points:
- symbol: H  # 1
  coordinates: [  0.666666666666664,  0.333333333333336,  0.456343135609146 ]
  mass: 1.007940
- symbol: H  # 2
  coordinates: [  0.333333333333336,  0.666666666666664,  0.543656864390854 ]
  mass: 1.007940

phonon:
- q-position: [    0.0000000,    0.0000000,    0.0000000 ]
  distance:    0.0000000
  band:
  - # 1
    frequency:   -0.0009585373
    eigenvector:
    - # atom 1
      - [  0.00000000000000,  0.00000000000000 ]
      - [ -0.16245969343357,  0.00000000000000 ]
      - [ -0.68819099675124,  0.00000000000000 ]
    - # atom 2
      - [  0.00000000000000,  0.00000000000000 ]
      - [ -0.16245969343357,  0.00000000000000 ]
      - [ -0.68819099675124,  0.00000000000000 ]
  - # 2
    frequency:    0.0014933031
    eigenvector:
    - # atom 1
      - [ -0.70710678118655,  0.00000000000000 ]
      - [  0.00000000000000,  0.00000000000000 ]
      - [  0.00000000000000,  0.00000000000000 ]
    - # atom 2
      - [ -0.70710678118655,  0.00000000000000 ]
      - [  0.00000000000000,  0.00000000000000 ]
      - [  0.00000000000000,  0.00000000000000 ]
  - # 3
    frequency:    0.0015509443
    eigenvector:
    - # atom 1
      - [  0.00000000000000,  0.00000000000000 ]
      - [ -0.68819099675124,  0.00000000000000 ]
      - [  0.16245969343357,  0.00000000000000 ]
    - # atom 2
      - [  0.00000000000000,  0.00000000000000 ]
      - [ -0.68819099675124,  0.00000000000000 ]
      - [  0.16245969343357,  0.00000000000000 ]
  - # 4
    frequency:   61.0546166232
    eigenvector:
    - # atom 1
      - [ -0.70710678118655,  0.00000000000000 ]
      - [  0.00000000000000,  0.00000000000000 ]
      - [  0.00000000000000,  0.00000000000000 ]
    - # atom 2
      - [  0.70710678118655,  0.00000000000000 ]
      - [  0.00000000000000,  0.00000000000000 ]
      - [  0.00000000000000,  0.00000000000000 ]
  - # 5
    frequency:   61.0546166232
    eigenvector:
    - # atom 1
      - [  0.00000000000000,  0.00000000000000 ]
      - [ -0.70710678118655,  0.00000000000000 ]
      - [  0.00000000021205,  0.00000000000000 ]
    - # atom 2
      - [  0.00000000000000,  0.00000000000000 ]
      - [  0.70710678118655,  0.00000000000000 ]
      - [ -0.00000000021205,  0.00000000000000 ]
  - # 6
    frequency:   78.7802493971
    eigenvector:
    - # atom 1
      - [  0.00000000000000,  0.00000000000000 ]
      - [  0.00000000021205,  0.00000000000000 ]
      - [  0.70710678118655,  0.00000000000000 ]
    - # atom 2
      - [  0.00000000000000,  0.00000000000000 ]
      - [ -0.00000000021205,  0.00000000000000 ]
      - [ -0.70710678118655,  0.00000000000000 ]

- q-position: [    0.0067340,   -0.0033670,    0.0000000 ]
  distance:    0.0018670
  band:
  - # 1
    frequency:    0.1696011193
    eigenvector:
    - # atom 1
      - [  0.00627525121623,  0.00000000000000 ]
      - [  0.00000000000152, -0.00663811932972 ]
      - [  0.00000000001366, -0.70704777532635 ]
    - # atom 2
      - [ -0.00627525121617, -0.00000000000025 ]
      - [  0.00000000000044, -0.00663811932972 ]
      - [  0.00000000001366, -0.70704777532635 ]
  - # 2
    frequency:    0.4366406716
    eigenvector:
    - # atom 1
      - [  0.00249824212499,  0.00000000000000 ]
      - [ -0.00000001701534, -0.70707099812764 ]
      - [  0.00000000016114,  0.00666050997037 ]
    - # atom 2
      - [ -0.00249824212495,  0.00000000012022 ]
      - [ -0.00000001701445, -0.70707099812764 ]
      - [  0.00000000016112,  0.00666050997036 ]
  - # 3
    frequency:    0.7017672196
    eigenvector:
    - # atom 1
      - [  0.70709465351706,  0.00000000000000 ]
      - [  0.00000000006011,  0.00255771800100 ]
      - [ -0.00000000000069,  0.00325715308467 ]
    - # atom 2
      - [  0.70709465351706, -0.00000000000087 ]
      - [  0.00000000006010, -0.00255771800097 ]
      - [ -0.00000000000070, -0.00325715308462 ]
  - # 4
    frequency:   61.0525950276
    eigenvector:
    - # atom 1
      - [ -0.00255803765205,  0.00000000000000 ]
      - [  0.00000001733889,  0.70710215132642 ]
      - [  0.00000000000157,  0.00006350523240 ]
    - # atom 2
      - [ -0.00255803765201,  0.00000000012545 ]
      - [ -0.00000001733800, -0.70710215132642 ]
      - [ -0.00000000000154, -0.00006350523240 ]
  - # 5
    frequency:   61.0548583291
    eigenvector:
    - # atom 1
      - [ -0.70707452224533,  0.00000000000000 ]
      - [ -0.00000000006272, -0.00255714265243 ]
      - [ -0.00000000000002, -0.00625148086429 ]
    - # atom 2
      - [  0.70707452224533, -0.00000000000090 ]
      - [  0.00000000006272, -0.00255714265239 ]
      - [  0.00000000000001, -0.00625148086429 ]
  - # 6
    frequency:   78.7744328680
    eigenvector:
    - # atom 1
      - [ -0.00325690204952,  0.00000000000000 ]
      - [ -0.00000000000028, -0.00007528725780 ]
      - [  0.00000000000283,  0.70709927656650 ]
    - # atom 2
      - [ -0.00325690204952,  0.00000000000003 ]
      - [ -0.00000000000028,  0.00007528725780 ]
      - [ -0.00000000000283, -0.70709927656650 ]

- q-position: [    0.0134680,   -0.0067340,    0.0000000 ]
  distance:    0.0037340
  band:
  - # 1
    frequency:    0.3391901839
    eigenvector:
    - # atom 1
      - [  0.01254843475817,  0.00000000000000 ]
      - [  0.00000000000106, -0.00658519146670 ]
      - [ -0.00000000000062, -0.70696476011076 ]
    - # atom 2
      - [ -0.01254843475820,  0.00000000000002 ]
      - [ -0.00000000000110, -0.00658519146670 ]
      - [ -0.00000000000063, -0.70696476011076 ]
  - # 2
    frequency:    0.8731094642
    eigenvector:
    - # atom 1
      - [  0.00499693280025,  0.00000000000000 ]
      - [ -0.00000000868978, -0.70705762025901 ]
      - [  0.00000000008201,  0.00667475065078 ]
    - # atom 2
      - [ -0.00499693280028,  0.00000000012281 ]
      - [ -0.00000000868799, -0.70705762025901 ]
      - [  0.00000000008201,  0.00667475065078 ]
  - # 3
    frequency:    1.4030234350
    eigenvector:
    - # atom 1
      - [  0.70705820847279,  0.00000000000000 ]
      - [  0.00000000006141,  0.00511898392865 ]
      - [ -0.00000000000058,  0.00651811589253 ]
    - # atom 2
      - [  0.70705820847279, -0.00000000000175 ]
      - [  0.00000000006140, -0.00511898392868 ]
      - [ -0.00000000000059, -0.00651811589256 ]
  - # 4
    frequency:   61.0465313282
    eigenvector:
    - # atom 1
      - [ -0.00512154257167,  0.00000000000000 ]
      - [  0.00000000842854,  0.70708818776883 ]
      - [  0.00000000000302,  0.00025400683718 ]
    - # atom 2
      - [ -0.00512154257165,  0.00000000012209 ]
      - [ -0.00000000842677, -0.70708818776883 ]
      - [ -0.00000000000303, -0.00025400683718 ]
  - # 5
    frequency:   61.0555822397
    eigenvector:
    - # atom 1
      - [ -0.70697777012273,  0.00000000000000 ]
      - [ -0.00000000006104, -0.00511438041286 ]
      - [ -0.00000000000008, -0.01250102656918 ]
    - # atom 2
      - [  0.70697777012273, -0.00000000000177 ]
      - [  0.00000000006103, -0.00511438041285 ]
      - [  0.00000000000005, -0.01250102656918 ]
  - # 6
    frequency:   78.7569936345
    eigenvector:
    - # atom 1
      - [ -0.00651610565731,  0.00000000000000 ]
      - [ -0.00000000000057, -0.00030119980876 ]
      - [  0.00000000000567,  0.70707669290236 ]
    - # atom 2
      - [ -0.00651610565731,  0.00000000000010 ]
      - [ -0.00000000000056,  0.00030119980876 ]
      - [ -0.00000000000567, -0.70707669290236 ]

- q-position: [    0.0202020,   -0.0101010,    0.0000000 ]
  distance:    0.0056009
  band:
  - # 1
    frequency:    0.5087487615
    eigenvector:
    - # atom 1
      - [  0.01881751738891,  0.00000000000000 ]
      - [  0.00000000000181, -0.00650011215577 ]
      - [ -0.00000000000093, -0.70682646355473 ]
    - # atom 2
      - [ -0.01881751738888,  0.00000000000005 ]
      - [ -0.00000000000143, -0.00650011215577 ]
      - [ -0.00000000000094, -0.70682646355473 ]
  - # 2
    frequency:    1.3092434470
    eigenvector:
    - # atom 1
      - [  0.00749643638030,  0.00000000000000 ]
      - [ -0.00000000579885, -0.70703528335527 ]
      - [  0.00000000005515,  0.00670160669709 ]
    - # atom 2
      - [ -0.00749643638029,  0.00000000012293 ]
      - [ -0.00000000579615, -0.70703528335527 ]
      - [  0.00000000005515,  0.00670160669709 ]
  - # 3
    frequency:    2.1032630103
    eigenvector:
    - # atom 1
      - [  0.70699725964234,  0.00000000000000 ]
      - [  0.00000000006147,  0.00768734896480 ]
      - [ -0.00000000000058,  0.00978670139065 ]
    - # atom 2
      - [  0.70699725964234, -0.00000000000263 ]
      - [  0.00000000006144, -0.00768734896479 ]
      - [ -0.00000000000061, -0.00978670139063 ]
  - # 4
    frequency:   61.0364287991
    eigenvector:
    - # atom 1
      - [ -0.00769599241460,  0.00000000000000 ]
      - [  0.00000000559945,  0.70706466828361 ]
      - [  0.00000000000452,  0.00057145930507 ]
    - # atom 2
      - [ -0.00769599241460,  0.00000000012187 ]
      - [ -0.00000000559680, -0.70706466828361 ]
      - [ -0.00000000000453, -0.00057145930507 ]
  - # 5
    frequency:   61.0567847292
    eigenvector:
    - # atom 1
      - [ -0.70681659890025,  0.00000000000000 ]
      - [ -0.00000000006092, -0.00767180765456 ]
      - [ -0.00000000000018, -0.01874670334743 ]
    - # atom 2
      - [  0.70681659890025, -0.00000000000266 ]
      - [  0.00000000006090, -0.00767180765457 ]
      - [  0.00000000000011, -0.01874670334743 ]
  - # 6
    frequency:   78.7279627447
    eigenvector:
    - # atom 1
      - [ -0.00977990587739,  0.00000000000000 ]
      - [ -0.00000000000086, -0.00067788706756 ]
      - [  0.00000000000851,  0.70703882065284 ]
    - # atom 2
      - [ -0.00977990587739,  0.00000000000024 ]
      - [ -0.00000000000084,  0.00067788706756 ]
      - [ -0.00000000000851, -0.70703882065284 ]

- q-position: [    0.0269360,   -0.0134680,    0.0000000 ]
  distance:    0.0074679
  band:
  - # 1
    frequency:    0.6782651818
    eigenvector:
    - # atom 1
      - [  0.02508043823729,  0.00000000000000 ]
      - [  0.00000000000216, -0.00638075053147 ]
      - [ -0.00000000000095, -0.70663304312810 ]
    - # atom 2
      - [ -0.02508043823729,  0.00000000000007 ]
      - [ -0.00000000000215, -0.00638075053147 ]
      - [ -0.00000000000097, -0.70663304312810 ]
  - # 2
    frequency:    1.7448751047
    eigenvector:
    - # atom 1
      - [  0.00999719137074,  0.00000000000000 ]
      - [ -0.00000000434842, -0.70700399079373 ]
      - [  0.00000000004144,  0.00673892917553 ]
    - # atom 2
      - [ -0.00999719137075,  0.00000000012292 ]
      - [ -0.00000000434482, -0.70700399079373 ]
      - [  0.00000000004145,  0.00673892917553 ]
  - # 3
    frequency:    2.8019771450
    eigenvector:
    - # atom 1
      - [  0.70691149532741,  0.00000000000000 ]
      - [  0.00000000006147,  0.01026637072732 ]
      - [ -0.00000000000058,  0.01306672897285 ]
    - # atom 2
      - [  0.70691149532741, -0.00000000000351 ]
      - [  0.00000000006142, -0.01026637072733 ]
      - [ -0.00000000000065, -0.01306672897285 ]
  - # 4
    frequency:   61.0222929352
    eigenvector:
    - # atom 1
      - [ -0.01028688548780,  0.00000000000000 ]
      - [  0.00000000419231,  0.70703122149661 ]
      - [  0.00000000000601,  0.00101578342962 ]
    - # atom 2
      - [ -0.01028688548781,  0.00000000012194 ]
      - [ -0.00000000418877, -0.70703122149661 ]
      - [ -0.00000000000603, -0.00101578342962 ]
  - # 5
    frequency:   61.0584597378
    eigenvector:
    - # atom 1
      - [ -0.70659113197274,  0.00000000000000 ]
      - [ -0.00000000006096, -0.01022951730978 ]
      - [ -0.00000000000033, -0.02498658025995 ]
    - # atom 2
      - [  0.70659113197274, -0.00000000000355 ]
      - [  0.00000000006091, -0.01022951730979 ]
      - [  0.00000000000020, -0.02498658025995 ]
  - # 6
    frequency:   78.6873919023
    eigenvector:
    - # atom 1
      - [ -0.01305058469654,  0.00000000000000 ]
      - [ -0.00000000000115, -0.00120559574662 ]
      - [  0.00000000001137,  0.70698531015713 ]
    - # atom 2
      - [ -0.01305058469654,  0.00000000000042 ]
      - [ -0.00000000000111,  0.00120559574662 ]
      - [ -0.00000000001135, -0.70698531015713 ]

- q-position: [    0.0336700,   -0.0168350,    0.0000000 ]
  distance:    0.0093349
  band:
  - # 1
    frequency:    0.8477304700
    eigenvector:
    - # atom 1
      - [  0.03133513179248,  0.00000000000000 ]
      - [  0.00000000000272, -0.00622620175447 ]
      - [ -0.00000000000200, -0.70638469966956 ]
    - # atom 2
      - [ -0.03133513179248,  0.00000000000018 ]
      - [ -0.00000000000267, -0.00622620175447 ]
      - [ -0.00000000000203, -0.70638469966956 ]
  - # 2
    frequency:    2.1798385857
    eigenvector:
    - # atom 1
      - [  0.01249965530021,  0.00000000000000 ]
      - [ -0.00000000348529, -0.70696372728190 ]
      - [  0.00000000003347,  0.00678578846284 ]
    - # atom 2
      - [ -0.01249965530020,  0.00000000012316 ]
      - [ -0.00000000348077, -0.70696372728190 ]
      - [  0.00000000003348,  0.00678578846284 ]
  - # 3
    frequency:    3.4986575739
    eigenvector:
    - # atom 1
      - [  0.70680047702583,  0.00000000000000 ]
      - [  0.00000000006160,  0.01285961630217 ]
      - [ -0.00000000000055,  0.01636202752165 ]
    - # atom 2
      - [  0.70680047702583, -0.00000000000439 ]
      - [  0.00000000006152, -0.01285961630216 ]
      - [ -0.00000000000065, -0.01636202752165 ]
  - # 4
    frequency:   61.0041315099
    eigenvector:
    - # atom 1
      - [ -0.01289975076001,  0.00000000000000 ]
      - [  0.00000000333725,  0.70698732541967 ]
      - [  0.00000000000747,  0.00158686050785 ]
    - # atom 2
      - [ -0.01289975076002,  0.00000000012170 ]
      - [ -0.00000000333282, -0.70698732541967 ]
      - [ -0.00000000000750, -0.00158686050785 ]
  - # 5
    frequency:   61.0605987470
    eigenvector:
    - # atom 1
      - [ -0.70630154193016,  0.00000000000000 ]
      - [ -0.00000000006083, -0.01278760022048 ]
      - [ -0.00000000000051, -0.03121873071855 ]
    - # atom 2
      - [  0.70630154193016, -0.00000000000444 ]
      - [  0.00000000006075, -0.01278760022049 ]
      - [  0.00000000000032, -0.03121873071855 ]
  - # 6
    frequency:   78.6353534011
    eigenvector:
    - # atom 1
      - [ -0.01633040435469,  0.00000000000000 ]
      - [ -0.00000000000145, -0.00188466562100 ]
      - [  0.00000000001425,  0.70691567101678 ]
    - # atom 2
      - [ -0.01633040435469,  0.00000000000066 ]
      - [ -0.00000000000138,  0.00188466562100 ]
      - [ -0.00000000001421, -0.70691567101678 ]

- q-position: [    0.0404040,   -0.0202020,    0.0000000 ]
  distance:    0.0112019
  band:
  - # 1
    frequency:    1.0171397165
    eigenvector:
    - # atom 1
      - [  0.03757952400327,  0.00000000000000 ]
      - [  0.00000000000319, -0.00603551303204 ]
      - [ -0.00000000000256, -0.70608168929532 ]
    - # atom 2
      - [ -0.03757952400327,  0.00000000000027 ]
      - [ -0.00000000000327, -0.00603551303204 ]
      - [ -0.00000000000259, -0.70608168929532 ]
  - # 2
    frequency:    2.6139696528
    eigenvector:
    - # atom 1
      - [  0.01500431746735,  0.00000000000000 ]
      - [ -0.00000000291176, -0.70691447037754 ]
      - [  0.00000000002812,  0.00684120078477 ]
    - # atom 2
      - [ -0.01500431746735,  0.00000000012349 ]
      - [ -0.00000000290631, -0.70691447037754 ]
      - [  0.00000000002815,  0.00684120078477 ]
  - # 3
    frequency:    4.1927963735
    eigenvector:
    - # atom 1
      - [  0.70666363731227,  0.00000000000000 ]
      - [  0.00000000006178,  0.01547066504815 ]
      - [ -0.00000000000053,  0.01967643828447 ]
    - # atom 2
      - [  0.70666363731227, -0.00000000000528 ]
      - [  0.00000000006166, -0.01547066504815 ]
      - [ -0.00000000000068, -0.01967643828448 ]
  - # 4
    frequency:   60.9819546563
    eigenvector:
    - # atom 1
      - [ -0.01554015748652,  0.00000000000000 ]
      - [  0.00000000276398,  0.70693230542479 ]
      - [  0.00000000000890,  0.00228452447750 ]
    - # atom 2
      - [ -0.01554015748652,  0.00000000012140 ]
      - [ -0.00000000275867, -0.70693230542479 ]
      - [ -0.00000000000895, -0.00228452447750 ]
  - # 5
    frequency:   61.0631907466
    eigenvector:
    - # atom 1
      - [ -0.70594805037837,  0.00000000000000 ]
      - [ -0.00000000006067, -0.01534614457376 ]
      - [ -0.00000000000074, -0.03744123413691 ]
    - # atom 2
      - [  0.70594805037837, -0.00000000000534 ]
      - [  0.00000000006055, -0.01534614457376 ]
      - [  0.00000000000046, -0.03744123413691 ]
  - # 6
    frequency:   78.5719400320
    eigenvector:
    - # atom 1
      - [ -0.01962160049254,  0.00000000000000 ]
      - [ -0.00000000000177, -0.00271552384676 ]
      - [  0.00000000001715,  0.70682927127019 ]
    - # atom 2
      - [ -0.01962160049254,  0.00000000000095 ]
      - [ -0.00000000000163,  0.00271552384676 ]
      - [ -0.00000000001708, -0.70682927127019 ]

- q-position: [    0.0471380,   -0.0235690,    0.0000000 ]
  distance:    0.0130689
  band:
  - # 1
    frequency:    1.1864930839
    eigenvector:
    - # atom 1
      - [  0.04381153013733,  0.00000000000000 ]
      - [  0.00000000000373, -0.00580756689177 ]
      - [ -0.00000000000304, -0.70572432436031 ]
    - # atom 2
      - [ -0.04381153013733,  0.00000000000038 ]
      - [ -0.00000000000379, -0.00580756689177 ]
      - [ -0.00000000000307, -0.70572432436031 ]
  - # 2
    frequency:    3.0471059970
    eigenvector:
    - # atom 1
      - [  0.01751170767517,  0.00000000000000 ]
      - [ -0.00000000250181, -0.70685619096838 ]
      - [  0.00000000002438,  0.00690401216494 ]
    - # atom 2
      - [ -0.01751170767517,  0.00000000012380 ]
      - [ -0.00000000249542, -0.70685619096838 ]
      - [  0.00000000002442,  0.00690401216494 ]
  - # 3
    frequency:    4.8838859951
    eigenvector:
    - # atom 1
      - [  0.70650027712159,  0.00000000000000 ]
      - [  0.00000000006195,  0.01810311109369 ]
      - [ -0.00000000000051,  0.02301381749841 ]
    - # atom 2
      - [  0.70650027712159, -0.00000000000617 ]
      - [  0.00000000006179, -0.01810311109369 ]
      - [ -0.00000000000071, -0.02301381749840 ]
  - # 4
    frequency:   60.9557749730
    eigenvector:
    - # atom 1
      - [ -0.01821372430712,  0.00000000000000 ]
      - [  0.00000000235200,  0.70686533169547 ]
      - [  0.00000000001029,  0.00310855174047 ]
    - # atom 2
      - [ -0.01821372430712,  0.00000000012105 ]
      - [ -0.00000000234580, -0.70686533169547 ]
      - [ -0.00000000001037, -0.00310855174047 ]
  - # 5
    frequency:   61.0662221923
    eigenvector:
    - # atom 1
      - [ -0.70553092768590,  0.00000000000000 ]
      - [ -0.00000000006048, -0.01790523544865 ]
      - [ -0.00000000000101, -0.04365217774869 ]
    - # atom 2
      - [  0.70553092768590, -0.00000000000624 ]
      - [  0.00000000006032, -0.01790523544866 ]
      - [  0.00000000000062, -0.04365217774869 ]
  - # 6
    frequency:   78.4972649622
    eigenvector:
    - # atom 1
      - [ -0.02292637507292,  0.00000000000000 ]
      - [ -0.00000000000209, -0.00369867757296 ]
      - [  0.00000000002007,  0.70672533640038 ]
    - # atom 2
      - [ -0.02292637507292,  0.00000000000130 ]
      - [ -0.00000000000188,  0.00369867757296 ]
      - [ -0.00000000001996, -0.70672533640038 ]

- q-position: [    0.0538721,   -0.0269360,    0.0000000 ]
  distance:    0.0149359
  band:
  - # 1
    frequency:    1.3557967220
    eigenvector:
    - # atom 1
      - [  0.05002905305897,  0.00000000000000 ]
      - [  0.00000000000427, -0.00554106061276 ]
      - [ -0.00000000000359, -0.70531297343613 ]
    - # atom 2
      - [ -0.05002905305897,  0.00000000000051 ]
      - [ -0.00000000000433, -0.00554106061276 ]
      - [ -0.00000000000361, -0.70531297343612 ]
  - # 2
    frequency:    3.4790875933
    eigenvector:
    - # atom 1
      - [  0.02002240440408,  0.00000000000000 ]
      - [ -0.00000000219534, -0.70678885268840 ]
      - [  0.00000000002159,  0.00697287869457 ]
    - # atom 2
      - [ -0.02002240440409,  0.00000000012418 ]
      - [ -0.00000000218800, -0.70678885268840 ]
      - [  0.00000000002165,  0.00697287869457 ]
  - # 3
    frequency:    5.5714193259
    eigenvector:
    - # atom 1
      - [  0.70630956244226,  0.00000000000000 ]
      - [  0.00000000006215,  0.02076056543904 ]
      - [ -0.00000000000048,  0.02637803869270 ]
    - # atom 2
      - [  0.70630956244226, -0.00000000000706 ]
      - [  0.00000000006194, -0.02076056543905 ]
      - [ -0.00000000000074, -0.02637803869270 ]
  - # 4
    frequency:   60.9256076545
    eigenvector:
    - # atom 1
      - [ -0.02092612766527,  0.00000000000000 ]
      - [  0.00000000204195,  0.70678541619948 ]
      - [  0.00000000001164,  0.00405864862593 ]
    - # atom 2
      - [ -0.02092612766527,  0.00000000012070 ]
      - [ -0.00000000203486, -0.70678541619948 ]
      - [ -0.00000000001177, -0.00405864862593 ]
  - # 5
    frequency:   61.0696769572
    eigenvector:
    - # atom 1
      - [ -0.70505049264000,  0.00000000000000 ]
      - [ -0.00000000006029, -0.02046495450021 ]
      - [ -0.00000000000132, -0.04984965862875 ]
    - # atom 2
      - [  0.70505049264000, -0.00000000000715 ]
      - [  0.00000000006009, -0.02046495450020 ]
      - [  0.00000000000082, -0.04984965862875 ]
  - # 6
    frequency:   78.4114615839
    eigenvector:
    - # atom 1
      - [ -0.02624688902631,  0.00000000000000 ]
      - [ -0.00000000000243, -0.00483470478758 ]
      - [  0.00000000002303,  0.70660294822910 ]
    - # atom 2
      - [ -0.02624688902631,  0.00000000000170 ]
      - [ -0.00000000000212,  0.00483470478758 ]
      - [ -0.00000000002286, -0.70660294822910 ]

- q-position: [    0.0606061,   -0.0303030,    0.0000000 ]
  distance:    0.0168028
  band:
  - # 1
    frequency:    1.5250636083
    eigenvector:
    - # atom 1
      - [  0.05622998180575,  0.00000000000000 ]
      - [  0.00000000000480, -0.00523450245425 ]
      - [ -0.00000000000414, -0.70484806102463 ]
    - # atom 2
      - [ -0.05622998180575,  0.00000000000066 ]
      - [ -0.00000000000486, -0.00523450245425 ]
      - [ -0.00000000000416, -0.70484806102463 ]
  - # 2
    frequency:    3.9097570611
    eigenvector:
    - # atom 1
      - [  0.02253704279563,  0.00000000000000 ]
      - [ -0.00000000195981, -0.70671241100528 ]
      - [  0.00000000001945,  0.00704626377065 ]
    - # atom 2
      - [ -0.02253704279563,  0.00000000012473 ]
      - [ -0.00000000195150, -0.70671241100528 ]
      - [  0.00000000001955,  0.00704626377065 ]
  - # 3
    frequency:    6.2548897555
    eigenvector:
    - # atom 1
      - [  0.70609052043038,  0.00000000000000 ]
      - [  0.00000000006245,  0.02344665757188 ]
      - [ -0.00000000000044,  0.02977299459341 ]
    - # atom 2
      - [  0.70609052043038, -0.00000000000796 ]
      - [  0.00000000006219, -0.02344665757188 ]
      - [ -0.00000000000078, -0.02977299459341 ]
  - # 4
    frequency:   60.8914706483
    eigenvector:
    - # atom 1
      - [ -0.02368310938324,  0.00000000000000 ]
      - [  0.00000000179603,  0.70669140923912 ]
      - [  0.00000000001293,  0.00513443644124 ]
    - # atom 2
      - [ -0.02368310938324,  0.00000000012011 ]
      - [ -0.00000000178807, -0.70669140923912 ]
      - [ -0.00000000001311, -0.00513443644124 ]
  - # 5
    frequency:   61.0735362775
    eigenvector:
    - # atom 1
      - [ -0.70450711199260,  0.00000000000000 ]
      - [ -0.00000000005998, -0.02302537980477 ]
      - [ -0.00000000000168, -0.05603178594952 ]
    - # atom 2
      - [  0.70450711199260, -0.00000000000806 ]
      - [  0.00000000005972, -0.02302537980478 ]
      - [  0.00000000000104, -0.05603178594952 ]
  - # 6
    frequency:   78.3146833313
    eigenvector:
    - # atom 1
      - [ -0.02958525457544,  0.00000000000000 ]
      - [ -0.00000000000279, -0.00612424332753 ]
      - [  0.00000000002602,  0.70646104376347 ]
    - # atom 2
      - [ -0.02958525457544,  0.00000000000217 ]
      - [ -0.00000000000234,  0.00612424332753 ]
      - [ -0.00000000002578, -0.70646104376347 ]

- q-position: [    0.0673401,   -0.0336700,    0.0000000 ]
  distance:    0.0186698
  band:
  - # 1
    frequency:    1.6943143122
    eigenvector:
    - # atom 1
      - [  0.06241219046124,  0.00000000000000 ]
      - [  0.00000000000533, -0.00488621226068 ]
      - [ -0.00000000000465, -0.70433006709324 ]
    - # atom 2
      - [ -0.06241219046124,  0.00000000000082 ]
      - [ -0.00000000000538, -0.00488621226068 ]
      - [ -0.00000000000466, -0.70433006709324 ]
  - # 2
    frequency:    4.3389600214
    eigenvector:
    - # atom 1
      - [  0.02505632251030,  0.00000000000000 ]
      - [ -0.00000000177034, -0.70662681208136 ]
      - [  0.00000000001774,  0.00712243989014 ]
    - # atom 2
      - [ -0.02505632251030,  0.00000000012522 ]
      - [ -0.00000000176103, -0.70662681208136 ]
      - [  0.00000000001787,  0.00712243989014 ]
  - # 3
    frequency:    6.9337912446
    eigenvector:
    - # atom 1
      - [  0.70584203495879,  0.00000000000000 ]
      - [  0.00000000006272,  0.02616503649668 ]
      - [ -0.00000000000040,  0.03320259854828 ]
    - # atom 2
      - [  0.70584203495879, -0.00000000000887 ]
      - [  0.00000000006239, -0.02616503649668 ]
      - [ -0.00000000000082, -0.03320259854829 ]
  - # 4
    frequency:   60.8533848384
    eigenvector:
    - # atom 1
      - [ -0.02649048321232,  0.00000000000000 ]
      - [  0.00000000159974,  0.70658199564842 ]
      - [  0.00000000001418,  0.00633543405603 ]
    - # atom 2
      - [ -0.02649048321233,  0.00000000011962 ]
      - [ -0.00000000159089, -0.70658199564842 ]
      - [ -0.00000000001443, -0.00633543405603 ]
  - # 5
    frequency:   61.0777786925
    eigenvector:
    - # atom 1
      - [ -0.70390119987402,  0.00000000000000 ]
      - [ -0.00000000005971, -0.02558658588933 ]
      - [ -0.00000000000208, -0.06219668350031 ]
    - # atom 2
      - [  0.70390119987402, -0.00000000000899 ]
      - [  0.00000000005939, -0.02558658588934 ]
      - [  0.00000000000129, -0.06219668350031 ]
  - # 6
    frequency:   78.2071034646
    eigenvector:
    - # atom 1
      - [ -0.03294352720048,  0.00000000000000 ]
      - [ -0.00000000000316, -0.00756797797487 ]
      - [  0.00000000002906,  0.70629841407507 ]
    - # atom 2
      - [ -0.03294352720048,  0.00000000000269 ]
      - [ -0.00000000000254,  0.00756797797487 ]
      - [ -0.00000000002872, -0.70629841407507 ]

- q-position: [    0.0740741,   -0.0370370,    0.0000000 ]
  distance:    0.0205368
  band:
  - # 1
    frequency:    1.8635776727
    eigenvector:
    - # atom 1
      - [  0.06857353733709,  0.00000000000000 ]
      - [  0.00000000000587, -0.00449432360943 ]
      - [ -0.00000000000517, -0.70375952642389 ]
    - # atom 2
      - [ -0.06857353733709,  0.00000000000101 ]
      - [ -0.00000000000591, -0.00449432360943 ]
      - [ -0.00000000000518, -0.70375952642389 ]
  - # 2
    frequency:    4.7665454490
    eigenvector:
    - # atom 1
      - [  0.02758101546725,  0.00000000000000 ]
      - [ -0.00000000161692, -0.70653199141880 ]
      - [  0.00000000001635,  0.00719949217531 ]
    - # atom 2
      - [ -0.02758101546725,  0.00000000012583 ]
      - [ -0.00000000160661, -0.70653199141880 ]
      - [  0.00000000001653,  0.00719949217531 ]
  - # 3
    frequency:    7.6076183952
    eigenvector:
    - # atom 1
      - [  0.70556284162099,  0.00000000000000 ]
      - [  0.00000000006305,  0.02891937107022 ]
      - [ -0.00000000000036,  0.03667078538314 ]
    - # atom 2
      - [  0.70556284162099, -0.00000000000978 ]
      - [  0.00000000006265, -0.02891937107022 ]
      - [ -0.00000000000087, -0.03667078538314 ]
  - # 4
    frequency:   60.8113742574
    eigenvector:
    - # atom 1
      - [ -0.02935414015870,  0.00000000000000 ]
      - [  0.00000000143699,  0.70645569072152 ]
      - [  0.00000000001537,  0.00766103796625 ]
    - # atom 2
      - [ -0.02935414015871,  0.00000000011901 ]
      - [ -0.00000000142726, -0.70645569072152 ]
      - [ -0.00000000001569, -0.00766103796625 ]
  - # 5
    frequency:   61.0823799837
    eigenvector:
    - # atom 1
      - [ -0.70323321705027,  0.00000000000000 ]
      - [ -0.00000000005938, -0.02814864396522 ]
      - [ -0.00000000000253, -0.06834249249219 ]
    - # atom 2
      - [  0.70323321705027, -0.00000000000992 ]
      - [  0.00000000005899, -0.02814864396522 ]
      - [  0.00000000000156, -0.06834249249219 ]
  - # 6
    frequency:   78.0889148167
    eigenvector:
    - # atom 1
      - [ -0.03632369721348,  0.00000000000000 ]
      - [ -0.00000000000356, -0.00916662555580 ]
      - [  0.00000000003214,  0.70611370330611 ]
    - # atom 2
      - [ -0.03632369721348,  0.00000000000328 ]
      - [ -0.00000000000273,  0.00916662555580 ]
      - [ -0.00000000003169, -0.70611370330611 ]

- q-position: [    0.0808081,   -0.0404040,    0.0000000 ]
  distance:    0.0224038
  band:
  - # 1
    frequency:    2.0328913804
    eigenvector:
    - # atom 1
      - [  0.07471186447630,  0.00000000000000 ]
      - [  0.00000000000638, -0.00405678667074 ]
      - [ -0.00000000000566, -0.70313702774664 ]
    - # atom 2
      - [ -0.07471186447630,  0.00000000000120 ]
      - [ -0.00000000000645, -0.00405678667074 ]
      - [ -0.00000000000566, -0.70313702774664 ]
  - # 2
    frequency:    5.1923660167
    eigenvector:
    - # atom 1
      - [  0.03011197345926,  0.00000000000000 ]
      - [ -0.00000000148926, -0.70642787227884 ]
      - [  0.00000000001516,  0.00727532280969 ]
    - # atom 2
      - [ -0.03011197345926,  0.00000000012648 ]