mesh: [    48,    48,     1 ]
nqpoint: 217    
reciprocal_lattice:
- [   0.27724696,   0.16006861,   0.00000000 ] # a*
- [   0.00000000,   0.32013722,   0.00000000 ] # b*
- [   0.00000000,   0.00000000,   0.06250000 ] # c*
natom:   2      
lattice:
- [     3.606892538962959,     0.000000000000000,     0.000000000000000 ] # a
- [    -1.803446269481479,     3.123660567462475,     0.000000000000000 ] # b
- [     0.000000000000000,     0.000000000000000,    16.000000000000000 ] # c
points:
- symbol: H  # 1
  coordinates: [  0.666666666666664,  0.333333333333336,  0.456343135609146 ]
  mass: 1.007940
- symbol: H  # 2
  coordinates: [  0.333333333333336,  0.666666666666664,  0.543656864390854 ]
  mass: 1.007940

phonon:
- q-position: [    0.0000000,    0.0000000,    0.0000000 ]
  distance_from_gamma:  0.000000000
  weight: 1    
  band:
  - # 1
    frequency:    -0.0009585369
  - # 2
    frequency:     0.0014933031
  - # 3
    frequency:     0.0015509443
  - # 4
    frequency:    61.0546166232
  - # 5
    frequency:    61.0546166232
  - # 6
    frequency:    78.7802493971

- q-position: [    0.0208333,    0.0000000,    0.0000000 ]
  distance_from_gamma:  0.006669525
  weight: 6    
  band:
  - # 1
    frequency:     0.6058773774
  - # 2
    frequency:     1.5573897221
  - # 3
    frequency:     2.5041548274
  - # 4
    frequency:    61.0288594682
  - # 5
    frequency:    61.0576577558
  - # 6
    frequency:    78.7061500862

- q-position: [    0.0416667,    0.0000000,    0.0000000 ]
  distance_from_gamma:  0.013339051
  weight: 6    
  band:
  - # 1
    frequency:     1.2111496714
  - # 2
    frequency:     3.0999420553
  - # 3
    frequency:     4.9896132732
  - # 4
    frequency:    60.9521039966
  - # 5
    frequency:    61.0662417791
  - # 6
    frequency:    78.4855424813

- q-position: [    0.0625000,    0.0000000,    0.0000000 ]
  distance_from_gamma:  0.020008576
  weight: 6    
  band:
  - # 1
    frequency:     1.8155602447
  - # 2
    frequency:     4.6130019514
  - # 3
    frequency:     7.4377103671
  - # 4
    frequency:    60.8258947856
  - # 5
    frequency:    61.0787312079
  - # 6
    frequency:    78.1235201650

- q-position: [    0.0833333,    0.0000000,    0.0000000 ]
  distance_from_gamma:  0.026678101
  weight: 6    
  band:
  - # 1
    frequency:     2.4195293129
  - # 2
    frequency:     6.0822772269
  - # 3
    frequency:     9.8298335902
  - # 4
    frequency:    60.6527935178
  - # 5
    frequency:    61.0923326759
  - # 6
    frequency:    77.6286477808

- q-position: [    0.1041667,    0.0000000,    0.0000000 ]
  distance_from_gamma:  0.033347627
  weight: 6    
  band:
  - # 1
    frequency:     3.0244259078
  - # 2
    frequency:     7.4940336997
  - # 3
    frequency:    12.1474353513
  - # 4
    frequency:    60.4363557089
  - # 5
    frequency:    61.1030028735
  - # 6
    frequency:    77.0130725604

- q-position: [    0.1250000,    0.0000000,    0.0000000 ]
  distance_from_gamma:  0.040017152
  weight: 6    
  band:
  - # 1
    frequency:     3.6327624218
  - # 2
    frequency:     8.8353026839
  - # 3
    frequency:    14.3720290970
  - # 4
    frequency:    60.1810897536
  - # 5
    frequency:    61.1053263611
  - # 6
    frequency:    76.2926712823

- q-position: [    0.1458333,    0.0000000,    0.0000000 ]
  distance_from_gamma:  0.046686677
  weight: 6    
  band:
  - # 1
    frequency:     4.2482833470
  - # 2
    frequency:    10.0941078124
  - # 3
    frequency:    16.4851711228
  - # 4
    frequency:    59.8923907892
  - # 5
    frequency:    61.0923890860
  - # 6
    frequency:    75.4872059785

- q-position: [    0.1666667,    0.0000000,    0.0000000 ]
  distance_from_gamma:  0.053356203
  weight: 6    
  band:
  - # 1
    frequency:     4.8759251031
  - # 2
    frequency:    11.2597156528
  - # 3
    frequency:    18.4684362190
  - # 4
    frequency:    59.5764412276
  - # 5
    frequency:    61.0557058591
  - # 6
    frequency:    74.6204213474

- q-position: [    0.1875000,    0.0000000,    0.0000000 ]
  distance_from_gamma:  0.060025728
  weight: 6    
  band:
  - # 1
    frequency:     5.5216320944
  - # 2
    frequency:    12.3229128195
  - # 3
    frequency:    20.3034072747
  - # 4
    frequency:    59.2400706023
  - # 5
    frequency:    60.9853255980
  - # 6
    frequency:    73.7199406324

- q-position: [    0.2083333,    0.0000000,    0.0000000 ]
  distance_from_gamma:  0.066695253
  weight: 6    
  band:
  - # 1
    frequency:     6.1920274158
  - # 2
    frequency:    13.2763084884
  - # 3
    frequency:    21.9717173435
  - # 4
    frequency:    58.8905701688
  - # 5
    frequency:    60.8703406090
  - # 6
    frequency:    72.8166973053

- q-position: [    0.2291667,    0.0000000,    0.0000000 ]
  distance_from_gamma:  0.073364779
  weight: 6    
  band:
  - # 1
    frequency:     6.8939529727
  - # 2
    frequency:    14.1146549317
  - # 3
    frequency:    23.4552084785
  - # 4
    frequency:    58.5354628313
  - # 5
    frequency:    60.7001316445
  - # 6
    frequency:    71.9435105285

- q-position: [    0.2500000,    0.0000000,    0.0000000 ]
  distance_from_gamma:  0.080034304
  weight: 6    
  band:
  - # 1
    frequency:     7.6339087587
  - # 2
    frequency:    14.8351697994
  - # 3
    frequency:    24.7363027925
  - # 4
    frequency:    58.1822363653
  - # 5
    frequency:    60.4666532911
  - # 6
    frequency:    71.1324113670

- q-position: [    0.2708333,    0.0000000,    0.0000000 ]
  distance_from_gamma:  0.086703830
  weight: 6    
  band:
  - # 1
    frequency:     8.4174286183
  - # 2
    frequency:    15.4378330546
  - # 3
    frequency:    25.7987084371
  - # 4
    frequency:    57.8380567074
  - # 5
    frequency:    60.1676513707
  - # 6
    frequency:    70.4107173119

- q-position: [    0.2916667,    0.0000000,    0.0000000 ]
  distance_from_gamma:  0.093373355
  weight: 6    
  band:
  - # 1
    frequency:     9.2484242413
  - # 2
    frequency:    15.9256203920
  - # 3
    frequency:    26.6285856772
  - # 4
    frequency:    57.5094864738
  - # 5
    frequency:    59.8097880652
  - # 6
    frequency:    69.7967746912

- q-position: [    0.3125000,    0.0000000,    0.0000000 ]
  distance_from_gamma:  0.100042880
  weight: 6    
  band:
  - # 1
    frequency:    10.1285064200
  - # 2
    frequency:    16.3046261853
  - # 3
    frequency:    27.2162448893
  - # 4
    frequency:    57.2022393408
  - # 5
    frequency:    59.4098049366
  - # 6
    frequency:    69.2972023405

- q-position: [    0.3333333,    0.0000000,    0.0000000 ]
  distance_from_gamma:  0.106712406
  weight: 6    
  band:
  - # 1
    frequency:    11.0562500550
  - # 2
    frequency:    16.5840254256
  - # 3
    frequency:    27.5583170396
  - # 4
    frequency:    56.9210009615
  - # 5
    frequency:    58.9922797003
  - # 6
    frequency:    68.9072023203

- q-position: [    0.3541667,    0.0000000,    0.0000000 ]
  distance_from_gamma:  0.113381931
  weight: 6    
  band:
  - # 1
    frequency:    12.0263013452
  - # 2
    frequency:    16.7758280918
  - # 3
    frequency:    27.6601590987
  - # 4
    frequency:    56.6693403283
  - # 5
    frequency:    58.5844887731
  - # 6
    frequency:    68.6137751613

- q-position: [    0.3750000,    0.0000000,    0.0000000 ]
  distance_from_gamma:  0.120051456
  weight: 6    
  band:
  - # 1
    frequency:    13.0281151969
  - # 2
    frequency:    16.8943921157
  - # 3
    frequency:    27.5381612088
  - # 4
    frequency:    56.4497226400
  - # 5
    frequency:    58.2106999788
  - # 6
    frequency:    68.4000554531

- q-position: [    0.3958333,    0.0000000,    0.0000000 ]
  distance_from_gamma:  0.126720982
  weight: 6    
  band:
  - # 1
    frequency:    14.0439189263
  - # 2
    frequency:    16.9556824711
  - # 3
    frequency:    27.2218148869
  - # 4
    frequency:    56.2636186905
  - # 5
    frequency:    57.8882512349
  - # 6
    frequency:    68.2489425669

- q-position: [    0.4166667,    0.0000000,    0.0000000 ]
  distance_from_gamma:  0.133390507
  weight: 6    
  band:
  - # 1
    frequency:    15.0451643152
  - # 2
    frequency:    16.9762930963
  - # 3
    frequency:    26.7560271231
  - # 4
    frequency:    56.1116907275
  - # 5
    frequency:    57.6263987383
  - # 6
    frequency:    68.1452797576

- q-position: [    0.4375000,    0.0000000,    0.0000000 ]
  distance_from_gamma:  0.140060032
  weight: 6    
  band:
  - # 1
    frequency:    15.9862938357
  - # 2
    frequency:    16.9722840678
  - # 3
    frequency:    26.2050595648
  - # 4
    frequency:    55.9940243342
  - # 5
    frequency:    57.4275236471
  - # 6
    frequency:    68.0767741015

- q-position: [    0.4583333,    0.0000000,    0.0000000 ]
  distance_from_gamma:  0.146729558
  weight: 6    
  band:
  - # 1
    frequency:    16.7950535414
  - # 2
    frequency:    16.9579259509
  - # 3
    frequency:    25.6594205292
  - # 4
    frequency:    55.9103720334
  - # 5
    frequency:    57.2896202043
  - # 6
    frequency:    68.0341657870

- q-position: [    0.4791667,    0.0000000,    0.0000000 ]
  distance_from_gamma:  0.153399083
  weight: 6    
  band:
  - # 1
    frequency:    16.9444803031
  - # 2
    frequency:    17.3647213940
  - # 3
    frequency:    25.2409703360
  - # 4
    frequency:    55.8603765452
  - # 5
    frequency:    57.2090043194
  - # 6
    frequency:    68.0110755392

- q-position: [    0.5000000,    0.0000000,    0.0000000 ]
  distance_from_gamma:  0.160068608
  weight: 3    
  band:
  - # 1
    frequency:    16.9391688229
  - # 2
    frequency:    17.5743170455
  - # 3
    frequency:    25.0806285337
  - # 4
    frequency:    55.8437479091
  - # 5
    frequency:    57.1825337481
  - # 6
    frequency:    68.0037854003

- q-position: [    0.0208333,    0.0208333,    0.0000000 ]
  distance_from_gamma:  0.011551957
  weight: 6    
  band:
  - # 1
    frequency:     1.0488976406
  - # 2
    frequency:     2.6952633389
  - # 3
    frequency:     4.3226232378
  - # 4
    frequency:    60.9773504468
  - # 5
    frequency:    61.0637261199
  - # 6
    frequency:    78.5587925347

- q-position: [    0.0416667,    0.0208333,    0.0000000 ]
  distance_from_gamma:  0.017645905
  weight: 12   
  band:
  - # 1
    frequency:     1.6015045459
  - # 2
    frequency:     4.0971875145
  - # 3
    frequency:     6.5661175802
  - # 4
    frequency:    60.8751550236
  - # 5
    frequency:    61.0750009131
  - # 6
    frequency:    78.2674445986

- q-position: [    0.0625000,    0.0208333,    0.0000000 ]
  distance_from_gamma:  0.024047316
  weight: 12   
  band:
  - # 1
    frequency:     2.1816069009
  - # 2
    frequency:     5.5338667679
  - # 3
    frequency:     8.8787704104
  - # 4
    frequency:    60.7244107516
  - # 5
    frequency:    61.0892216304
  - # 6
    frequency:    77.8388847774

- q-position: [    0.0833333,    0.0208333,    0.0000000 ]
  distance_from_gamma:  0.030563605
  weight: 12   
  band:
  - # 1
    frequency:     2.7726048220
  - # 2
    frequency:     6.9462947927
  - # 3
    frequency:    11.1696968490
  - # 4
    frequency:    60.5282209604
  - # 5
    frequency:    61.1029878344
  - # 6
    frequency:    77.2833909861

- q-position: [    0.1041667,    0.0208333,    0.0000000 ]
  distance_from_gamma:  0.037134346
  weight: 12   
  band:
  - # 1
    frequency:     3.3709675129
  - # 2
    frequency:     8.3071060157
  - # 3
    frequency:    13.3976442393
  - # 4
    frequency:    60.2906635479
  - # 5
    frequency:    61.1116124943
  - # 6
    frequency:    76.6148689610

- q-position: [    0.1250000,    0.0208333,    0.0000000 ]
  distance_from_gamma:  0.043735002
  weight: 12   
  band:
  - # 1
    frequency:     3.9775912954
  - # 2
    frequency:     9.5981292911
  - # 3
    frequency:    15.5349404590
  - # 4
    frequency:    60.0167499281
  - # 5
    frequency:    61.1089840994
  - # 6
    frequency:    75.8510062595

- q-position: [    0.1458333,    0.0208333,    0.0000000 ]
  distance_from_gamma:  0.050353812
  weight: 12   
  band:
  - # 1
    frequency:     4.5957165673
  - # 2
    frequency:    10.8052464133
  - # 3
    frequency:    17.5587771202
  - # 4
    frequency:    59.7123474729
  - # 5
    frequency:    61.0874519319
  - # 6
    frequency:    75.0134102333

- q-position: [    0.1666667,    0.0208333,    0.0000000 ]
  distance_from_gamma:  0.056984450
  weight: 12   
  band:
  - # 1
    frequency:     5.2301488877
  - # 2
    frequency:    11.9169595071
  - # 3
    frequency:    19.4484281803
  - # 4
    frequency:    59.3840631553
  - # 5
    frequency:    61.0378114640
  - # 6
    frequency:    74.1276333020

- q-position: [    0.1875000,    0.0208333,    0.0000000 ]
  distance_from_gamma:  0.063623217
  weight: 12   
  band:
  - # 1
    frequency:     5.8867493785
  - # 2
    frequency:    12.9240340587
  - # 3
    frequency:    21.1842046536
  - # 4
    frequency:    59.0390827037
  - # 5
    frequency:    60.9495549811
  - # 6
    frequency:    73.2228923954

- q-position: [    0.2083333,    0.0208333,    0.0000000 ]
  distance_from_gamma:  0.070267810
  weight: 12   
  band:
  - # 1
    frequency:     6.5719328951
  - # 2
    frequency:    13.8195300229
  - # 3
    frequency:    22.7470865937
  - # 4
    frequency:    58.6849623710
  - # 5
    frequency:    60.8116666760
  - # 6
    frequency:    72.3311564612

- q-position: [    0.2291667,    0.0208333,    0.0000000 ]
  distance_from_gamma:  0.076916719
  weight: 12   
  band:
  - # 1
    frequency:     7.2921101859
  - # 2
    frequency:    14.5989917073
  - # 3
    frequency:    24.1187548727
  - # 4
    frequency:    58.3293761309
  - # 5
    frequency:    60.6143127902
  - # 6
    frequency:    71.4851795492

- q-position: [    0.2500000,    0.0208333,    0.0000000 ]
  distance_from_gamma:  0.083568913
  weight: 12   
  band:
  - # 1
    frequency:     8.0530752568
  - # 2
    frequency:    15.2606943336
  - # 3
    frequency:    25.2819982215
  - # 4
    frequency:    57.9798287366
  - # 5
    frequency:    60.3516080177
  - # 6
    frequency:    70.7152014947

- q-position: [    0.2708333,    0.0208333,    0.0000000 ]
  distance_from_gamma:  0.090223667
  weight: 12   
  band:
  - # 1
    frequency:     8.8593586604
  - # 2
    frequency:    15.8058810344
  - # 3
    frequency:    26.2215647034
  - # 4
    frequency:    57.6433533240
  - # 5
    frequency:    60.0249804432
  - # 6
    frequency:    70.0446880803

- q-position: [    0.2916667,    0.0208333,    0.0000000 ]
  distance_from_gamma:  0.096880452
  weight: 12   
  band:
  - # 1
    frequency:     9.7135606233
  - # 2
    frequency:    16.2389319568
  - # 3
    frequency:    26.9255344757
  - # 4
    frequency:    57.3262193637
  - # 5
    frequency:    59.6456445295
  - # 6
    frequency:    69.4865293495

- q-position: [    0.3125000,    0.0208333,    0.0000000 ]
  distance_from_gamma:  0.103538877
  weight: 12   
  band:
  - # 1
    frequency:    10.6156488605
  - # 2
    frequency:    16.5674086327
  - # 3
    frequency:    27.3872137944
  - # 4
    frequency:    57.0336814857
  - # 5
    frequency:    59.2342954036
  - # 6
    frequency:    69.0416192114

- q-position: [    0.3333333,    0.0208333,    0.0000000 ]
  distance_from_gamma:  0.110198644
  weight: 12   
  band:
  - # 1
    frequency:    11.5621529499
  - # 2
    frequency:    16.8019215695
  - # 3
    frequency:    27.6073986348
  - # 4
    frequency:    56.7698021784
  - # 5
    frequency:    58.8173717005
  - # 6
    frequency:    68.7006935064

- q-position: [    0.3541667,    0.0208333,    0.0000000 ]
  distance_from_gamma:  0.116859525
  weight: 12   
  band:
  - # 1
    frequency:    12.5450993352
  - # 2
    frequency:    16.9557832637
  - # 3
    frequency:    27.5967093174
  - # 4
    frequency:    56.5373825216
  - # 5
    frequency:    58.4213910518
  - # 6
    frequency:    68.4483533579

- q-position: [    0.3750000,    0.0208333,    0.0000000 ]
  distance_from_gamma:  0.123521338
  weight: 12   
  band:
  - # 1
    frequency:    13.5503758665
  - # 2
    frequency:    17.0444411170
  - # 3
    frequency:    27.3777262329
  - # 4
    frequency:    56.3380317920
  - # 5
    frequency:    58.0679074783
  - # 6
    frequency:    68.2672460636

- q-position: [    0.3958333,    0.0208333,    0.0000000 ]
  distance_from_gamma:  0.130183941
  weight: 12   
  band:
  - # 1
    frequency:    14.5549097151
  - # 2
    frequency:    17.0847684466
  - # 3
    frequency:    26.9870489606
  - # 4
    frequency:    56.1723865296
  - # 5
    frequency:    57.7708424615
  - # 6
    frequency:    68.1410281213

- q-position: [    0.4166667,    0.0208333,    0.0000000 ]
  distance_from_gamma:  0.136847219
  weight: 12   
  band:
  - # 1
    frequency:    15.5213325531
  - # 2
    frequency:    17.0946466863
  - # 3
    frequency:    26.4781777474
  - # 4
    frequency:    56.0404408354
  - # 5
    frequency:    57.5364414640
  - # 6
    frequency:    68.0558830497

- q-position: [    0.4375000,    0.0208333,    0.0000000 ]
  distance_from_gamma:  0.143511077
  weight: 12   
  band:
  - # 1
    frequency:    16.3854347594
  - # 2
    frequency:    17.0964742759
  - # 3
    frequency:    25.9267481325
  - # 4
    frequency:    55.9418926155
  - # 5
    frequency:    57.3650914108
  - # 6
    frequency:    68.0010134777

- q-position: [    0.4583333,    0.0208333,    0.0000000 ]
  distance_from_gamma:  0.150175438
  weight: 12   
  band:
  - # 1
    frequency:    16.9524058732
  - # 2
    frequency:    17.2098853330
  - # 3
    frequency:    25.4375616009
  - # 4
    frequency:    55.8764016698
  - # 5
    frequency:    57.2539509029
  - # 6
    frequency:    67.9686089248

- q-position: [    0.4791667,    0.0208333,    0.0000000 ]
  distance_from_gamma:  0.156840238
  weight: 12   
  band:
  - # 1
    frequency:    17.0146434882
  - # 2
    frequency:    17.5347228515
  - # 3
    frequency:    25.1402768769
  - # 4
    frequency:    55.8437184298
  - # 5
    frequency:    57.1995097125
  - # 6
    frequency:    67.9536361231

- q-position: [    0.0416667,    0.0416667,    0.0000000 ]
  distance_from_gamma:  0.023103914
  weight: 6    
  band:
  - # 1
    frequency:     2.0964062956
  - # 2
    frequency:     5.3515643375
  - # 3
    frequency:     8.5249183597
  - # 4
    frequency:    60.7472522906
  - # 5
    frequency:    61.0892425717
  - # 6
    frequency:    77.9094761820

- q-position: [    0.0625000,    0.0416667,    0.0000000 ]
  distance_from_gamma:  0.029071787
  weight: 12   
  band:
  - # 1
    frequency:     2.6385437705
  - # 2
    frequency:     6.6850680834
  - # 3
    frequency:    10.6165650434
  - # 4
    frequency:    60.5712869722
  - # 5
    frequency:    61.1059878306
  - # 6
    frequency:    77.4200011199

- q-position: [    0.0833333,    0.0416667,    0.0000000 ]
  distance_from_gamma:  0.035291811
  weight: 12   
  band:
  - # 1
    frequency:     3.2060599234
  - # 2
    frequency:     8.0196019836
  - # 3
    frequency:    12.7289392671
  - # 4
    frequency:    60.3511168709
  - # 5
    frequency:    61.1211103457
  - # 6
    frequency:    76.8108718210

- q-position: [    0.1041667,    0.0416667,    0.0000000 ]
  distance_from_gamma:  0.041651172
  weight: 12   
  band:
  - # 1
    frequency:     3.7912709181
  - # 2
    frequency:     9.3150716429
  - # 3
    frequency:    14.8020360036
  - # 4
    frequency:    60.0914993941
  - # 5
    frequency:    61.1292524398
  - # 6
    frequency:    76.0975651540

- q-position: [    0.1250000,    0.0416667,    0.0000000 ]
  distance_from_gamma:  0.048094631
  weight: 12   
  band:
  - # 1
    frequency:     4.3927990761
  - # 2
    frequency:    10.5465615646
  - # 3
    frequency:    16.7969709479
  - # 4
    frequency:    59.7980903207
  - # 5
    frequency:    61.1236393479
  - # 6
    frequency:    75.2993302192

- q-position: [    0.1458333,    0.0416667,    0.0000000 ]
  distance_from_gamma:  0.054592418
  weight: 12   
  band:
  - # 1
    frequency:     5.0125946294
  - # 2
    frequency:    11.6964347461
  - # 3
    frequency:    18.6843856236
  - # 4
    frequency:    59.4773778223
  - # 5
    frequency:    61.0959606695
  - # 6
    frequency:    74.4392900485

- q-position: [    0.1666667,    0.0416667,    0.0000000 ]
  distance_from_gamma:  0.061127210
  weight: 12   
  band:
  - # 1
    frequency:     5.6545685139
  - # 2
    frequency:    12.7514271096
  - # 3
    frequency:    20.4396812546
  - # 4
    frequency:    59.1365580291
  - # 5
    frequency:    61.0364110412
  - # 6
    frequency:    73.5443699552

- q-position: [    0.1875000,    0.0416667,    0.0000000 ]
  distance_from_gamma:  0.067688290
  weight: 12   
  band:
  - # 1
    frequency:     6.3237528679
  - # 2
    frequency:    13.7015685860
  - # 3
    frequency:    22.0409192692
  - # 4
    frequency:    58.7833541080
  - # 5
    frequency:    60.9340869122
  - # 6
    frequency:    72.6448118559

- q-position: [    0.2083333,    0.0416667,    0.0000000 ]
  distance_from_gamma:  0.074268691
  weight: 12   
  band:
  - # 1
    frequency:     7.0256195220
  - # 2
    frequency:    14.5398508709
  - # 3
    frequency:    23.4679396635
  - # 4
    frequency:    58.4257787306
  - # 5
    frequency:    60.7780573928
  - # 6
    frequency:    71.7728991831

- q-position: [    0.2291667,    0.0416667,    0.0000000 ]
  distance_from_gamma:  0.080863697
  weight: 12   
  band:
  - # 1
    frequency:     7.7654323652
  - # 2
    frequency:    15.2622235036
  - # 3
    frequency:    24.7021891202
  - # 4
    frequency:    58.0718434478
  - # 5
    frequency:    60.5594450224
  - # 6
    frequency:    70.9604801908

- q-position: [    0.2500000,    0.0416667,    0.0000000 ]
  distance_from_gamma:  0.087470005
  weight: 12   
  band:
  - # 1
    frequency:     8.5475995467
  - # 2
    frequency:    15.8677247699
  - # 3
    frequency:    25.7271109221
  - # 4
    frequency:    57.7292251746
  - # 5
    frequency:    60.2745216693
  - # 6
    frequency:    70.2351955908

- q-position: [    0.2708333,    0.0416667,    0.0000000 ]
  distance_from_gamma:  0.094085233
  weight: 12   
  band:
  - # 1
    frequency:     9.3750186988
  - # 2
    frequency:    16.3586335241
  - # 3
    frequency:    26.5290827064
  - # 4
    frequency:    57.4049082355
  - # 5
    frequency:    59.9279667817
  - # 6
    frequency:    69.6161878299

- q-position: [    0.2916667,    0.0416667,    0.0000000 ]
  distance_from_gamma:  0.100707624
  weight: 12   
  band:
  - # 1
    frequency:    10.2484012835
  - # 2
    frequency:    16.7405570436
  - # 3
    frequency:    27.0988959391
  - # 4
    frequency:    57.1048301529
  - # 5
    frequency:    59.5344989316
  - # 6
    frequency:    69.1110697297

- q-position: [    0.3125000,    0.0416667,    0.0000000 ]
  distance_from_gamma:  0.107335852
  weight: 12   
  band:
  - # 1
    frequency:    11.1655288803
  - # 2
    frequency:    17.0223840773
  - # 3
    frequency:    27.4336842606
  - # 4
    frequency:    56.8335724641
  - # 5
    frequency:    59.1172781043
  - # 6
    frequency:    68.7158727926

- q-position: [    0.3333333,    0.0416667,    0.0000000 ]
  distance_from_gamma:  0.113968899
  weight: 12   
  band:
  - # 1
    frequency:    12.1203318490
  - # 2
    frequency:    17.2160475070
  - # 3
    frequency:    27.5390773534
  - # 4
    frequency:    56.5941565854
  - # 5
    frequency:    58.7032837628
  - # 6
    frequency:    68.4180550842

- q-position: [    0.3541667,    0.0416667,    0.0000000 ]
  distance_from_gamma:  0.120605969
  weight: 12   
  band:
  - # 1
    frequency:    13.1015716207
  - # 2
    frequency:    17.3360679239
  - # 3
    frequency:    27.4313016618
  - # 4
    frequency:    56.3880241814
  - # 5
    frequency:    58.3177779224
  - # 6
    frequency:    68.2008632697

- q-position: [    0.3750000,    0.0416667,    0.0000000 ]
  distance_from_gamma:  0.127246434
  weight: 12   
  band:
  - # 1
    frequency:    14.0907063790
  - # 2
    frequency:    17.3989047435
  - # 3
    frequency:    27.1391372813
  - # 4
    frequency:    56.2152773216
  - # 5
    frequency:    57.9801621787
  - # 6
    frequency:    68.0471109639

- q-position: [    0.3958333,    0.0416667,    0.0000000 ]
  distance_from_gamma:  0.133889787
  weight: 12   
  band:
  - # 1
    frequency:    15.0581260353
  - # 2
    frequency:    17.4222902774
  - # 3
    frequency:    26.7061709009
  - # 4
    frequency:    56.0751841928
  - # 5
    frequency:    57.7022790145
  - # 6
    frequency:    67.9414942397

- q-position: [    0.4166667,    0.0416667,    0.0000000 ]
  distance_from_gamma:  0.140535620
  weight: 12   
  band:
  - # 1
    frequency:    15.9560928263
  - # 2
    frequency:    17.4253319359
  - # 3
    frequency:    26.1944502298
  - # 4
    frequency:    55.9668109816
  - # 5
    frequency:    57.4889356861
  - # 6
    frequency:    67.8715866098

- q-position: [    0.4375000,    0.0416667,    0.0000000 ]
  distance_from_gamma:  0.147183596
  weight: 12   
  band:
  - # 1
    frequency:    16.7036285386
  - # 2
    frequency:    17.4340372316
  - # 3
    frequency:    25.6902182848
  - # 4
    frequency:    55.8895154664
  - # 5
    frequency:    57.3398719195
  - # 6
    frequency:    67.8280327971

- q-position: [    0.4583333,    0.0416667,    0.0000000 ]
  distance_from_gamma:  0.153833437
  weight: 12   
  band:
  - # 1
    frequency:    17.1479663528
  - # 2
    frequency:    17.5135691820
  - # 3
    frequency:    25.3064870272
  - # 4
    frequency:    55.8430922470
  - # 5
    frequency:    57.2523383200
  - # 6
    frequency:    67.8043951042

- q-position: [   -0.5208333,    0.0416667,    0.0000000 ]
  distance_from_gamma:  0.160484912
  weight: 6    
  band:
  - # 1
    frequency:    17.2391351684
  - # 2
    frequency:    17.6132930631
  - # 3
    frequency:    25.1603965825
  - # 4
    frequency:    55.8275985041
  - # 5
    frequency:    57.2235387124
  - # 6
    frequency:    67.7969255182

- q-position: [    0.0625000,    0.0625000,    0.0000000 ]
  distance_from_gamma:  0.034655870
  weight: 6    
  band:
  - # 1
    frequency:     3.1495610335
  - # 2
    frequency:     7.9333289263
  - # 3
    frequency:    12.4872097476
  - # 4
    frequency:    60.3701092238
  - # 5
    frequency:    61.1255074813
  - # 6
    frequency:    76.8766530367

- q-position: [    0.0833333,    0.0625000,    0.0000000 ]
  distance_from_gamma:  0.040569139
  weight: 12   
  band:
  - # 1
    frequency:     3.6960723609
  - # 2
    frequency:     9.1995918864
  - # 3
    frequency:    14.3945917022
  - # 4
    frequency:    60.1257163163
  - # 5
    frequency:    61.1428563585
  - # 6
    frequency:    76.2220524196

- q-position: [    0.1041667,    0.0625000,    0.0000000 ]
  distance_from_gamma:  0.046686677
  weight: 12   
  band:
  - # 1
    frequency:     4.2698372480
  - # 2
    frequency:    10.4371071136
  - # 3
    frequency:    16.2776197817
  - # 4
    frequency:    59.8438152670
  - # 5
    frequency:    61.1519343813
  - # 6
    frequency:    75.4729720138

- q-position: [    0.1250000,    0.0625000,    0.0000000 ]
  distance_from_gamma:  0.052937716
  weight: 12   
  band:
  - # 1
    frequency:     4.8683540171
  - # 2
    frequency:    11.6159590600
  - # 3
    frequency:    18.0934246157
  - # 4
    frequency:    59.5309559326
  - # 5
    frequency:    61.1452966712
  - # 6
    frequency:    74.6498749681

- q-position: [    0.1458333,    0.0625000,    0.0000000 ]
  distance_from_gamma:  0.059280038
  weight: 12   
  band:
  - # 1
    frequency:     5.4924298931
  - # 2
    frequency:    12.7154374208
  - # 3
    frequency:    19.8090886518
  - # 4
    frequency:    59.1944802621
  - # 5
    frequency:    61.1140206699
  - # 6
    frequency:    73.7769682932

- q-position: [    0.1666667,    0.0625000,    0.0000000 ]
  distance_from_gamma:  0.065687207
  weight: 12   
  band:
  - # 1
    frequency:     6.1447955934
  - # 2
    frequency:    13.7205554924
  - # 3
    frequency:    21.3974908451
  - # 4
    frequency:    58.8423929711
  - # 5
    frequency:    61.0477804176
  - # 6
    frequency:    72.8820255155

- q-position: [    0.1875000,    0.0625000,    0.0000000 ]
  distance_from_gamma:  0.072141947
  weight: 12   
  band:
  - # 1
    frequency:     6.8291747555
  - # 2
    frequency:    14.6205201678
  - # 3
    frequency:    22.8352135968
  - # 4
    frequency:    58.4831509700
  - # 5
    frequency:    60.9353631002
  - # 6
    frequency:    71.9956975760

- q-position: [    0.2083333,    0.0625000,    0.0000000 ]
  distance_from_gamma:  0.078632544
  weight: 12   
  band:
  - # 1
    frequency:     7.5495415602
  - # 2
    frequency:    15.4081247889
  - # 3
    frequency:    24.1015994035
  - # 4
    frequency:    58.1253729732
  - # 5
    frequency:    60.7659753667
  - # 6
    frequency:    71.1499036457

- q-position: [    0.2291667,    0.0625000,    0.0000000 ]
  distance_from_gamma:  0.085150799
  weight: 12   
  band:
  - # 1
    frequency:     8.3094536785
  - # 2
    frequency:    16.0795832509
  - # 3
    frequency:    25.1785704108
  - # 4
    frequency:    57.7774747388
  - # 5
    frequency:    60.5316414963
  - # 6
    frequency:    70.3749307775

- q-position: [    0.2500000,    0.0625000,    0.0000000 ]
  distance_from_gamma:  0.091690814
  weight: 12   
  band:
  - # 1
    frequency:     9.1114137070
  - # 2
    frequency:    16.6345562645
  - # 3
    frequency:    26.0510631043
  - # 4
    frequency:    57.4472447212
  - # 5
    frequency:    60.2305070354
  - # 6
    frequency:    69.6953645057

- q-position: [    0.2708333,    0.0625000,    0.0000000 ]
  distance_from_gamma:  0.098248243
  weight: 12   
  band:
  - # 1
    frequency:     9.9562317555
  - # 2
    frequency:    17.0762163905
  - # 3
    frequency:    26.7080161778
  - # 4
    frequency:    57.1413899445
  - # 5
    frequency:    59.8698648473
  - # 6
    frequency:    69.1260030624

- q-position: [    0.2916667,    0.0625000,    0.0000000 ]
  distance_from_gamma:  0.104819819
  weight: 12   