# Thermal properties / unit cell (natom)

unit:
  temperature:   K
  free_energy:   kJ/mol
  entropy:       J/K/mol
  heat_capacity: J/K/mol

natom: 2    
cutoff_frequency: 0.00000
num_modes: 13824
num_integrated_modes: 13823

zero_point_energy:      47.6570885

thermal_properties:
- temperature:         0.0000000
  free_energy:        47.6570885
  entropy:             0.0000000
  heat_capacity:       0.0000000
  energy:             47.6570885

- temperature:        10.0000000
  free_energy:        47.6567186
  entropy:             0.0492169
  heat_capacity:       0.0266812
  energy:             47.6572108

- temperature:        20.0000000
  free_energy:        47.6560521
  entropy:             0.0884235
  heat_capacity:       0.1049884
  energy:             47.6578206

- temperature:        30.0000000
  free_energy:        47.6548602
  entropy:             0.1544540
  heat_capacity:       0.2382472
  energy:             47.6594938

- temperature:        40.0000000
  free_energy:        47.6528753
  entropy:             0.2467765
  heat_capacity:       0.4197712
  energy:             47.6627463

- temperature:        50.0000000
  free_energy:        47.6498425
  entropy:             0.3637394
  heat_capacity:       0.6434255
  energy:             47.6680295

- temperature:        60.0000000
  free_energy:        47.6455242
  entropy:             0.5035960
  heat_capacity:       0.9047176
  energy:             47.6757400

- temperature:        70.0000000
  free_energy:        47.6396991
  entropy:             0.6649155
  heat_capacity:       1.2019065
  energy:             47.6862432

- temperature:        80.0000000
  free_energy:        47.6321575
  entropy:             0.8467841
  heat_capacity:       1.5357579
  energy:             47.6999002

- temperature:        90.0000000
  free_energy:        47.6226963
  entropy:             1.0487819
  heat_capacity:       1.9081039
  energy:             47.7170867

- temperature:       100.0000000
  free_energy:        47.6111151
  entropy:             1.2707996
  heat_capacity:       2.3202322
  energy:             47.7381951

- temperature:       110.0000000
  free_energy:        47.5972137
  entropy:             1.5128144
  heat_capacity:       2.7718706
  energy:             47.7636233

- temperature:       120.0000000
  free_energy:        47.5807925
  entropy:             1.7747063
  heat_capacity:       3.2608992
  energy:             47.7937573

- temperature:       130.0000000
  free_energy:        47.5616544
  entropy:             2.0561474
  heat_capacity:       3.7835715
  energy:             47.8289535

- temperature:       140.0000000
  free_energy:        47.5396063
  entropy:             2.3565588
  heat_capacity:       4.3349716
  energy:             47.8695246

- temperature:       150.0000000
  free_energy:        47.5144627
  entropy:             2.6751164
  heat_capacity:       4.9095174
  energy:             47.9157301

- temperature:       160.0000000
  free_energy:        47.4860469
  entropy:             3.0107860
  heat_capacity:       5.5014065
  energy:             47.9677727

- temperature:       170.0000000
  free_energy:        47.4541939
  entropy:             3.3623721
  heat_capacity:       6.1049693
  energy:             48.0257971

- temperature:       180.0000000
  free_energy:        47.4187508
  entropy:             3.7285697
  heat_capacity:       6.7149224
  energy:             48.0898933

- temperature:       190.0000000
  free_energy:        47.3795783
  entropy:             4.1080142
  heat_capacity:       7.3265351
  energy:             48.1601010

- temperature:       200.0000000
  free_energy:        47.3365510
  entropy:             4.4993246
  heat_capacity:       7.9357229
  energy:             48.2364159

- temperature:       210.0000000
  free_energy:        47.2895568
  entropy:             4.9011389
  heat_capacity:       8.5390849
  energy:             48.3187960

- temperature:       220.0000000
  free_energy:        47.2384976
  entropy:             5.3121430
  heat_capacity:       9.1338993
  energy:             48.4071690

- temperature:       230.0000000
  free_energy:        47.1832875
  entropy:             5.7310913
  heat_capacity:       9.7180883
  energy:             48.5014385

- temperature:       240.0000000
  free_energy:        47.1238531
  entropy:             6.1568217
  heat_capacity:      10.2901634
  energy:             48.6014903

- temperature:       250.0000000
  free_energy:        47.0601320
  entropy:             6.5882643
  heat_capacity:      10.8491586
  energy:             48.7071981

- temperature:       260.0000000
  free_energy:        46.9920721
  entropy:             7.0244465
  heat_capacity:      11.3945570
  energy:             48.8184281

- temperature:       270.0000000
  free_energy:        46.9196302
  entropy:             7.4644933
  heat_capacity:      11.9262178
  energy:             48.9350434

- temperature:       280.0000000
  free_energy:        46.8427719
  entropy:             7.9076261
  heat_capacity:      12.4443042
  energy:             49.0569072

- temperature:       290.0000000
  free_energy:        46.7614697
  entropy:             8.3531582
  heat_capacity:      12.9492171
  energy:             49.1838856

- temperature:       300.0000000
  free_energy:        46.6757028
  entropy:             8.8004894
  heat_capacity:      13.4415352
  energy:             49.3158496

- temperature:       310.0000000
  free_energy:        46.5854557
  entropy:             9.2490999
  heat_capacity:      13.9219619
  energy:             49.4526766

- temperature:       320.0000000
  free_energy:        46.4907180
  entropy:             9.6985431
  heat_capacity:      14.3912797
  energy:             49.5942518

- temperature:       330.0000000
  free_energy:        46.3914833
  entropy:            10.1484383
  heat_capacity:      14.8503129
  energy:             49.7404680

- temperature:       340.0000000
  free_energy:        46.2877488
  entropy:            10.5984639
  heat_capacity:      15.2998959
  energy:             49.8912265

- temperature:       350.0000000
  free_energy:        46.1795145
  entropy:            11.0483503
  heat_capacity:      15.7408490
  energy:             50.0464371

- temperature:       360.0000000
  free_energy:        46.0667830
  entropy:            11.4978732
  heat_capacity:      16.1739593
  energy:             50.2060174

- temperature:       370.0000000
  free_energy:        45.9495589
  entropy:            11.9468480
  heat_capacity:      16.5999674
  energy:             50.3698926

- temperature:       380.0000000
  free_energy:        45.8278484
  entropy:            12.3951236
  heat_capacity:      17.0195570
  energy:             50.5379953

- temperature:       390.0000000
  free_energy:        45.7016591
  entropy:            12.8425777
  heat_capacity:      17.4333497
  energy:             50.7102645

- temperature:       400.0000000
  free_energy:        45.5709999
  entropy:            13.2891124
  heat_capacity:      17.8419014
  energy:             50.8866449

- temperature:       410.0000000
  free_energy:        45.4358802
  entropy:            13.7346498
  heat_capacity:      18.2457016
  energy:             51.0670867

- temperature:       420.0000000
  free_energy:        45.2963104
  entropy:            14.1791287
  heat_capacity:      18.6451750
  energy:             51.2515445

- temperature:       430.0000000
  free_energy:        45.1523013
  entropy:            14.6225014
  heat_capacity:      19.0406832
  energy:             51.4399769

- temperature:       440.0000000
  free_energy:        45.0038642
  entropy:            15.0647312
  heat_capacity:      19.4325289
  energy:             51.6323459

- temperature:       450.0000000
  free_energy:        44.8510106
  entropy:            15.5057901
  heat_capacity:      19.8209597
  energy:             51.8286161

- temperature:       460.0000000
  free_energy:        44.6937524
  entropy:            15.9456566
  heat_capacity:      20.2061728
  energy:             52.0287544

- temperature:       470.0000000
  free_energy:        44.5321015
  entropy:            16.3843146
  heat_capacity:      20.5883200
  energy:             52.2327294

- temperature:       480.0000000
  free_energy:        44.3660702
  entropy:            16.8217517
  heat_capacity:      20.9675121
  energy:             52.4405110

- temperature:       490.0000000
  free_energy:        44.1956706
  entropy:            17.2579581
  heat_capacity:      21.3438245
  energy:             52.6520700

- temperature:       500.0000000
  free_energy:        44.0209151
  entropy:            17.6929258
  heat_capacity:      21.7173009
  energy:             52.8673780

- temperature:       510.0000000
  free_energy:        43.8418162
  entropy:            18.1266479
  heat_capacity:      22.0879585
  energy:             53.0864067

- temperature:       520.0000000
  free_energy:        43.6583863
  entropy:            18.5591181
  heat_capacity:      22.4557919
  energy:             53.3091278

- temperature:       530.0000000
  free_energy:        43.4706381
  entropy:            18.9903301
  heat_capacity:      22.8207767
  energy:             53.5355130

- temperature:       540.0000000
  free_energy:        43.2785840
  entropy:            19.4202773
  heat_capacity:      23.1828732
  energy:             53.7655337

- temperature:       550.0000000
  free_energy:        43.0822367
  entropy:            19.8489526
  heat_capacity:      23.5420295
  energy:             53.9991607

- temperature:       560.0000000
  free_energy:        42.8816092
  entropy:            20.2763484
  heat_capacity:      23.8981842
  energy:             54.2363643

- temperature:       570.0000000
  free_energy:        42.6767141
  entropy:            20.7024562
  heat_capacity:      24.2512693
  energy:             54.4771141

- temperature:       580.0000000
  free_energy:        42.4675644
  entropy:            21.1272669
  heat_capacity:      24.6012119
  energy:             54.7213792

- temperature:       590.0000000
  free_energy:        42.2541731
  entropy:            21.5507704
  heat_capacity:      24.9479364
  energy:             54.9691276

- temperature:       600.0000000
  free_energy:        42.0365534
  entropy:            21.9729559
  heat_capacity:      25.2913663
  energy:             55.2203269

- temperature:       610.0000000
  free_energy:        41.8147184
  entropy:            22.3938120
  heat_capacity:      25.6314253
  energy:             55.4749437

- temperature:       620.0000000
  free_energy:        41.5886816
  entropy:            22.8133264
  heat_capacity:      25.9680386
  energy:             55.7329439

- temperature:       630.0000000
  free_energy:        41.3584564
  entropy:            23.2314863
  heat_capacity:      26.3011340
  energy:             55.9942928

- temperature:       640.0000000
  free_energy:        41.1240564
  entropy:            23.6482785
  heat_capacity:      26.6306427
  energy:             56.2589547

- temperature:       650.0000000
  free_energy:        40.8854954
  entropy:            24.0636893
  heat_capacity:      26.9564999
  energy:             56.5268934

- temperature:       660.0000000
  free_energy:        40.6427873
  entropy:            24.4777045
  heat_capacity:      27.2786451
  energy:             56.7980723

- temperature:       670.0000000
  free_energy:        40.3959460
  entropy:            24.8903101
  heat_capacity:      27.5970230
  energy:             57.0724538

- temperature:       680.0000000
  free_energy:        40.1449858
  entropy:            25.3014915
  heat_capacity:      27.9115833
  energy:             57.3500000

- temperature:       690.0000000
  free_energy:        39.8899210
  entropy:            25.7112342
  heat_capacity:      28.2222812
  energy:             57.6306726

- temperature:       700.0000000
  free_energy:        39.6307660
  entropy:            26.1195238
  heat_capacity:      28.5290772
  energy:             57.9144326

- temperature:       710.0000000
  free_energy:        39.3675354
  entropy:            26.5263459
  heat_capacity:      28.8319374
  energy:             58.2012410

- temperature:       720.0000000
  free_energy:        39.1002440
  entropy:            26.9316863
  heat_capacity:      29.1308334
  energy:             58.4910582

- temperature:       730.0000000
  free_energy:        38.8289067
  entropy:            27.3355311
  heat_capacity:      29.4257420
  energy:             58.7838444

- temperature:       740.0000000
  free_energy:        38.5535384
  entropy:            27.7378665
  heat_capacity:      29.7166456
  energy:             59.0795597

- temperature:       750.0000000
  free_energy:        38.2741544
  entropy:            28.1386793
  heat_capacity:      30.0035315
  energy:             59.3781639

- temperature:       760.0000000
  free_energy:        37.9907700
  entropy:            28.5379565
  heat_capacity:      30.2863920
  energy:             59.6796169

- temperature:       770.0000000
  free_energy:        37.7034005
  entropy:            28.9356855
  heat_capacity:      30.5652242
  energy:             59.9838783

- temperature:       780.0000000
  free_energy:        37.4120614
  entropy:            29.3318545
  heat_capacity:      30.8400297
  energy:             60.2909079

- temperature:       790.0000000
  free_energy:        37.1167686
  entropy:            29.7264518
  heat_capacity:      31.1108145
  energy:             60.6006655

- temperature:       800.0000000
  free_energy:        36.8175377
  entropy:            30.1194665
  heat_capacity:      31.3775886
  energy:             60.9131109

- temperature:       810.0000000
  free_energy:        36.5143846
  entropy:            30.5108881
  heat_capacity:      31.6403659
  energy:             61.2282040

- temperature:       820.0000000
  free_energy:        36.2073253
  entropy:            30.9007069
  heat_capacity:      31.8991638
  energy:             61.5459049

- temperature:       830.0000000
  free_energy:        35.8963758
  entropy:            31.2889135
  heat_capacity:      32.1540035
  energy:             61.8661740

- temperature:       840.0000000
  free_energy:        35.5815524
  entropy:            31.6754994
  heat_capacity:      32.4049088
  energy:             62.1889719

- temperature:       850.0000000
  free_energy:        35.2628713
  entropy:            32.0604564
  heat_capacity:      32.6519067
  energy:             62.5142592

- temperature:       860.0000000
  free_energy:        34.9403487
  entropy:            32.4437771
  heat_capacity:      32.8950270
  energy:             62.8419971

- temperature:       870.0000000
  free_energy:        34.6140012
  entropy:            32.8254548
  heat_capacity:      33.1343019
  energy:             63.1721469

- temperature:       880.0000000
  free_energy:        34.2838451
  entropy:            33.2054833
  heat_capacity:      33.3697657
  energy:             63.5046704

- temperature:       890.0000000
  free_energy:        33.9498970
  entropy:            33.5838568
  heat_capacity:      33.6014549
  energy:             63.8395296

- temperature:       900.0000000
  free_energy:        33.6121735
  entropy:            33.9605706
  heat_capacity:      33.8294081
  energy:             64.1766870

- temperature:       910.0000000
  free_energy:        33.2706912
  entropy:            34.3356201
  heat_capacity:      34.0536651
  energy:             64.5161055

- temperature:       920.0000000
  free_energy:        32.9254667
  entropy:            34.7090016
  heat_capacity:      34.2742678
  energy:             64.8577482

- temperature:       930.0000000
  free_energy:        32.5765167
  entropy:            35.0807119
  heat_capacity:      34.4912589
  energy:             65.2015788

- temperature:       940.0000000
  free_energy:        32.2238580
  entropy:            35.4507483
  heat_capacity:      34.7046828
  energy:             65.5475615

- temperature:       950.0000000
  free_energy:        31.8675073
  entropy:            35.8191088
  heat_capacity:      34.9145845
  energy:             65.8956607

- temperature:       960.0000000
  free_energy:        31.5074814
  entropy:            36.1857918
  heat_capacity:      35.1210101
  energy:             66.2458416

- temperature:       970.0000000
  free_energy:        31.1437971
  entropy:            36.5507963
  heat_capacity:      35.3240066
  energy:             66.5980695

- temperature:       980.0000000
  free_energy:        30.7764711
  entropy:            36.9141217
  heat_capacity:      35.5236215
  energy:             66.9523104

- temperature:       990.0000000
  free_energy:        30.4055203
  entropy:            37.2757682
  heat_capacity:      35.7199027
  energy:             67.3085308

- temperature:      1000.0000000
  free_energy:        30.0309613
  entropy:            37.6357362
  heat_capacity:      35.9128988
  energy:             67.6666975

- temperature:      1010.0000000
  free_energy:        29.6528111
  entropy:            37.9940266
  heat_capacity:      36.1026586
  energy:             68.0267780

- temperature:      1020.0000000
  free_energy:        29.2710864
  entropy:            38.3506409
  heat_capacity:      36.2892310
  energy:             68.3887401

- temperature:      1030.0000000
  free_energy:        28.8858039
  entropy:            38.7055808
  heat_capacity:      36.4726653
  energy:             68.7525521

- temperature:      1040.0000000
  free_energy:        28.4969804
  entropy:            39.0588488
  heat_capacity:      36.6530106
  energy:             69.1181831

- temperature:      1050.0000000
  free_energy:        28.1046325
  entropy:            39.4104474
  heat_capacity:      36.8303162
  energy:             69.4856022

- temperature:      1060.0000000
  free_energy:        27.7087770
  entropy:            39.7603797
  heat_capacity:      37.0046312
  energy:             69.8547794

- temperature:      1070.0000000
  free_energy:        27.3094304
  entropy:            40.1086492
  heat_capacity:      37.1760045
  energy:             70.2256850

- temperature:      1080.0000000
  free_energy:        26.9066095
  entropy:            40.4552596
  heat_capacity:      37.3444850
  energy:             70.5982899

- temperature:      1090.0000000
  free_energy:        26.5003308
  entropy:            40.8002152
  heat_capacity:      37.5101211
  energy:             70.9725653

- temperature:      1100.0000000
  free_energy:        26.0906107
  entropy:            41.1435203
  heat_capacity:      37.6729610
  energy:             71.3484830

- temperature:      1110.0000000
  free_energy:        25.6774658
  entropy:            41.4851797
  heat_capacity:      37.8330526
  energy:             71.7260153

- temperature:      1120.0000000
  free_energy:        25.2609126
  entropy:            41.8251986
  heat_capacity:      37.9904434
  energy:             72.1051350

- temperature:      1130.0000000
  free_energy:        24.8409673
  entropy:            42.1635823
  heat_capacity:      38.1451805
  energy:             72.4858153

- temperature:      1140.0000000
  free_energy:        24.4176464
  entropy:            42.5003365
  heat_capacity:      38.2973103
  energy:             72.8680300

- temperature:      1150.0000000
  free_energy:        23.9909660
  entropy:            42.8354670
  heat_capacity:      38.4468791
  energy:             73.2517530

- temperature:      1160.0000000
  free_energy:        23.5609424
  entropy:            43.1689799
  heat_capacity:      38.5939323
  energy:             73.6369592

- temperature:      1170.0000000
  free_energy:        23.1275918
  entropy:            43.5008818
  heat_capacity:      38.7385151
  energy:             74.0236234

- temperature:      1180.0000000
  free_energy:        22.6909301
  entropy:            43.8311790
  heat_capacity:      38.8806720
  energy:             74.4117214

- temperature:      1190.0000000
  free_energy:        22.2509735
  entropy:            44.1598785
  heat_capacity:      39.0204468
  energy:             74.8012289

- temperature:      1200.0000000
  free_energy:        21.8077379
  entropy:            44.4869872
  heat_capacity:      39.1578829
  energy:             75.1921225

- temperature:      1210.0000000
  free_energy:        21.3612390
  entropy:            44.8125123
  heat_capacity:      39.2930232
  energy:             75.5843789

- temperature:      1220.0000000
  free_energy:        20.9114929
  entropy:            45.1364611
  heat_capacity:      39.4259096
  energy:             75.9779755

- temperature:      1230.0000000
  free_energy:        20.4585151
  entropy:            45.4588412
  heat_capacity:      39.5565837
  energy:             76.3728898

- temperature:      1240.0000000
  free_energy:        20.0023212
  entropy:            45.7796602
  heat_capacity:      39.6850863
  energy:             76.7690999

- temperature:      1250.0000000
  free_energy:        19.5429270
  entropy:            46.0989259
  heat_capacity:      39.8114578
  energy:             77.1665844

- temperature:      1260.0000000
  free_energy:        19.0803479
  entropy:            46.4166462
  heat_capacity:      39.9357377
  energy:             77.5653221

- temperature:      1270.0000000
  free_energy:        18.6145992
  entropy:            46.7328292
  heat_capacity:      40.0579650
  energy:             77.9652923

- temperature:      1280.0000000
  free_energy:        18.1456964
  entropy:            47.0474830
  heat_capacity:      40.1781780
  energy:             78.3664747

- temperature:      1290.0000000
  free_energy:        17.6736546
  entropy:            47.3606160
  heat_capacity:      40.2964145
  energy:             78.7688493

- temperature:      1300.0000000
  free_energy:        17.1984891
  entropy:            47.6722364
  heat_capacity:      40.4127113
  energy:             79.1723965

- temperature:      1310.0000000
  free_energy:        16.7202149
  entropy:            47.9823528
  heat_capacity:      40.5271050
  energy:             79.5770971

- temperature:      1320.0000000
  free_energy:        16.2388470
  entropy:            48.2909737
  heat_capacity:      40.6396313
  energy:             79.9829324

- temperature:      1330.0000000
  free_energy:        15.7544004
  entropy:            48.5981077
  heat_capacity:      40.7503254
  energy:             80.3898837

- temperature:      1340.0000000
  free_energy:        15.2668898
  entropy:            48.9037635
  heat_capacity:      40.8592216
  energy:             80.7979329

- temperature:      1350.0000000
  free_energy:        14.7763300
  entropy:            49.2079498
  heat_capacity:      40.9663539
  energy:             81.2070622

- temperature:      1360.0000000
  free_energy:        14.2827357
  entropy:            49.5106754
  heat_capacity:      41.0717556
  energy:             81.6172542

- temperature:      1370.0000000
  free_energy:        13.7861214
  entropy:            49.8119491
  heat_capacity:      41.1754592
  energy:             82.0284917

- temperature:      1380.0000000
  free_energy:        13.2865015
  entropy:            50.1117799
  heat_capacity:      41.2774967
  energy:             82.4407578

- temperature:      1390.0000000
  free_energy:        12.7838905
  entropy:            50.4101767
  heat_capacity:      41.3778997
  energy:             82.8540362

- temperature:      1400.0000000
  free_energy:        12.2783027
  entropy:            50.7071484
  heat_capacity:      41.4766989
  energy:             83.2683105

- temperature:      1410.0000000
  free_energy:        11.7697523
  entropy:            51.0027040
  heat_capacity:      41.5739245
  energy:             83.6835649

- temperature:      1420.0000000
  free_energy:        11.2582533
  entropy:            51.2968524
  heat_capacity:      41.6696063
  energy:             84.0997838

- temperature:      1430.0000000
  free_energy:        10.7438199
  entropy:            51.5896028
  heat_capacity:      41.7637731
  energy:             84.5169520

- temperature:      1440.0000000
  free_energy:        10.2264659
  entropy:            51.8809642
  heat_capacity:      41.8564537
  energy:             84.9350543

- temperature:      1450.0000000
  free_energy:         9.7062052
  entropy:            52.1709455
  heat_capacity:      41.9476759
  energy:             85.3540762

- temperature:      1460.0000000
  free_energy:         9.1830516
  entropy:            52.4595558
  heat_capacity:      42.0374671
  energy:             85.7740031

- temperature:      1470.0000000
  free_energy:         8.6570186
  entropy:            52.7468042
  heat_capacity:      42.1258542
  energy:             86.1948208

- temperature:      1480.0000000
  free_energy:         8.1281200
  entropy:            53.0326997
  heat_capacity:      42.2128635
  energy:             86.6165156

- temperature:      1490.0000000
  free_energy:         7.5963691
  entropy:            53.3172513
  heat_capacity:      42.2985209
  energy:             87.0390736

- temperature:      1500.0000000
  free_energy:         7.0617794
  entropy:            53.6004681
  heat_capacity:      42.3828516
  energy:             87.4624816

- temperature:      1510.0000000
  free_energy:         6.5243642
  entropy:            53.8823590
  heat_capacity:      42.4658804
  energy:             87.8867263

- temperature:      1520.0000000
  free_energy:         5.9841366
  entropy:            54.1629331
  heat_capacity:      42.5476315
  energy:             88.3117949

- temperature:      1530.0000000
  free_energy:         5.4411099
  entropy:            54.4421992
  heat_capacity:      42.6281289
  energy:             88.7376747

- temperature:      1540.0000000
  free_energy:         4.8952970
  entropy:            54.7201665
  heat_capacity:      42.7073957
  energy:             89.1643534

- temperature:      1550.0000000
  free_energy:         4.3467109
  entropy:            54.9968437
  heat_capacity:      42.7854549
  energy:             89.5918186

- temperature:      1560.0000000
  free_energy:         3.7953644
  entropy:            55.2722398
  heat_capacity:      42.8623289
  energy:             90.0200585

- temperature:      1570.0000000
  free_energy:         3.2412703
  entropy:            55.5463637
  heat_capacity:      42.9380395
  energy:             90.4490613

- temperature:      1580.0000000
  free_energy:         2.6844413
  entropy:            55.8192242
  heat_capacity:      43.0126083
  energy:             90.8788155

- temperature:      1590.0000000
  free_energy:         2.1248900
  entropy:            56.0908300
  heat_capacity:      43.0860563
  energy:             91.3093098

- temperature:      1600.0000000
  free_energy:         1.5626289
  entropy:            56.3611901
  heat_capacity:      43.1584041
  energy:             91.7405330

- temperature:      1610.0000000
  free_energy:         0.9976703
  entropy:            56.6303130
  heat_capacity:      43.2296719
  energy:             92.1724742

- temperature:      1620.0000000
  free_energy:         0.4300267
  entropy:            56.8982075
  heat_capacity:      43.2998796
  energy:             92.6051229

- temperature:      1630.0000000
  free_energy:        -0.1402898
  entropy:            57.1648823
  heat_capacity:      43.3690464
  energy:             93.0384684

- temperature:      1640.0000000
  free_energy:        -0.7132669
  entropy:            57.4303459
  heat_capacity:      43.4371915
  energy:             93.4725004

- temperature:      1650.0000000
  free_energy:        -1.2888927
  entropy:            57.6946070
  heat_capacity:      43.5043333
  energy:             93.9072089

- temperature:      1660.0000000
  free_energy:        -1.8671551
  entropy:            57.9576740
  heat_capacity:      43.5704901
  energy:             94.3425838

- temperature:      1670.0000000
  free_energy:        -2.4480422
  entropy:            58.2195555
  heat_capacity:      43.6356798
  energy:             94.7786154

- temperature:      1680.0000000
  free_energy:        -3.0315423
  entropy:            58.4802598
  heat_capacity:      43.6999199
  energy:             95.2152942

- temperature:      1690.0000000
  free_energy:        -3.6176435
  entropy:            58.7397954
  heat_capacity:      43.7632274
  energy:             95.6526107

- temperature:      1700.0000000
  free_energy:        -4.2063343
  entropy:            58.9981706
  heat_capacity:      43.8256192
  energy:             96.0905557

- temperature:      1710.0000000
  free_energy:        -4.7976031
  entropy:            59.2553937
  heat_capacity:      43.8871117
  energy:             96.5291201

- temperature:      1720.0000000
  free_energy:        -5.3914384
  entropy:            59.5114729
  heat_capacity:      43.9477210
  energy:             96.9682950

- temperature:      1730.0000000
  free_energy:        -5.9878287
  entropy:            59.7664164
  heat_capacity:      44.0074629
  energy:             97.4080716

- temperature:      1740.0000000
  free_energy:        -6.5867629
  entropy:            60.0202324
  heat_capacity:      44.0663528
  energy:             97.8484414

- temperature:      1750.0000000
  free_energy:        -7.1882297
  entropy:            60.2729289
  heat_capacity:      44.1244059
  energy:             98.2893959

- temperature:      1760.0000000
  free_energy:        -7.7922178
  entropy:            60.5245140
  heat_capacity:      44.1816369
  energy:             98.7309268

- temperature:      1770.0000000
  free_energy:        -8.3987163
  entropy:            60.7749956
  heat_capacity:      44.2380605
  energy:             99.1730259

- temperature:      1780.0000000
  free_energy:        -9.0077141
  entropy:            61.0243817
  heat_capacity:      44.2936909
  energy:             99.6156854
