    2    2   30    1
  0.7464293E+02  0.3282343E-09  0.3282343E-09  0.1600000E-08  0.5000000E-15
  1.000000000000000E-004
  CAR 
 unknown system                          
     10     64     12
 
  0.0000000E+00  0.0000000E+00  0.0000000E+00  0.1700680E-02
      1        -17.469255   1.000000
      2         -9.757890   1.000000
      3         -3.766065   1.000000
      4         -3.495679   1.000000
      5         -3.495679   1.000000
      6          0.376012   0.000000
      7          0.527877   0.000000
      8          0.527877   0.000000
      9          2.023740   0.000000
     10          2.467003   0.000000
     11          3.828411   0.000000
     12          4.441269   0.000000
 
  0.7142857E-01 -0.6938894E-17  0.0000000E+00  0.1020408E-01
      1        -17.387233   1.000000
      2         -9.703226   1.000000
      3         -4.176861   1.000000
      4         -3.717834   1.000000
      5         -3.681858   1.000000
      6          0.280395   0.000000
      7          0.765532   0.000000
      8          1.053918   0.000000
      9          2.127898   0.000000
     10          2.551327   0.000000
     11          3.888983   0.000000
     12          4.533309   0.000000
 
  0.1428571E+00  0.0000000E+00  0.0000000E+00  0.1020408E-01
      1        -17.142348   1.000000
      2         -9.561854   1.000000
      3         -5.503198   1.000000
      4         -4.113319   1.000000
      5         -3.588746   1.000000
      6         -0.254681   0.000000
      7          1.295582   0.000000
      8          2.071384   0.000000
      9          2.458446   0.000000
     10          2.830160   0.000000
     11          4.022023   0.000000
     12          4.807174   0.000000
 
  0.2142857E+00 -0.2775558E-16  0.0000000E+00  0.1020408E-01
      1        -16.738709   1.000000
      2         -9.453699   1.000000
      3         -6.787460   1.000000
      4         -4.599819   1.000000
      5         -3.441717   1.000000
      6         -0.863226   0.000000
      7          1.777439   0.000000
      8          2.040652   0.000000
      9          2.823055   0.000000
     10          3.357760   0.000000
     11          4.480607   0.000000
     12          5.214860   0.000000
 
  0.2857143E+00 -0.2775558E-16  0.0000000E+00  0.1020408E-01
      1        -16.185743   1.000000
      2         -9.792679   1.000000
      3         -7.455042   1.000000
      4         -5.033402   1.000000
      5         -3.440798   1.000000
      6         -1.318540   0.000000
      7          1.229489   0.000000
      8          2.002720   0.000000
      9          3.462056   0.000000
     10          3.873972   0.000000
     11          4.732739   0.000000
     12          5.696232   0.000000
 
  0.3571429E+00 -0.2775558E-16  0.0000000E+00  0.1020408E-01
      1        -15.506774   1.000000
      2        -10.753140   1.000000
      3         -7.279705   1.000000
      4         -5.364304   1.000000
      5         -3.791775   1.000000
      6         -1.447697   0.000000
      7          0.559227   0.000000
      8          2.024419   0.000000
      9          3.792937   0.000000
     10          4.317609   0.000000
     11          5.037166   0.000000
     12          6.302052   0.000000
 
  0.4285714E+00 -0.5551115E-16  0.0000000E+00  0.1020408E-01
      1        -14.779537   1.000000
      2        -11.785581   1.000000
      3         -6.791558   1.000000
      4         -5.569586   1.000000
      5         -4.373852   1.000000
      6         -1.394029   0.000000
      7          0.237859   0.000000
      8          1.982303   0.000000
      9          3.297012   0.000000
     10          5.309592   0.000000
     11          5.916630   0.000000
     12          6.963645   0.000000
 
  0.5000000E+00 -0.2775558E-16  0.0000000E+00  0.5102041E-02
      1        -14.359115   1.000000
      2        -12.320980   1.000000
      3         -6.490849   1.000000
      4         -5.638994   1.000000
      5         -4.715052   1.000000
      6         -1.366033   0.000000
      7          0.176912   0.000000
      8          1.960133   0.000000
      9          3.066275   0.000000
     10          6.390108   0.000000
     11          6.401832   0.000000
     12          6.851652   0.000000
 
  0.7142857E-01  0.7142857E-01  0.0000000E+00  0.1020408E-01
      1        -17.223760   1.000000
      2         -9.604301   1.000000
      3         -5.080570   1.000000
      4         -4.083048   1.000000
      5         -3.628794   1.000000
      6          0.307541   0.000000
      7          0.660507   0.000000
      8          1.977981   0.000000
      9          2.374475   0.000000
     10          2.710947   0.000000
     11          3.966179   0.000000
     12          4.716793   0.000000
 
  0.1428571E+00  0.7142857E-01  0.0000000E+00  0.2040816E-01
      1        -16.899305   1.000000
      2         -9.467100   1.000000
      3         -6.269558   1.000000
      4         -4.683492   1.000000
      5         -3.485974   1.000000
      6         -0.147560   0.000000
      7          1.155759   0.000000
      8          2.476719   0.000000
      9          2.706595   0.000000
     10          3.095811   0.000000
     11          4.020859   0.000000
     12          4.948470   0.000000
 
  0.2142857E+00  0.7142857E-01  0.0000000E+00  0.2040816E-01
      1        -16.420120   1.000000
      2         -9.540226   1.000000
      3         -7.219878   1.000000
      4         -5.235411   1.000000
      5         -3.389819   1.000000
      6         -0.677834   0.000000
      7          1.564729   0.000000
      8          1.865178   0.000000
      9          3.188608   0.000000
     10          3.645595   0.000000
     11          4.471614   0.000000
     12          5.394020   0.000000
 
  0.2857143E+00  0.7142857E-01  0.0000000E+00  0.2040816E-01
      1        -15.800488   1.000000
      2        -10.243426   1.000000
      3         -7.387622   1.000000
      4         -5.660051   1.000000
      5         -3.538442   1.000000
      6         -0.979332   0.000000
      7          1.030322   0.000000
      8          1.702700   0.000000
      9          3.882540   0.000000
     10          4.117649   0.000000
     11          4.816377   0.000000
     12          6.005325   0.000000
 
  0.3571429E+00  0.7142857E-01  0.0000000E+00  0.2040816E-01
      1        -15.080124   1.000000
      2        -11.288930   1.000000
      3         -7.029552   1.000000
      4         -5.909227   1.000000
      5         -4.029530   1.000000
      6         -0.957758   0.000000
      7          0.439793   0.000000
      8          1.730644   0.000000
      9          3.671989   0.000000
     10          4.871691   0.000000
     11          5.509488   0.000000
     12          6.719462   0.000000
 
  0.4285714E+00  0.7142857E-01  0.0000000E+00  0.2040816E-01
      1        -14.422039   1.000000
      2        -12.159136   1.000000
      3         -6.688533   1.000000
      4         -5.905986   1.000000
      5         -4.589032   1.000000
      6         -0.825993   0.000000
      7          0.134897   0.000000
      8          1.789417   0.000000
      9          3.208610   0.000000
     10          5.945044   0.000000
     11          6.472324   0.000000
     12          7.120347   0.000000
 
  0.1428571E+00  0.1428571E+00  0.0000000E+00  0.1020408E-01
      1        -16.498742   1.000000
      2         -9.471369   1.000000
      3         -6.982024   1.000000
      4         -5.543346   1.000000
      5         -3.381880   1.000000
      6          0.120372   0.000000
      7          0.960127   0.000000
      8          2.606211   0.000000
      9          3.100458   0.000000
     10          3.135970   0.000000
     11          3.938321   0.000000
     12          5.202580   0.000000
 
  0.2142857E+00  0.1428571E+00  0.0000000E+00  0.2040816E-01
      1        -15.949781   1.000000
      2         -9.911315   1.000000
      3         -7.274816   1.000000
      4         -6.250515   1.000000
      5         -3.408013   1.000000
      6         -0.106017   0.000000
      7          0.985338   0.000000
      8          2.059108   0.000000
      9          3.577065   0.000000
     10          3.812141   0.000000
     11          4.477446   0.000000
     12          5.701350   0.000000
 
  0.2857143E+00  0.1428571E+00  0.0000000E+00  0.2040816E-01
      1        -15.274188   1.000000
      2        -10.809958   1.000000
      3         -7.169990   1.000000
      4         -6.577747   1.000000
      5         -3.722152   1.000000
      6         -0.280699   0.000000
      7          0.815317   0.000000
      8          1.621712   0.000000
      9          4.036285   0.000000
     10          4.639759   0.000000
     11          5.253482   0.000000
     12          5.844679   0.000000
 
  0.3571429E+00  0.1428571E+00  0.0000000E+00  0.2040816E-01
      1        -14.543060   1.000000
      2        -11.782736   1.000000
      3         -7.252129   1.000000
      4         -6.252675   1.000000
      5         -4.284660   1.000000
      6         -0.262186   0.000000
      7          0.561209   0.000000
      8          1.554322   0.000000
      9          3.639272   0.000000
     10          5.612967   0.000000
     11          6.160403   0.000000
     12          6.786853   0.000000
 
  0.4285714E+00  0.1428571E+00  0.0000000E+00  0.1020408E-01
      1        -14.106776   1.000000
      2        -12.312912   1.000000
      3         -7.321071   1.000000
      4         -5.918828   1.000000
      5         -4.666943   1.000000
      6         -0.217042   0.000000
      7          0.442520   0.000000
      8          1.610392   0.000000
      9          3.356453   0.000000
     10          6.584384   0.000000
     11          6.863504   0.000000
     12          7.000210   0.000000
 
  0.2142857E+00  0.2142857E+00  0.0000000E+00  0.1020408E-01
      1        -15.340799   1.000000
      2        -10.591555   1.000000
      3         -7.162817   1.000000
      4         -6.946649   1.000000
      5         -3.603722   1.000000
      6          0.216814   0.000000
      7          0.356926   0.000000
      8          2.660158   0.000000
      9          3.504418   0.000000
     10          4.506734   0.000000
     11          5.100144   0.000000
     12          5.427717   0.000000
 
  0.2857143E+00  0.2142857E+00  0.0000000E+00  0.2040816E-01
      1        -14.625832   1.000000
      2        -11.445303   1.000000
      3         -7.773918   1.000000
      4         -6.404945   1.000000
      5         -4.030249   1.000000
      6         -0.370187   0.000000
      7          0.816858   0.000000
      8          2.447991   0.000000
      9          4.046840   0.000000
     10          5.407002   0.000000
     11          5.482920   0.000000
     12          5.865207   0.000000
 
  0.3571429E+00  0.2142857E+00  0.0000000E+00  0.2040816E-01
      1        -13.938530   1.000000
      2        -12.234069   1.000000
      3         -8.071335   1.000000
      4         -5.830764   1.000000
      5         -4.559516   1.000000
      6         -0.676593   0.000000
      7          1.387054   0.000000
      8          1.970271   0.000000
      9          3.909926   0.000000
     10          5.922584   0.000000
     11          6.569268   0.000000
     12          6.812305   0.000000
 
  0.2857143E+00  0.2857143E+00  0.0000000E+00  0.1020408E-01
      1        -13.898505   1.000000
      2        -12.143309   1.000000
      3         -8.387049   1.000000
      4         -5.814725   1.000000
      5         -4.464907   1.000000
      6         -0.894374   0.000000
      7          1.404147   0.000000
      8          2.639981   0.000000
      9          4.639695   0.000000
     10          5.434834   0.000000
     11          5.876018   0.000000
     12          6.471269   0.000000
 
  0.3571429E+00  0.2857143E+00  0.0000000E+00  0.1020408E-01
      1        -13.357416   1.000000
      2        -12.672551   1.000000
      3         -8.603040   1.000000
      4         -5.365003   1.000000
      5         -4.849373   1.000000
      6         -1.103591   0.000000
      7          1.922107   0.000000
      8          2.269861   0.000000
      9          4.790012   0.000000
     10          5.570889   0.000000
     11          6.768192   0.000000
     12          7.182157   0.000000
 
  0.0000000E+00  0.0000000E+00  0.3333333E+00  0.3401361E-02
      1        -17.469261   1.000000
      2         -9.757887   1.000000
      3         -3.766055   1.000000
      4         -3.495659   1.000000
      5         -3.495659   1.000000
      6          0.375927   0.000000
      7          0.527890   0.000000
      8          0.527890   0.000000
      9          1.975373   0.000000
     10          2.628656   0.000000
     11          3.441288   0.000000
     12          4.994621   0.000000
 
  0.7142857E-01 -0.6938894E-17  0.3333333E+00  0.1020408E-01
      1        -17.387231   1.000000
      2         -9.703223   1.000000
      3         -4.176879   1.000000
      4         -3.717827   1.000000
      5         -3.681860   1.000000
      6          0.280394   0.000000
      7          0.765527   0.000000
      8          1.053526   0.000000
      9          2.080032   0.000000
     10          2.706915   0.000000
     11          3.530829   0.000000
     12          5.005274   0.000000
 
  0.0000000E+00  0.7142857E-01  0.3333333E+00  0.1020408E-01
      1        -17.387232   1.000000
      2         -9.703225   1.000000
      3         -4.176878   1.000000
      4         -3.717831   1.000000
      5         -3.681859   1.000000
      6          0.280375   0.000000
      7          0.765531   0.000000
      8          1.053641   0.000000
      9          2.079110   0.000000
     10          2.709120   0.000000
     11          3.528145   0.000000
     12          5.006169   0.000000
 
  0.1428571E+00  0.0000000E+00  0.3333333E+00  0.1020408E-01
      1        -17.142341   1.000000
      2         -9.561847   1.000000
      3         -5.503195   1.000000
      4         -4.113315   1.000000
      5         -3.588740   1.000000
      6         -0.254672   0.000000
      7          1.295595   0.000000
      8          2.061952   0.000000
      9          2.430227   0.000000
     10          2.952215   0.000000
     11          3.806264   0.000000
     12          4.694650   0.000000
 
  0.0000000E+00  0.1428571E+00  0.3333333E+00  0.1020408E-01
      1        -17.142343   1.000000
      2         -9.561847   1.000000
      3         -5.503191   1.000000
      4         -4.113310   1.000000
      5         -3.588740   1.000000
      6         -0.254683   0.000000
      7          1.295596   0.000000
      8          2.067655   0.000000
      9          2.411460   0.000000
     10          2.982207   0.000000
     11          3.767447   0.000000
     12          4.725808   0.000000
 
  0.2142857E+00 -0.2775558E-16  0.3333333E+00  0.1020408E-01
      1        -16.738709   1.000000
      2         -9.453696   1.000000
      3         -6.787468   1.000000
      4         -4.599817   1.000000
      5         -3.441715   1.000000
      6         -0.863223   0.000000
      7          1.777435   0.000000
      8          2.041361   0.000000
      9          2.784289   0.000000
     10          3.488119   0.000000
     11          4.297836   0.000000
     12          4.989233   0.000000
 
  0.0000000E+00  0.2142857E+00  0.3333333E+00  0.1020408E-01
      1        -16.738708   1.000000
      2         -9.453695   1.000000
      3         -6.787470   1.000000
      4         -4.599820   1.000000
      5         -3.441716   1.000000
      6         -0.863231   0.000000
      7          1.777444   0.000000
      8          2.042222   0.000000
      9          2.776677   0.000000
     10          3.522890   0.000000
     11          4.204261   0.000000
     12          5.116538   0.000000
 
  0.2857143E+00 -0.2775558E-16  0.3333333E+00  0.1020408E-01
      1        -16.185748   1.000000
      2         -9.792673   1.000000
      3         -7.455040   1.000000
      4         -5.033399   1.000000
      5         -3.440797   1.000000
      6         -1.318536   0.000000
      7          1.229570   0.000000
      8          2.002732   0.000000
      9          3.423352   0.000000
     10          3.952580   0.000000
     11          4.882608   0.000000
     12          5.117017   0.000000
 
  0.0000000E+00  0.2857143E+00  0.3333333E+00  0.1020408E-01
      1        -16.185747   1.000000
      2         -9.792676   1.000000
      3         -7.455039   1.000000
      4         -5.033396   1.000000
      5         -3.440798   1.000000
      6         -1.318533   0.000000
      7          1.229577   0.000000
      8          2.002732   0.000000
      9          3.419447   0.000000
     10          3.981879   0.000000
     11          4.695128   0.000000
     12          5.379760   0.000000
 
  0.3571429E+00 -0.2775558E-16  0.3333333E+00  0.1020408E-01
      1        -15.506774   1.000000
      2        -10.753136   1.000000
      3         -7.279701   1.000000
      4         -5.364311   1.000000
      5         -3.791774   1.000000
      6         -1.447701   0.000000
      7          0.559238   0.000000
      8          2.024406   0.000000
      9          3.797271   0.000000
     10          4.271713   0.000000
     11          5.276041   0.000000
     12          5.765301   0.000000
 
  0.0000000E+00  0.3571429E+00  0.3333333E+00  0.1020408E-01
      1        -15.506773   1.000000
      2        -10.753137   1.000000
      3         -7.279702   1.000000
      4         -5.364311   1.000000
      5         -3.791771   1.000000
      6         -1.447698   0.000000
      7          0.559237   0.000000
      8          2.024402   0.000000
      9          3.794855   0.000000
     10          4.286622   0.000000
     11          5.180401   0.000000
     12          5.932090   0.000000
 
  0.4285714E+00 -0.5551115E-16  0.3333333E+00  0.1020408E-01
      1        -14.779539   1.000000
      2        -11.785589   1.000000
      3         -6.791559   1.000000
      4         -5.569597   1.000000
      5         -4.373858   1.000000
      6         -1.394040   0.000000
      7          0.237862   0.000000
      8          1.982288   0.000000
      9          3.297164   0.000000
     10          5.269203   0.000000
     11          6.094423   0.000000
     12          6.702900   0.000000
 
  0.0000000E+00  0.4285714E+00  0.3333333E+00  0.1020408E-01
      1        -14.779539   1.000000
      2        -11.785588   1.000000
      3         -6.791563   1.000000
      4         -5.569597   1.000000
      5         -4.373853   1.000000
      6         -1.394035   0.000000
      7          0.237850   0.000000
      8          1.982292   0.000000
      9          3.297170   0.000000
     10          5.280049   0.000000
     11          6.019041   0.000000
     12          6.873190   0.000000
 
  0.5000000E+00 -0.2775558E-16  0.3333333E+00  0.1020408E-01
      1        -14.359117   1.000000
      2        -12.320981   1.000000
      3         -6.490852   1.000000
      4         -5.639001   1.000000
      5         -4.715056   1.000000
      6         -1.366029   0.000000
      7          0.176910   0.000000
      8          1.960126   0.000000
      9          3.066314   0.000000
     10          6.370023   0.000000
     11          6.392100   0.000000
     12          6.840984   0.000000
 
  0.7142857E-01  0.7142857E-01  0.3333333E+00  0.2040816E-01
      1        -17.223753   1.000000
      2         -9.604296   1.000000
      3         -5.080572   1.000000
      4         -4.083059   1.000000
      5         -3.628789   1.000000
      6          0.307549   0.000000
      7          0.660466   0.000000
      8          1.971019   0.000000
      9          2.332175   0.000000
     10          2.853830   0.000000
     11          3.698643   0.000000
     12          4.799899   0.000000
 
  0.1428571E+00  0.7142857E-01  0.3333333E+00  0.2040816E-01
      1        -16.899309   1.000000
      2         -9.467096   1.000000
      3         -6.269560   1.000000
      4         -4.683498   1.000000
      5         -3.485975   1.000000
      6         -0.147551   0.000000
      7          1.155727   0.000000
      8          2.462030   0.000000
      9          2.691026   0.000000
     10          3.183110   0.000000
     11          4.034557   0.000000
     12          4.456635   0.000000
 
 -0.7142857E-01  0.2142857E+00  0.3333333E+00  0.2040816E-01
      1        -16.899309   1.000000
      2         -9.467095   1.000000
      3         -6.269560   1.000000
      4         -4.683499   1.000000
      5         -3.485975   1.000000
      6         -0.147557   0.000000
      7          1.155776   0.000000
      8          2.472216   0.000000
      9          2.665916   0.000000
     10          3.219811   0.000000
     11          3.963754   0.000000
     12          4.516401   0.000000
 
  0.2142857E+00  0.7142857E-01  0.3333333E+00  0.2040816E-01
      1        -16.420123   1.000000
      2         -9.540225   1.000000
      3         -7.219878   1.000000
      4         -5.235418   1.000000
      5         -3.389823   1.000000
      6         -0.677834   0.000000
      7          1.564766   0.000000
      8          1.865377   0.000000
      9          3.150341   0.000000
     10          3.734895   0.000000
     11          4.590260   0.000000
     12          4.830244   0.000000
 
 -0.7142857E-01  0.2857143E+00  0.3333333E+00  0.2040816E-01
      1        -16.420123   1.000000
      2         -9.540225   1.000000
      3         -7.219877   1.000000
      4         -5.235417   1.000000
      5         -3.389821   1.000000
      6         -0.677832   0.000000
      7          1.564829   0.000000
      8          1.865428   0.000000
      9          3.144143   0.000000
     10          3.769941   0.000000
     11          4.436565   0.000000
     12          4.990845   0.000000
 
  0.2857143E+00  0.7142857E-01  0.3333333E+00  0.2040816E-01
      1        -15.800481   1.000000
      2        -10.243424   1.000000
      3         -7.387619   1.000000
      4         -5.660046   1.000000
      5         -3.538445   1.000000
      6         -0.979330   0.000000
      7          1.030353   0.000000
      8          1.702724   0.000000
      9          3.861744   0.000000
     10          4.114212   0.000000
     11          5.064560   0.000000
     12          5.419583   0.000000
 
 -0.7142857E-01  0.3571429E+00  0.3333333E+00  0.2040816E-01
      1        -15.800482   1.000000
      2        -10.243424   1.000000
      3         -7.387621   1.000000
      4         -5.660045   1.000000
      5         -3.538443   1.000000
      6         -0.979328   0.000000
      7          1.030350   0.000000
      8          1.702737   0.000000
      9          3.847652   0.000000
     10          4.152668   0.000000
     11          4.921796   0.000000
     12          5.620530   0.000000
 
  0.3571429E+00  0.7142857E-01  0.3333333E+00  0.2040816E-01
      1        -15.080125   1.000000
      2        -11.288927   1.000000
      3         -7.029548   1.000000
      4         -5.909222   1.000000
      5         -4.029527   1.000000
      6         -0.957757   0.000000
      7          0.439803   0.000000
      8          1.730660   0.000000
      9          3.672670   0.000000
     10          4.827925   0.000000
     11          5.717847   0.000000
     12          6.296719   0.000000
 
 -0.7142857E-01  0.4285714E+00  0.3333333E+00  0.2040816E-01
      1        -15.080126   1.000000
      2        -11.288926   1.000000
      3         -7.029552   1.000000
      4         -5.909219   1.000000
      5         -4.029525   1.000000
      6         -0.957750   0.000000
      7          0.439795   0.000000
      8          1.730662   0.000000
      9          3.672447   0.000000
     10          4.838598   0.000000
     11          5.642204   0.000000
     12          6.448096   0.000000
 
  0.4285714E+00  0.7142857E-01  0.3333333E+00  0.2040816E-01
      1        -14.422042   1.000000
      2        -12.159135   1.000000
      3         -6.688537   1.000000
      4         -5.905979   1.000000
      5         -4.589030   1.000000
      6         -0.825993   0.000000
      7          0.134900   0.000000
      8          1.789428   0.000000
      9          3.208663   0.000000
     10          5.907328   0.000000
     11          6.591937   0.000000
     12          7.182444   0.000000
 
 -0.7142857E-01  0.5000000E+00  0.3333333E+00  0.2040816E-01
      1        -14.422042   1.000000
      2        -12.159135   1.000000
      3         -6.688536   1.000000
      4         -5.905981   1.000000
      5         -4.589030   1.000000
      6         -0.825989   0.000000
      7          0.134895   0.000000
      8          1.789426   0.000000
      9          3.208666   0.000000
     10          5.919134   0.000000
     11          6.536303   0.000000
     12          7.111349   0.000000
 
  0.1428571E+00  0.1428571E+00  0.3333333E+00  0.2040816E-01
      1        -16.498741   1.000000
      2         -9.471368   1.000000
      3         -6.982024   1.000000
      4         -5.543345   1.000000
      5         -3.381879   1.000000
      6          0.120389   0.000000
      7          0.960123   0.000000
      8          2.605440   0.000000
      9          3.085172   0.000000
     10          3.129043   0.000000
     11          4.127975   0.000000
     12          4.653714   0.000000
 
  0.2142857E+00  0.1428571E+00  0.3333333E+00  0.2040816E-01
      1        -15.949778   1.000000
      2         -9.911311   1.000000
      3         -7.274815   1.000000
      4         -6.250518   1.000000
      5         -3.408017   1.000000
      6         -0.106008   0.000000
      7          0.985334   0.000000
      8          2.059159   0.000000
      9          3.582305   0.000000
     10          3.767728   0.000000
     11          4.682823   0.000000
     12          5.243181   0.000000
 
 -0.1428571E+00  0.3571429E+00  0.3333333E+00  0.2040816E-01
      1        -15.949779   1.000000
      2         -9.911313   1.000000
      3         -7.274815   1.000000
      4         -6.250518   1.000000
      5         -3.408019   1.000000
      6         -0.106011   0.000000
      7          0.985341   0.000000
      8          2.059216   0.000000
      9          3.567949   0.000000
     10          3.792588   0.000000
     11          4.647043   0.000000
     12          5.260895   0.000000
 
  0.2857143E+00  0.1428571E+00  0.3333333E+00  0.2040816E-01
      1        -15.274190   1.000000
      2        -10.809958   1.000000
      3         -7.169987   1.000000
      4         -6.577746   1.000000
      5         -3.722152   1.000000
      6         -0.280690   0.000000
      7          0.815320   0.000000
      8          1.621732   0.000000
      9          4.038697   0.000000
     10          4.591470   0.000000
     11          5.465989   0.000000
     12          5.828982   0.000000
 
 -0.1428571E+00  0.4285714E+00  0.3333333E+00  0.2040816E-01
      1        -15.274190   1.000000
      2        -10.809958   1.000000
      3         -7.169990   1.000000
      4         -6.577747   1.000000
      5         -3.722149   1.000000
      6         -0.280691   0.000000
      7          0.815320   0.000000
      8          1.621745   0.000000
      9          4.035918   0.000000
     10          4.608111   0.000000
     11          5.388936   0.000000
     12          5.850374   0.000000
 
  0.3571429E+00  0.1428571E+00  0.3333333E+00  0.2040816E-01
      1        -14.543057   1.000000
      2        -11.782740   1.000000
      3         -7.252129   1.000000
      4         -6.252674   1.000000
      5         -4.284660   1.000000
      6         -0.262183   0.000000
      7          0.561219   0.000000
      8          1.554336   0.000000
      9          3.639399   0.000000
     10          5.571312   0.000000
     11          6.318406   0.000000
     12          6.782018   0.000000
 
 -0.1428571E+00  0.5000000E+00  0.3333333E+00  0.2040816E-01
      1        -14.543059   1.000000
      2        -11.782738   1.000000
      3         -7.252134   1.000000
      4         -6.252674   1.000000
      5         -4.284660   1.000000
      6         -0.262184   0.000000
      7          0.561216   0.000000
      8          1.554339   0.000000
      9          3.639375   0.000000
     10          5.581008   0.000000
     11          6.259564   0.000000
     12          6.784183   0.000000
 
  0.4285714E+00  0.1428571E+00  0.3333333E+00  0.2040816E-01
      1        -14.106772   1.000000
      2        -12.312912   1.000000
      3         -7.321077   1.000000
      4         -5.918830   1.000000
      5         -4.666943   1.000000
      6         -0.217053   0.000000
      7          0.442522   0.000000
      8          1.610399   0.000000
      9          3.356483   0.000000
     10          6.570095   0.000000
     11          6.839739   0.000000
     12          6.997465   0.000000
 
  0.2142857E+00  0.2142857E+00  0.3333333E+00  0.2040816E-01
      1        -15.340801   1.000000
      2        -10.591552   1.000000
      3         -7.162818   1.000000
      4         -6.946648   1.000000
      5         -3.603717   1.000000
      6          0.216815   0.000000
      7          0.356934   0.000000
      8          2.660138   0.000000
      9          3.505103   0.000000
     10          4.467332   0.000000
     11          5.257960   0.000000
     12          5.416512   0.000000
 
  0.2857143E+00  0.2142857E+00  0.3333333E+00  0.2040816E-01
      1        -14.625830   1.000000
      2        -11.445302   1.000000
      3         -7.773919   1.000000
      4         -6.404946   1.000000
      5         -4.030246   1.000000
      6         -0.370191   0.000000
      7          0.816857   0.000000
      8          2.447994   0.000000
      9          4.047072   0.000000