       N       E                     dE             d eps       ncg     rms          rms(c)
DAV:   1     0.544776607088E+02    0.54478E+02   -0.32865E+03  1536   0.582E+02
DAV:   2    -0.448422692521E+01   -0.58962E+02   -0.53611E+02  2416   0.144E+02
DAV:   3    -0.105964106582E+02   -0.61122E+01   -0.60240E+01  2136   0.479E+01
DAV:   4    -0.107846818217E+02   -0.18827E+00   -0.18813E+00  2472   0.104E+01
DAV:   5    -0.107916601908E+02   -0.69784E-02   -0.69781E-02  2204   0.143E+00
DAV:   6    -0.107918482161E+02   -0.18803E-03   -0.18802E-03  2508   0.245E-01
DAV:   7    -0.107918569228E+02   -0.87066E-05   -0.87067E-05  2368   0.368E-02
DAV:   8    -0.107918571670E+02   -0.24423E-06   -0.24436E-06  2316   0.624E-03
DAV:   9    -0.107918571761E+02   -0.91231E-08   -0.91150E-08  1628   0.118E-03
DAV:  10    -0.107918571773E+02   -0.12198E-08   -0.88468E-09  1444   0.566E-04
DAV:  11    -0.107918571777E+02   -0.34868E-09   -0.34814E-09  1308   0.393E-04
DAV:  12    -0.107918571779E+02   -0.20577E-09   -0.19211E-09  1184   0.298E-04    0.249E+00
DAV:  13    -0.107658861821E+02    0.25971E-01   -0.41971E-03  1952   0.311E-01    0.221E+00
DAV:  14    -0.106892758384E+02    0.76610E-01   -0.22467E-01  1996   0.226E+00    0.300E-01
DAV:  15    -0.106839033602E+02    0.53725E-02   -0.23732E-02  1944   0.111E+00    0.116E-01
DAV:  16    -0.106841617414E+02   -0.25838E-03   -0.27398E-03  2280   0.291E-01    0.655E-02
DAV:  17    -0.106840012404E+02    0.16050E-03   -0.63054E-04  1972   0.138E-01    0.574E-02
DAV:  18    -0.106839767152E+02    0.24525E-04   -0.24100E-04  2092   0.846E-02    0.930E-03
DAV:  19    -0.106839786651E+02   -0.19499E-05   -0.28769E-05  2472   0.327E-02    0.987E-03
DAV:  20    -0.106839788809E+02   -0.21588E-06   -0.12932E-06  1512   0.737E-03
   1 F= -.10683979E+02 E0= -.10683979E+02  d E =-.106840E+02
