 vasp.6.4.2 20Jul23 (build Nov 14 2023 12:59:38) complex                        
  
 executed on             LinuxIFC date 2023.12.16  19:15:10
 running   16 mpi-ranks, on    1 nodes
 distrk:  each k-point on   16 cores,    1 groups
 distr:  one band on NCORE=   4 cores,    4 groups


--------------------------------------------------------------------------------------------------------


 INCAR:
   ENCUT = 510.0800
   ALGO = Normal
   NELM = 200
   NELMIN = 6
   NELMDL = -12
   EDIFF = 1.0E-6
   AMIX = 0.1
   BMIX = 0.0001
   PREC = Accurate
   IVDW = 0
   ISPIN = 1
   ADDGRID = .TRUE.
   LASPH = .TRUE.
   NSW = 30
   EDIFFG = -0.010
   IBRION = 2
   ISIF = 3
   POTIM = 0.5
   STRESSTYPE = 2
   ISMEAR = 0
   SIGMA = 0.01
   LORBIT = 10
   NEDOS = 6001
   NWRITE = 1
   LWAVE = .FALSE.
   LCHARG = .FALSE.
   NCORE = 4
   LPLANE = .TRUE.

 POTCAR:    PAW_PBE P_GW 19Mar2012                
 POTCAR:    PAW_PBE P_GW 19Mar2012                
  local pseudopotential read in
  partial core-charges read in
  partial kinetic energy density read in
  kinetic energy density of atom read in
  atomic valenz-charges read in
  non local Contribution for L=           0  read in
    real space projection operators read in
  non local Contribution for L=           0  read in
    real space projection operators read in
  non local Contribution for L=           1  read in
    real space projection operators read in
  non local Contribution for L=           1  read in
    real space projection operators read in
  non local Contribution for L=           2  read in
    real space projection operators read in
  non local Contribution for L=           2  read in
    real space projection operators read in
    PAW grid and wavefunctions read in
 
   number of l-projection  operators is LMAX  =           6
   number of lm-projection operators is LMMAX =          18
 
  PAW_PBE P_GW 19Mar2012                :
 energy of atom  1       EATOM= -176.0430
 kinetic energy error for atom=    0.0012 (will be added to EATOM!!)
 
 
 POSCAR: pnictogen honeycomb monolayer
  positions in direct lattice
  velocities in cartesian coordinates
 exchange correlation table for  LEXCH =        8
   RHO(1)=    0.500       N(1)  =     2000
   RHO(2)=  100.500       N(2)  =     4000
 


--------------------------------------------------------------------------------------------------------


 ion  position               nearest neighbor table
   1  0.667  0.333  0.461-   2 2.27   2 2.27   2 2.27
   2  0.333  0.667  0.539-   1 2.27   1 2.27   1 2.27
 
  LATTYP: Found a hexagonal cell.
 ALAT       =     3.2823434942
 C/A-ratio  =     4.8745660009
  
  Lattice vectors:
  
 A1 = (   3.2823434942,   0.0000000000,   0.0000000000)
 A2 = (  -1.6411717471,   2.8425928499,   0.0000000000)
 A3 = (   0.0000000000,   0.0000000000,  16.0000000000)


Analysis of symmetry for initial positions (statically):
=====================================================================
 Subroutine PRICEL returns:
 Original cell was already a primitive cell.
 

 Routine SETGRP: Setting up the symmetry group for a 
 hexagonal supercell.


 Subroutine GETGRP returns: Found 12 space group operations
 (whereof 12 operations were pure point group operations)
 out of a pool of 24 trial point group operations.


The static configuration has the point symmetry D_3d.


Analysis of symmetry for dynamics (positions and initial velocities):
=====================================================================
 Subroutine PRICEL returns:
 Original cell was already a primitive cell.
 

 Routine SETGRP: Setting up the symmetry group for a 
 hexagonal supercell.


 Subroutine GETGRP returns: Found 12 space group operations
 (whereof 12 operations were pure point group operations)
 out of a pool of 24 trial point group operations.


The dynamic configuration has the point symmetry D_3d.


 Subroutine INISYM returns: Found 12 space group operations
 (whereof 12 operations are pure point group operations),
 and found     1 'primitive' translations


----------------------------------------------------------------------------------------

                                     Primitive cell                                     

  volume of cell :     149.2859

  direct lattice vectors                    reciprocal lattice vectors
     3.282343494  0.000000000  0.000000000     0.304660375  0.175895750  0.000000000
    -1.641171747  2.842592850  0.000000000     0.000000000  0.351791499  0.000000000
     0.000000000  0.000000000 16.000000000     0.000000000  0.000000000  0.062500000

  length of vectors
     3.282343494  3.282343494 16.000000000     0.351791499  0.351791499  0.062500000

  position of ions in fractional coordinates (direct lattice)
     0.666666667  0.333333333  0.461182839
     0.333333333  0.666666667  0.538817161

  ion indices of the primitive-cell ions
   primitive index   ion index
                 1           1
                 2           2

----------------------------------------------------------------------------------------

 
 
 KPOINTS: Fully automatic mesh                    

Automatic generation of k-mesh.
 Grid dimensions derived from RKLEN:
 generate k-points for:   14   14    3

 Generating k-lattice:

  Cartesian coordinates                     Fractional coordinates (reciprocal lattice)
     0.021761455  0.012563982  0.000000000     0.071428571  0.000000000  0.000000000
     0.000000000  0.025127964  0.000000000     0.000000000  0.071428571  0.000000000
     0.000000000  0.000000000  0.020833333     0.000000000  0.000000000  0.333333333

  Length of vectors
     0.025127964  0.025127964  0.020833333

  Shift w.r.t. Gamma in fractional coordinates (k-lattice)
     0.000000000  0.000000000  0.000000000

 
 Subroutine IBZKPT returns following result:
 ===========================================
 
 Found     64 irreducible k-points:
 
 Following reciprocal coordinates:
            Coordinates               Weight
  0.000000  0.000000  0.000000      1.000000
  0.071429 -0.000000  0.000000      6.000000
  0.142857  0.000000  0.000000      6.000000
  0.214286 -0.000000  0.000000      6.000000
  0.285714 -0.000000  0.000000      6.000000
  0.357143 -0.000000  0.000000      6.000000
  0.428571 -0.000000  0.000000      6.000000
  0.500000 -0.000000  0.000000      3.000000
  0.071429  0.071429  0.000000      6.000000
  0.142857  0.071429  0.000000     12.000000
  0.214286  0.071429  0.000000     12.000000
  0.285714  0.071429  0.000000     12.000000
  0.357143  0.071429  0.000000     12.000000
  0.428571  0.071429  0.000000     12.000000
  0.142857  0.142857  0.000000      6.000000
  0.214286  0.142857  0.000000     12.000000
  0.285714  0.142857  0.000000     12.000000
  0.357143  0.142857  0.000000     12.000000
  0.428571  0.142857  0.000000      6.000000
  0.214286  0.214286  0.000000      6.000000
  0.285714  0.214286  0.000000     12.000000
  0.357143  0.214286  0.000000     12.000000
  0.285714  0.285714  0.000000      6.000000
  0.357143  0.285714  0.000000      6.000000
  0.000000  0.000000  0.333333      2.000000
  0.071429 -0.000000  0.333333      6.000000
  0.000000  0.071429  0.333333      6.000000
  0.142857  0.000000  0.333333      6.000000
  0.000000  0.142857  0.333333      6.000000
  0.214286 -0.000000  0.333333      6.000000
  0.000000  0.214286  0.333333      6.000000
  0.285714 -0.000000  0.333333      6.000000
  0.000000  0.285714  0.333333      6.000000
  0.357143 -0.000000  0.333333      6.000000
  0.000000  0.357143  0.333333      6.000000
  0.428571 -0.000000  0.333333      6.000000
  0.000000  0.428571  0.333333      6.000000
  0.500000 -0.000000  0.333333      6.000000
  0.071429  0.071429  0.333333     12.000000
  0.142857  0.071429  0.333333     12.000000
 -0.071429  0.214286  0.333333     12.000000
  0.214286  0.071429  0.333333     12.000000
 -0.071429  0.285714  0.333333     12.000000
  0.285714  0.071429  0.333333     12.000000
 -0.071429  0.357143  0.333333     12.000000
  0.357143  0.071429  0.333333     12.000000
 -0.071429  0.428571  0.333333     12.000000
  0.428571  0.071429  0.333333     12.000000
 -0.071429  0.500000  0.333333     12.000000
  0.142857  0.142857  0.333333     12.000000
  0.214286  0.142857  0.333333     12.000000
 -0.142857  0.357143  0.333333     12.000000
  0.285714  0.142857  0.333333     12.000000
 -0.142857  0.428571  0.333333     12.000000
  0.357143  0.142857  0.333333     12.000000
 -0.142857  0.500000  0.333333     12.000000
  0.428571  0.142857  0.333333     12.000000
  0.214286  0.214286  0.333333     12.000000
  0.285714  0.214286  0.333333     12.000000
 -0.214286  0.500000  0.333333     12.000000
  0.357143  0.214286  0.333333     12.000000
 -0.214286 -0.428571  0.333333     12.000000
  0.285714  0.285714  0.333333     12.000000
  0.357143  0.285714  0.333333     12.000000
 
 Following cartesian coordinates:
            Coordinates               Weight
  0.000000  0.000000  0.000000      1.000000
  0.021761  0.012564  0.000000      6.000000
  0.043523  0.025128  0.000000      6.000000
  0.065284  0.037692  0.000000      6.000000
  0.087046  0.050256  0.000000      6.000000
  0.108807  0.062820  0.000000      6.000000
  0.130569  0.075384  0.000000      6.000000
  0.152330  0.087948  0.000000      3.000000
  0.021761  0.037692  0.000000      6.000000
  0.043523  0.050256  0.000000     12.000000
  0.065284  0.062820  0.000000     12.000000
  0.087046  0.075384  0.000000     12.000000
  0.108807  0.087948  0.000000     12.000000
  0.130569  0.100512  0.000000     12.000000
  0.043523  0.075384  0.000000      6.000000
  0.065284  0.087948  0.000000     12.000000
  0.087046  0.100512  0.000000     12.000000
  0.108807  0.113076  0.000000     12.000000
  0.130569  0.125640  0.000000      6.000000
  0.065284  0.113076  0.000000      6.000000
  0.087046  0.125640  0.000000     12.000000
  0.108807  0.138204  0.000000     12.000000
  0.087046  0.150768  0.000000      6.000000
  0.108807  0.163332  0.000000      6.000000
  0.000000  0.000000  0.020833      2.000000
  0.021761  0.012564  0.020833      6.000000
  0.000000  0.025128  0.020833      6.000000
  0.043523  0.025128  0.020833      6.000000
  0.000000  0.050256  0.020833      6.000000
  0.065284  0.037692  0.020833      6.000000
  0.000000  0.075384  0.020833      6.000000
  0.087046  0.050256  0.020833      6.000000
  0.000000  0.100512  0.020833      6.000000
  0.108807  0.062820  0.020833      6.000000
  0.000000  0.125640  0.020833      6.000000
  0.130569  0.075384  0.020833      6.000000
  0.000000  0.150768  0.020833      6.000000
  0.152330  0.087948  0.020833      6.000000
  0.021761  0.037692  0.020833     12.000000
  0.043523  0.050256  0.020833     12.000000
 -0.021761  0.062820  0.020833     12.000000
  0.065284  0.062820  0.020833     12.000000
 -0.021761  0.087948  0.020833     12.000000
  0.087046  0.075384  0.020833     12.000000
 -0.021761  0.113076  0.020833     12.000000
  0.108807  0.087948  0.020833     12.000000
 -0.021761  0.138204  0.020833     12.000000
  0.130569  0.100512  0.020833     12.000000
 -0.021761  0.163332  0.020833     12.000000
  0.043523  0.075384  0.020833     12.000000
  0.065284  0.087948  0.020833     12.000000
 -0.043523  0.100512  0.020833     12.000000
  0.087046  0.100512  0.020833     12.000000
 -0.043523  0.125640  0.020833     12.000000
  0.108807  0.113076  0.020833     12.000000
 -0.043523  0.150768  0.020833     12.000000
  0.130569  0.125640  0.020833     12.000000
  0.065284  0.113076  0.020833     12.000000
  0.087046  0.125640  0.020833     12.000000
 -0.065284  0.138204  0.020833     12.000000
  0.108807  0.138204  0.020833     12.000000
 -0.065284 -0.188460  0.020833     12.000000
  0.087046  0.150768  0.020833     12.000000
  0.108807  0.163332  0.020833     12.000000
 


--------------------------------------------------------------------------------------------------------




 Dimension of arrays:
   k-points           NKPTS =     64   k-points in BZ     NKDIM =     64   number of bands    NBANDS=     12
   number of dos      NEDOS =   6001   number of ions     NIONS =      2
   non local maximal  LDIM  =      6   non local SUM 2l+1 LMDIM =     18
   total plane-waves  NPLWV =  69120
   max r-space proj   IRMAX =      1   max aug-charges    IRDMAX= 136764
   dimension x,y,z NGX =    24 NGY =   24 NGZ =  120
   dimension x,y,z NGXF=    48 NGYF=   48 NGZF=  240
   support grid    NGXF=    96 NGYF=   96 NGZF=  480
   ions per type =               2
   NGX,Y,Z   is equivalent  to a cutoff of  12.16, 12.16, 12.47 a.u.
   NGXF,Y,Z  is equivalent  to a cutoff of  24.31, 24.31, 24.94 a.u.

 SYSTEM =  unknown system                          
 POSCAR =  pnictogen honeycomb monolayer           

 Startparameter for this run:
   NWRITE =      1    write-flag & timer
   PREC   = accura    normal or accurate (medium, high low for compatibility)
   ISTART =      0    job   : 0-new  1-cont  2-samecut
   ICHARG =      2    charge: 1-file 2-atom 10-const
   ISPIN  =      1    spin polarized calculation?
   LNONCOLLINEAR =      F non collinear calculations
   LSORBIT =      F    spin-orbit coupling
   INIWAV =      1    electr: 0-lowe 1-rand  2-diag
   LASPH  =      T    aspherical Exc in radial PAW
 Electronic Relaxation 1
   ENCUT  =  510.1 eV  37.49 Ry    6.12 a.u.   6.04  6.04 29.46*2*pi/ulx,y,z
   ENINI  =  510.1     initial cutoff
   ENAUG  =  499.7 eV  augmentation charge cutoff
   NELM   =    200;   NELMIN=  6; NELMDL=-12     # of ELM steps 
   EDIFF  = 0.1E-05   stopping-criterion for ELM
   LREAL  =      F    real-space projection
   NLSPLINE    = F    spline interpolate recip. space projectors
   LCOMPAT=      F    compatible to vasp.4.4
   GGA_COMPAT  = T    GGA compatible to vasp.4.4-vasp.4.6
   LMAXPAW     = -100 max onsite density
   LMAXMIX     =    2 max onsite mixed and CHGCAR
   VOSKOWN=      0    Vosko Wilk Nusair interpolation
   ROPT   =    0.00000
 Ionic relaxation
   EDIFFG = -.1E-01   stopping-criterion for IOM
   NSW    =     30    number of steps for IOM
   NBLOCK =      1;   KBLOCK =     30    inner block; outer block 
   IBRION =      2    ionic relax: 0-MD 1-quasi-New 2-CG
   NFREE  =      1    steps in history (QN), initial steepest desc. (CG)
   ISIF   =      3    stress and relaxation
   IWAVPR =     11    prediction:  0-non 1-charg 2-wave 3-comb
   ISYM   =      2    0-nonsym 1-usesym 2-fastsym
   LCORR  =      T    Harris-Foulkes like correction to forces

   POTIM  = 0.5000    time-step for ionic-motion
   TEIN   =    0.0    initial temperature
   TEBEG  =    0.0;   TEEND  =   0.0 temperature during run
   SMASS  =  -3.00    Nose mass-parameter (am)
   estimated Nose-frequenzy (Omega)   =  0.10E-29 period in steps = 0.13E+47 mass=  -0.246E-27a.u.
   SCALEE = 1.0000    scale energy and forces
   NPACO  =    256;   APACO  = 10.0  distance and # of slots for P.C.
   PSTRESS=    0.0 pullay stress

  Mass of Ions in am
   POMASS =  30.97
  Ionic Valenz
   ZVAL   =   5.00
  Atomic Wigner-Seitz radii
   RWIGS  =  -1.00
  virtual crystal weights 
   VCA    =   1.00
   NELECT =      10.0000    total number of electrons
   NUPDOWN=      -1.0000    fix difference up-down

 DOS related values:
   EMIN   =  10.00;   EMAX   =-10.00  energy-range for DOS
   EFERMI =   0.00;   METHOD = LEGACY      
   ISMEAR =     0;   SIGMA  =   0.01  broadening in eV -4-tet -1-fermi 0-gaus

 Electronic relaxation 2 (details)
   IALGO  =     38    algorithm
   LDIAG  =      T    sub-space diagonalisation (order eigenvalues)
   LSUBROT=      F    optimize rotation matrix (better conditioning)
   TURBO    =      0    0=normal 1=particle mesh
   IRESTART =      0    0=no restart 2=restart with 2 vectors
   NREBOOT  =      0    no. of reboots
   NMIN     =      0    reboot dimension
   EREF     =   0.00    reference energy to select bands
   IMIX   =      4    mixing-type and parameters
     AMIX     =   0.10;   BMIX     =  0.00
     AMIX_MAG =   0.40;   BMIX_MAG =  0.00
     AMIN     =   0.10
     WC   =   100.;   INIMIX=   1;  MIXPRE=   1;  MAXMIX= -45

 Intra band minimization:
   WEIMIN = 0.0010     energy-eigenvalue tresh-hold
   EBREAK =  0.21E-07  absolut break condition
   DEPER  =   0.30     relativ break condition  

   TIME   =   0.40     timestep for ELM

  volume/ion in A,a.u.               =      74.64       503.72
  Fermi-wavevector in a.u.,A,eV,Ry     =   0.664868  1.256418  6.014444  0.442049
  Thomas-Fermi vector in A             =   1.738688
 
 Write flags
   LWAVE        =      F    write WAVECAR
   LDOWNSAMPLE  =      F    k-point downsampling of WAVECAR
   LCHARG       =      F    write CHGCAR
   LVTOT        =      F    write LOCPOT, total local potential
   LVHAR        =      F    write LOCPOT, Hartree potential only
   LELF         =      F    write electronic localiz. function (ELF)
   LORBIT       =     10    0 simple, 1 ext, 2 COOP (PROOUT), +10 PAW based schemes


 Dipole corrections
   LMONO  =      F    monopole corrections only (constant potential shift)
   LDIPOL =      F    correct potential (dipole corrections)
   IDIPOL =      0    1-x, 2-y, 3-z, 4-all directions 
   EPSILON=  1.0000000 bulk dielectric constant

 Exchange correlation treatment:
   GGA     =    --    GGA type
   LEXCH   =     8    internal setting for exchange type
   LIBXC   =     F    Libxc                    
   VOSKOWN =     0    Vosko Wilk Nusair interpolation
   LHFCALC =     F    Hartree Fock is set to
   LHFONE  =     F    Hartree Fock one center treatment
   AEXX    =    0.0000 exact exchange contribution

 Linear response parameters
   LEPSILON=     F    determine dielectric tensor
   LRPA    =     F    only Hartree local field effects (RPA)
   LNABLA  =     F    use nabla operator in PAW spheres
   LVEL    =     F    velocity operator in full k-point grid
   CSHIFT  =0.1000    complex shift for real part using Kramers Kronig
   OMEGAMAX=  -1.0    maximum frequency
   DEG_THRESHOLD= 0.2000000E-02 threshold for treating states as degnerate
   RTIME   =   -0.100 relaxation time in fs
  (WPLASMAI=    0.000 imaginary part of plasma frequency in eV, 0.658/RTIME)
   DFIELD  = 0.0000000 0.0000000 0.0000000 field for delta impulse in time
 
  Optional k-point grid parameters
   LKPOINTS_OPT  =     F    use optional k-point grid
   KPOINTS_OPT_MODE=     1    mode for optional k-point grid
 
 Orbital magnetization related:
   ORBITALMAG=     F  switch on orbital magnetization
   LCHIMAG   =     F  perturbation theory with respect to B field
   DQ        =  0.001000  dq finite difference perturbation B field
   LLRAUG    =     F  two centre corrections for induced B field
   LBONE     =     F  B-component reconstruction in AE one-centre
   LVGVCALC  =     T  calculate vGv susceptibility
   LVGVAPPL  =     F  apply vGv susceptibility instead of pGv for G=0

 Random number generation:
   RANDOM_GENERATOR = DEFAULT
   PCG_SEED         = not used


--------------------------------------------------------------------------------------------------------


 conjugate gradient relaxation of ions
 charge density and potential will be updated during run
 non-spin polarized calculation
 Variant of blocked Davidson
 Davidson routine will perform the subspace rotation
 perform sub-space diagonalisation
    after iterative eigenvector-optimisation
 modified Broyden-mixing scheme, WC =      100.0
 initial mixing is a Kerker type mixing with AMIX =  0.1000 and BMIX =      0.0001
 Hartree-type preconditioning will be used
 using additional bands            7
 reciprocal scheme for non local part
 use partial core corrections
 calculate Harris-corrections to forces 
   (improved forces if not selfconsistent)
 use gradient corrections 
 use of overlap-Matrix (Vanderbilt PP)
 Gauss-broadening in eV      SIGMA  =   0.01


--------------------------------------------------------------------------------------------------------


  energy-cutoff  :      510.08
  volume of cell :      149.29
      direct lattice vectors                 reciprocal lattice vectors
     3.282343494  0.000000000  0.000000000     0.304660375  0.175895750  0.000000000
    -1.641171747  2.842592850  0.000000000     0.000000000  0.351791499  0.000000000
     0.000000000  0.000000000 16.000000000     0.000000000  0.000000000  0.062500000

  length of vectors
     3.282343494  3.282343494 16.000000000     0.351791499  0.351791499  0.062500000


 
 k-points in units of 2pi/SCALE and weight: Fully automatic mesh                    
   0.00000000  0.00000000  0.00000000       0.002
   0.02176146  0.01256398  0.00000000       0.010
   0.04352291  0.02512796  0.00000000       0.010
   0.06528437  0.03769195  0.00000000       0.010
   0.08704582  0.05025593  0.00000000       0.010
   0.10880728  0.06281991  0.00000000       0.010
   0.13056873  0.07538389  0.00000000       0.010
   0.15233019  0.08794787  0.00000000       0.005
   0.02176146  0.03769195  0.00000000       0.010
   0.04352291  0.05025593  0.00000000       0.020
   0.06528437  0.06281991  0.00000000       0.020
   0.08704582  0.07538389  0.00000000       0.020
   0.10880728  0.08794787  0.00000000       0.020
   0.13056873  0.10051186  0.00000000       0.020
   0.04352291  0.07538389  0.00000000       0.010
   0.06528437  0.08794787  0.00000000       0.020
   0.08704582  0.10051186  0.00000000       0.020
   0.10880728  0.11307584  0.00000000       0.020
   0.13056873  0.12563982  0.00000000       0.010
   0.06528437  0.11307584  0.00000000       0.010
   0.08704582  0.12563982  0.00000000       0.020
   0.10880728  0.13820380  0.00000000       0.020
   0.08704582  0.15076779  0.00000000       0.010
   0.10880728  0.16333177  0.00000000       0.010
   0.00000000  0.00000000  0.02083333       0.003
   0.02176146  0.01256398  0.02083333       0.010
   0.00000000  0.02512796  0.02083333       0.010
   0.04352291  0.02512796  0.02083333       0.010
   0.00000000  0.05025593  0.02083333       0.010
   0.06528437  0.03769195  0.02083333       0.010
   0.00000000  0.07538389  0.02083333       0.010
   0.08704582  0.05025593  0.02083333       0.010
   0.00000000  0.10051186  0.02083333       0.010
   0.10880728  0.06281991  0.02083333       0.010
   0.00000000  0.12563982  0.02083333       0.010
   0.13056873  0.07538389  0.02083333       0.010
   0.00000000  0.15076779  0.02083333       0.010
   0.15233019  0.08794787  0.02083333       0.010
   0.02176146  0.03769195  0.02083333       0.020
   0.04352291  0.05025593  0.02083333       0.020
  -0.02176146  0.06281991  0.02083333       0.020
   0.06528437  0.06281991  0.02083333       0.020
  -0.02176146  0.08794787  0.02083333       0.020
   0.08704582  0.07538389  0.02083333       0.020
  -0.02176146  0.11307584  0.02083333       0.020
   0.10880728  0.08794787  0.02083333       0.020
  -0.02176146  0.13820380  0.02083333       0.020
   0.13056873  0.10051186  0.02083333       0.020
  -0.02176146  0.16333177  0.02083333       0.020
   0.04352291  0.07538389  0.02083333       0.020
   0.06528437  0.08794787  0.02083333       0.020
  -0.04352291  0.10051186  0.02083333       0.020
   0.08704582  0.10051186  0.02083333       0.020
  -0.04352291  0.12563982  0.02083333       0.020
   0.10880728  0.11307584  0.02083333       0.020
  -0.04352291  0.15076779  0.02083333       0.020
   0.13056873  0.12563982  0.02083333       0.020
   0.06528437  0.11307584  0.02083333       0.020
   0.08704582  0.12563982  0.02083333       0.020
  -0.06528437  0.13820380  0.02083333       0.020
   0.10880728  0.13820380  0.02083333       0.020
  -0.06528437 -0.18845973  0.02083333       0.020
   0.08704582  0.15076779  0.02083333       0.020
   0.10880728  0.16333177  0.02083333       0.020
 
 k-points in reciprocal lattice and weights: Fully automatic mesh                    
   0.00000000  0.00000000  0.00000000       0.002
   0.07142857 -0.00000000  0.00000000       0.010
   0.14285714  0.00000000  0.00000000       0.010
   0.21428571 -0.00000000  0.00000000       0.010
   0.28571429 -0.00000000  0.00000000       0.010
   0.35714286 -0.00000000  0.00000000       0.010
   0.42857143 -0.00000000  0.00000000       0.010
   0.50000000 -0.00000000  0.00000000       0.005
   0.07142857  0.07142857  0.00000000       0.010
   0.14285714  0.07142857  0.00000000       0.020
   0.21428571  0.07142857  0.00000000       0.020
   0.28571429  0.07142857  0.00000000       0.020
   0.35714286  0.07142857  0.00000000       0.020
   0.42857143  0.07142857  0.00000000       0.020
   0.14285714  0.14285714  0.00000000       0.010
   0.21428571  0.14285714  0.00000000       0.020
   0.28571429  0.14285714  0.00000000       0.020
   0.35714286  0.14285714  0.00000000       0.020
   0.42857143  0.14285714  0.00000000       0.010
   0.21428571  0.21428571  0.00000000       0.010
   0.28571429  0.21428571  0.00000000       0.020
   0.35714286  0.21428571  0.00000000       0.020
   0.28571429  0.28571429  0.00000000       0.010
   0.35714286  0.28571429  0.00000000       0.010
   0.00000000  0.00000000  0.33333333       0.003
   0.07142857 -0.00000000  0.33333333       0.010
   0.00000000  0.07142857  0.33333333       0.010
   0.14285714  0.00000000  0.33333333       0.010
   0.00000000  0.14285714  0.33333333       0.010
   0.21428571 -0.00000000  0.33333333       0.010
   0.00000000  0.21428571  0.33333333       0.010
   0.28571429 -0.00000000  0.33333333       0.010
   0.00000000  0.28571429  0.33333333       0.010
   0.35714286 -0.00000000  0.33333333       0.010
   0.00000000  0.35714286  0.33333333       0.010
   0.42857143 -0.00000000  0.33333333       0.010
   0.00000000  0.42857143  0.33333333       0.010
   0.50000000 -0.00000000  0.33333333       0.010
   0.07142857  0.07142857  0.33333333       0.020
   0.14285714  0.07142857  0.33333333       0.020
  -0.07142857  0.21428571  0.33333333       0.020
   0.21428571  0.07142857  0.33333333       0.020
  -0.07142857  0.28571429  0.33333333       0.020
   0.28571429  0.07142857  0.33333333       0.020
  -0.07142857  0.35714286  0.33333333       0.020
   0.35714286  0.07142857  0.33333333       0.020
  -0.07142857  0.42857143  0.33333333       0.020
   0.42857143  0.07142857  0.33333333       0.020
  -0.07142857  0.50000000  0.33333333       0.020
   0.14285714  0.14285714  0.33333333       0.020
   0.21428571  0.14285714  0.33333333       0.020
  -0.14285714  0.35714286  0.33333333       0.020
   0.28571429  0.14285714  0.33333333       0.020
  -0.14285714  0.42857143  0.33333333       0.020
   0.35714286  0.14285714  0.33333333       0.020
  -0.14285714  0.50000000  0.33333333       0.020
   0.42857143  0.14285714  0.33333333       0.020
   0.21428571  0.21428571  0.33333333       0.020
   0.28571429  0.21428571  0.33333333       0.020
  -0.21428571  0.50000000  0.33333333       0.020
   0.35714286  0.21428571  0.33333333       0.020
  -0.21428571 -0.42857143  0.33333333       0.020
   0.28571429  0.28571429  0.33333333       0.020
   0.35714286  0.28571429  0.33333333       0.020
 
 position of ions in fractional coordinates (direct lattice) 
   0.66666667  0.33333333  0.46118284
   0.33333333  0.66666667  0.53881716
 
 position of ions in cartesian coordinates  (Angst):
   1.64117175  0.94753095  7.37892542
   0.00000000  1.89506190  8.62107458
 


--------------------------------------------------------------------------------------------------------


 k-point   1 :   0.0000 0.0000 0.0000  plane waves:    3875
 k-point   2 :   0.0714-0.0000 0.0000  plane waves:    3843
 k-point   3 :   0.1429 0.0000 0.0000  plane waves:    3887
 k-point   4 :   0.2143-0.0000 0.0000  plane waves:    3887
 k-point   5 :   0.2857-0.0000 0.0000  plane waves:    3890
 k-point   6 :   0.3571-0.0000 0.0000  plane waves:    3900
 k-point   7 :   0.4286-0.0000 0.0000  plane waves:    3900
 k-point   8 :   0.5000-0.0000 0.0000  plane waves:    3900
 k-point   9 :   0.0714 0.0714 0.0000  plane waves:    3858
 k-point  10 :   0.1429 0.0714 0.0000  plane waves:    3883
 k-point  11 :   0.2143 0.0714 0.0000  plane waves:    3892
 k-point  12 :   0.2857 0.0714 0.0000  plane waves:    3898
 k-point  13 :   0.3571 0.0714 0.0000  plane waves:    3909
 k-point  14 :   0.4286 0.0714 0.0000  plane waves:    3913
 k-point  15 :   0.1429 0.1429 0.0000  plane waves:    3896
 k-point  16 :   0.2143 0.1429 0.0000  plane waves:    3890
 k-point  17 :   0.2857 0.1429 0.0000  plane waves:    3908
 k-point  18 :   0.3571 0.1429 0.0000  plane waves:    3928
 k-point  19 :   0.4286 0.1429 0.0000  plane waves:    3922
 k-point  20 :   0.2143 0.2143 0.0000  plane waves:    3906
 k-point  21 :   0.2857 0.2143 0.0000  plane waves:    3925
 k-point  22 :   0.3571 0.2143 0.0000  plane waves:    3931
 k-point  23 :   0.2857 0.2857 0.0000  plane waves:    3954
 k-point  24 :   0.3571 0.2857 0.0000  plane waves:    3952
 k-point  25 :   0.0000 0.0000 0.3333  plane waves:    3845
 k-point  26 :   0.0714-0.0000 0.3333  plane waves:    3859
 k-point  27 :   0.0000 0.0714 0.3333  plane waves:    3859
 k-point  28 :   0.1429 0.0000 0.3333  plane waves:    3884
 k-point  29 :   0.0000 0.1429 0.3333  plane waves:    3884
 k-point  30 :   0.2143-0.0000 0.3333  plane waves:    3899
 k-point  31 :   0.0000 0.2143 0.3333  plane waves:    3899
 k-point  32 :   0.2857-0.0000 0.3333  plane waves:    3887
 k-point  33 :   0.0000 0.2857 0.3333  plane waves:    3887
 k-point  34 :   0.3571-0.0000 0.3333  plane waves:    3899
 k-point  35 :   0.0000 0.3571 0.3333  plane waves:    3899
 k-point  36 :   0.4286-0.0000 0.3333  plane waves:    3911
 k-point  37 :   0.0000 0.4286 0.3333  plane waves:    3911
 k-point  38 :   0.5000-0.0000 0.3333  plane waves:    3896
 k-point  39 :   0.0714 0.0714 0.3333  plane waves:    3879
 k-point  40 :   0.1429 0.0714 0.3333  plane waves:    3893
 k-point  41 :  -0.0714 0.2143 0.3333  plane waves:    3893
 k-point  42 :   0.2143 0.0714 0.3333  plane waves:    3891
 k-point  43 :  -0.0714 0.2857 0.3333  plane waves:    3891
 k-point  44 :   0.2857 0.0714 0.3333  plane waves:    3889
 k-point  45 :  -0.0714 0.3571 0.3333  plane waves:    3889
 k-point  46 :   0.3571 0.0714 0.3333  plane waves:    3908
 k-point  47 :  -0.0714 0.4286 0.3333  plane waves:    3908
 k-point  48 :   0.4286 0.0714 0.3333  plane waves:    3909
 k-point  49 :  -0.0714 0.5000 0.3333  plane waves:    3909
 k-point  50 :   0.1429 0.1429 0.3333  plane waves:    3894
 k-point  51 :   0.2143 0.1429 0.3333  plane waves:    3896
 k-point  52 :  -0.1429 0.3571 0.3333  plane waves:    3896
 k-point  53 :   0.2857 0.1429 0.3333  plane waves:    3902
 k-point  54 :  -0.1429 0.4286 0.3333  plane waves:    3902
 k-point  55 :   0.3571 0.1429 0.3333  plane waves:    3922
 k-point  56 :  -0.1429 0.5000 0.3333  plane waves:    3922
 k-point  57 :   0.4286 0.1429 0.3333  plane waves:    3928
 k-point  58 :   0.2143 0.2143 0.3333  plane waves:    3915
 k-point  59 :   0.2857 0.2143 0.3333  plane waves:    3928
 k-point  60 :  -0.2143 0.5000 0.3333  plane waves:    3928
 k-point  61 :   0.3571 0.2143 0.3333  plane waves:    3931
 k-point  62 :  -0.2143-0.4286 0.3333  plane waves:    3931
 k-point  63 :   0.2857 0.2857 0.3333  plane waves:    3934
 k-point  64 :   0.3571 0.2857 0.3333  plane waves:    3943

 maximum and minimum number of plane-waves per node :       996      944

 maximum number of plane-waves:      3954
 maximum index in each direction: 
   IXMAX=    6   IYMAX=    6   IZMAX=   29
   IXMIN=   -6   IYMIN=   -6   IZMIN=  -29


 parallel 3D FFT for wavefunctions:
    minimum data exchange during FFTs selected (reduces bandwidth)
 parallel 3D FFT for charge:
    minimum data exchange during FFTs selected (reduces bandwidth)


 total amount of memory used by VASP MPI-rank0    50275. kBytes
=======================================================================

   base      :      30000. kBytes
   nonl-proj :       9211. kBytes
   fftplans  :       5567. kBytes
   grid      :       2361. kBytes
   one-center:         15. kBytes
   wavefun   :       3121. kBytes
 
     INWAV:  cpu time      0.0000: real time      0.0000
 Broyden mixing: mesh for mixing (old mesh)
   NGX = 13   NGY = 13   NGZ = 59
  (NGX  = 48   NGY  = 48   NGZ  =240)
  gives a total of   9971 points

 initial charge density was supplied:
 charge density of overlapping atoms calculated
 number of electron      10.0000000 magnetization 
 keeping initial charge density in first step


--------------------------------------------------------------------------------------------------------


 Maximum index for augmentation-charges         8220 (set IRDMAX)


--------------------------------------------------------------------------------------------------------


 First call to EWALD:  gamma=   0.334
 Maximum number of real-space cells 5x 5x 1
 Maximum number of reciprocal cells 2x 2x 7

    FEWALD:  cpu time      0.0011: real time      0.0011


--------------------------------------- Ionic step        1  -------------------------------------------




--------------------------------------- Iteration      1(   1)  ---------------------------------------


    POTLOK:  cpu time      0.0211: real time      0.2426
    SETDIJ:  cpu time      0.1482: real time      0.1484
     EDDAV:  cpu time      0.6085: real time      0.6096
       DOS:  cpu time      0.0015: real time      0.0015
    --------------------------------------------
      LOOP:  cpu time      0.7794: real time      1.0021

 eigenvalue-minimisations  :  1536
 total energy-change (2. order) : 0.5447766E+02  (-0.3286526E+03)
 number of electron      10.0000000 magnetization 
 augmentation part       10.0000000 magnetization 

 Free energy of the ion-electron system (eV)
  ---------------------------------------------------
  alpha Z        PSCENC =         3.71007814
  Ewald energy   TEWEN  =       534.42243236
  -Hartree energ DENC   =      -833.34816100
  -exchange      EXHF   =         0.00000000
  -V(xc)+E(xc)   XCENC  =        -7.57089118
  PAW double counting   =       293.95507915     -263.19716017
  entropy T*S    EENTRO =        -0.00013805
  eigenvalues    EBANDS =       -25.57727630
  atomic energy  EATOM  =       352.08369776
  Solvation  Ediel_sol  =         0.00000000
  ---------------------------------------------------
  free energy    TOTEN  =        54.47766071 eV

  energy without entropy =       54.47779876  energy(sigma->0) =       54.47772973


--------------------------------------------------------------------------------------------------------




--------------------------------------- Iteration      1(   2)  ---------------------------------------


     EDDAV:  cpu time      0.8296: real time      0.8310
       DOS:  cpu time      0.0011: real time      0.0011
    --------------------------------------------
      LOOP:  cpu time      0.8307: real time      0.8321

 eigenvalue-minimisations  :  2416
 total energy-change (2. order) :-0.5896189E+02  (-0.5361068E+02)
 number of electron      10.0000000 magnetization 
 augmentation part       10.0000000 magnetization 

 Free energy of the ion-electron system (eV)
  ---------------------------------------------------
  alpha Z        PSCENC =         3.71007814
  Ewald energy   TEWEN  =       534.42243236
  -Hartree energ DENC   =      -833.34816100
  -exchange      EXHF   =         0.00000000
  -V(xc)+E(xc)   XCENC  =        -7.57089118
  PAW double counting   =       293.95507915     -263.19716017
  entropy T*S    EENTRO =        -0.00010806
  eigenvalues    EBANDS =       -84.53919393
  atomic energy  EATOM  =       352.08369776
  Solvation  Ediel_sol  =         0.00000000
  ---------------------------------------------------
  free energy    TOTEN  =        -4.48422693 eV

  energy without entropy =       -4.48411887  energy(sigma->0) =       -4.48417290


--------------------------------------------------------------------------------------------------------




--------------------------------------- Iteration      1(   3)  ---------------------------------------


     EDDAV:  cpu time      0.7420: real time      0.7432
       DOS:  cpu time      0.0009: real time      0.0009
    --------------------------------------------
      LOOP:  cpu time      0.7429: real time      0.7441

 eigenvalue-minimisations  :  2136
 total energy-change (2. order) :-0.6112184E+01  (-0.6024044E+01)
 number of electron      10.0000000 magnetization 
 augmentation part       10.0000000 magnetization 

 Free energy of the ion-electron system (eV)
  ---------------------------------------------------
  alpha Z        PSCENC =         3.71007814
  Ewald energy   TEWEN  =       534.42243236
  -Hartree energ DENC   =      -833.34816100
  -exchange      EXHF   =         0.00000000
  -V(xc)+E(xc)   XCENC  =        -7.57089118
  PAW double counting   =       293.95507915     -263.19716017
  entropy T*S    EENTRO =        -0.00000000
  eigenvalues    EBANDS =       -90.65148572
  atomic energy  EATOM  =       352.08369776
  Solvation  Ediel_sol  =         0.00000000
  ---------------------------------------------------
  free energy    TOTEN  =       -10.59641066 eV

  energy without entropy =      -10.59641066  energy(sigma->0) =      -10.59641066


--------------------------------------------------------------------------------------------------------




--------------------------------------- Iteration      1(   4)  ---------------------------------------


     EDDAV:  cpu time      0.8529: real time      0.8543
       DOS:  cpu time      0.0009: real time      0.0009
    --------------------------------------------
      LOOP:  cpu time      0.8538: real time      0.8552

 eigenvalue-minimisations  :  2472
 total energy-change (2. order) :-0.1882712E+00  (-0.1881264E+00)
 number of electron      10.0000000 magnetization 
 augmentation part       10.0000000 magnetization 

 Free energy of the ion-electron system (eV)
  ---------------------------------------------------
  alpha Z        PSCENC =         3.71007814
  Ewald energy   TEWEN  =       534.42243236
  -Hartree energ DENC   =      -833.34816100
  -exchange      EXHF   =         0.00000000
  -V(xc)+E(xc)   XCENC  =        -7.57089118
  PAW double counting   =       293.95507915     -263.19716017
  entropy T*S    EENTRO =        -0.00000000
  eigenvalues    EBANDS =       -90.83975688
  atomic energy  EATOM  =       352.08369776
  Solvation  Ediel_sol  =         0.00000000
  ---------------------------------------------------
  free energy    TOTEN  =       -10.78468182 eV

  energy without entropy =      -10.78468182  energy(sigma->0) =      -10.78468182


--------------------------------------------------------------------------------------------------------




--------------------------------------- Iteration      1(   5)  ---------------------------------------


     EDDAV:  cpu time      0.7533: real time      0.7546
       DOS:  cpu time      0.0009: real time      0.0009
    --------------------------------------------
      LOOP:  cpu time      0.7542: real time      0.7555

 eigenvalue-minimisations  :  2204
 total energy-change (2. order) :-0.6978369E-02  (-0.6978060E-02)
 number of electron      10.0000000 magnetization 
 augmentation part       10.0000000 magnetization 

 Free energy of the ion-electron system (eV)
  ---------------------------------------------------
  alpha Z        PSCENC =         3.71007814
  Ewald energy   TEWEN  =       534.42243236
  -Hartree energ DENC   =      -833.34816100
  -exchange      EXHF   =         0.00000000
  -V(xc)+E(xc)   XCENC  =        -7.57089118
  PAW double counting   =       293.95507915     -263.19716017
  entropy T*S    EENTRO =        -0.00000000
  eigenvalues    EBANDS =       -90.84673525
  atomic energy  EATOM  =       352.08369776
  Solvation  Ediel_sol  =         0.00000000
  ---------------------------------------------------
  free energy    TOTEN  =       -10.79166019 eV

  energy without entropy =      -10.79166019  energy(sigma->0) =      -10.79166019


--------------------------------------------------------------------------------------------------------




--------------------------------------- Iteration      1(   6)  ---------------------------------------


     EDDAV:  cpu time      0.8159: real time      0.8172
       DOS:  cpu time      0.0009: real time      0.0009
    --------------------------------------------
      LOOP:  cpu time      0.8168: real time      0.8181

 eigenvalue-minimisations  :  2508
 total energy-change (2. order) :-0.1880253E-03  (-0.1880236E-03)
 number of electron      10.0000000 magnetization 
 augmentation part       10.0000000 magnetization 

 Free energy of the ion-electron system (eV)
  ---------------------------------------------------
  alpha Z        PSCENC =         3.71007814
  Ewald energy   TEWEN  =       534.42243236
  -Hartree energ DENC   =      -833.34816100
  -exchange      EXHF   =         0.00000000
  -V(xc)+E(xc)   XCENC  =        -7.57089118
  PAW double counting   =       293.95507915     -263.19716017
  entropy T*S    EENTRO =        -0.00000000
  eigenvalues    EBANDS =       -90.84692328
  atomic energy  EATOM  =       352.08369776
  Solvation  Ediel_sol  =         0.00000000
  ---------------------------------------------------
  free energy    TOTEN  =       -10.79184822 eV

  energy without entropy =      -10.79184822  energy(sigma->0) =      -10.79184822


--------------------------------------------------------------------------------------------------------




--------------------------------------- Iteration      1(   7)  ---------------------------------------


     EDDAV:  cpu time      0.7850: real time      0.7865
       DOS:  cpu time      0.0009: real time      0.0009
    --------------------------------------------
      LOOP:  cpu time      0.7859: real time      0.7874

 eigenvalue-minimisations  :  2368
 total energy-change (2. order) :-0.8706624E-05  (-0.8706678E-05)
 number of electron      10.0000000 magnetization 
 augmentation part       10.0000000 magnetization 

 Free energy of the ion-electron system (eV)
  ---------------------------------------------------
  alpha Z        PSCENC =         3.71007814
  Ewald energy   TEWEN  =       534.42243236
  -Hartree energ DENC   =      -833.34816100
  -exchange      EXHF   =         0.00000000
  -V(xc)+E(xc)   XCENC  =        -7.57089118
  PAW double counting   =       293.95507915     -263.19716017
  entropy T*S    EENTRO =        -0.00000000
  eigenvalues    EBANDS =       -90.84693198
  atomic energy  EATOM  =       352.08369776
  Solvation  Ediel_sol  =         0.00000000
  ---------------------------------------------------
  free energy    TOTEN  =       -10.79185692 eV

  energy without entropy =      -10.79185692  energy(sigma->0) =      -10.79185692


--------------------------------------------------------------------------------------------------------




--------------------------------------- Iteration      1(   8)  ---------------------------------------


     EDDAV:  cpu time      0.7868: real time      0.7880
       DOS:  cpu time      0.0009: real time      0.0009
    --------------------------------------------
      LOOP:  cpu time      0.7876: real time      0.7889

 eigenvalue-minimisations  :  2316
 total energy-change (2. order) :-0.2442296E-06  (-0.2443624E-06)
 number of electron      10.0000000 magnetization 
 augmentation part       10.0000000 magnetization 

 Free energy of the ion-electron system (eV)
  ---------------------------------------------------
  alpha Z        PSCENC =         3.71007814
  Ewald energy   TEWEN  =       534.42243236
  -Hartree energ DENC   =      -833.34816100
  -exchange      EXHF   =         0.00000000
  -V(xc)+E(xc)   XCENC  =        -7.57089118
  PAW double counting   =       293.95507915     -263.19716017
  entropy T*S    EENTRO =        -0.00000000
  eigenvalues    EBANDS =       -90.84693223
  atomic energy  EATOM  =       352.08369776
  Solvation  Ediel_sol  =         0.00000000
  ---------------------------------------------------
  free energy    TOTEN  =       -10.79185717 eV

  energy without entropy =      -10.79185717  energy(sigma->0) =      -10.79185717


--------------------------------------------------------------------------------------------------------




--------------------------------------- Iteration      1(   9)  ---------------------------------------


     EDDAV:  cpu time      0.6477: real time      0.6490
       DOS:  cpu time      0.0008: real time      0.0008
    --------------------------------------------
      LOOP:  cpu time      0.6486: real time      0.6498

 eigenvalue-minimisations  :  1628
 total energy-change (2. order) :-0.9123141E-08  (-0.9115012E-08)
 number of electron      10.0000000 magnetization 
 augmentation part       10.0000000 magnetization 

 Free energy of the ion-electron system (eV)
  ---------------------------------------------------
  alpha Z        PSCENC =         3.71007814
  Ewald energy   TEWEN  =       534.42243236
  -Hartree energ DENC   =      -833.34816100
  -exchange      EXHF   =         0.00000000
  -V(xc)+E(xc)   XCENC  =        -7.57089118
  PAW double counting   =       293.95507915     -263.19716017
  entropy T*S    EENTRO =        -0.00000000
  eigenvalues    EBANDS =       -90.84693224
  atomic energy  EATOM  =       352.08369776
  Solvation  Ediel_sol  =         0.00000000
  ---------------------------------------------------
  free energy    TOTEN  =       -10.79185718 eV

  energy without entropy =      -10.79185718  energy(sigma->0) =      -10.79185718


--------------------------------------------------------------------------------------------------------




--------------------------------------- Iteration      1(  10)  ---------------------------------------


     EDDAV:  cpu time      0.5809: real time      0.5820
       DOS:  cpu time      0.0010: real time      0.0010
    --------------------------------------------
      LOOP:  cpu time      0.5819: real time      0.5830

 eigenvalue-minimisations  :  1444
 total energy-change (2. order) :-0.1219803E-08  (-0.8846790E-09)
 number of electron      10.0000000 magnetization 
 augmentation part       10.0000000 magnetization 

 Free energy of the ion-electron system (eV)
  ---------------------------------------------------
  alpha Z        PSCENC =         3.71007814
  Ewald energy   TEWEN  =       534.42243236
  -Hartree energ DENC   =      -833.34816100
  -exchange      EXHF   =         0.00000000
  -V(xc)+E(xc)   XCENC  =        -7.57089118
  PAW double counting   =       293.95507915     -263.19716017
  entropy T*S    EENTRO =        -0.00000000
  eigenvalues    EBANDS =       -90.84693224
  atomic energy  EATOM  =       352.08369776
  Solvation  Ediel_sol  =         0.00000000
  ---------------------------------------------------
  free energy    TOTEN  =       -10.79185718 eV

  energy without entropy =      -10.79185718  energy(sigma->0) =      -10.79185718


--------------------------------------------------------------------------------------------------------




--------------------------------------- Iteration      1(  11)  ---------------------------------------


     EDDAV:  cpu time      0.5189: real time      0.5197
       DOS:  cpu time      0.0010: real time      0.0009
    --------------------------------------------
      LOOP:  cpu time      0.5198: real time      0.5206

 eigenvalue-minimisations  :  1308
 total energy-change (2. order) :-0.3486775E-09  (-0.3481437E-09)
 number of electron      10.0000000 magnetization 
 augmentation part       10.0000000 magnetization 

 Free energy of the ion-electron system (eV)
  ---------------------------------------------------
  alpha Z        PSCENC =         3.71007814
  Ewald energy   TEWEN  =       534.42243236
  -Hartree energ DENC   =      -833.34816100
  -exchange      EXHF   =         0.00000000
  -V(xc)+E(xc)   XCENC  =        -7.57089118
  PAW double counting   =       293.95507915     -263.19716017
  entropy T*S    EENTRO =        -0.00000000
  eigenvalues    EBANDS =       -90.84693224
  atomic energy  EATOM  =       352.08369776
  Solvation  Ediel_sol  =         0.00000000
  ---------------------------------------------------
  free energy    TOTEN  =       -10.79185718 eV

  energy without entropy =      -10.79185718  energy(sigma->0) =      -10.79185718


--------------------------------------------------------------------------------------------------------




--------------------------------------- Iteration      1(  12)  ---------------------------------------


     EDDAV:  cpu time      0.5405: real time      0.5416
       DOS:  cpu time      0.0010: real time      0.0010
    CHARGE:  cpu time      0.0547: real time      0.0548
    MIXING:  cpu time      0.0018: real time      0.0018
    --------------------------------------------
      LOOP:  cpu time      0.5980: real time      0.5991

 eigenvalue-minimisations  :  1184
 total energy-change (2. order) :-0.2057732E-09  (-0.1921083E-09)
 number of electron      10.0000000 magnetization 
 augmentation part       -1.0878377 magnetization 

 Broyden mixing:
  rms(total) = 0.24862E+00    rms(broyden)= 0.24862E+00
  rms(prec ) = 0.27585E+00
  weight for this iteration     100.00

 Free energy of the ion-electron system (eV)
  ---------------------------------------------------
  alpha Z        PSCENC =         3.71007814
  Ewald energy   TEWEN  =       534.42243236
  -Hartree energ DENC   =      -833.34816100
  -exchange      EXHF   =         0.00000000
  -V(xc)+E(xc)   XCENC  =        -7.57089118
  PAW double counting   =       293.95507915     -263.19716017
  entropy T*S    EENTRO =        -0.00000000
  eigenvalues    EBANDS =       -90.84693224
  atomic energy  EATOM  =       352.08369776
  Solvation  Ediel_sol  =         0.00000000
  ---------------------------------------------------
  free energy    TOTEN  =       -10.79185718 eV

  energy without entropy =      -10.79185718  energy(sigma->0) =      -10.79185718


--------------------------------------------------------------------------------------------------------




--------------------------------------- Iteration      1(  13)  ---------------------------------------


    POTLOK:  cpu time      0.0163: real time      0.0163
    SETDIJ:  cpu time      0.1374: real time      0.1374
     EDDAV:  cpu time      0.6974: real time      0.6986
       DOS:  cpu time      0.0009: real time      0.0009
    CHARGE:  cpu time      0.0510: real time      0.0511
    MIXING:  cpu time      0.0020: real time      0.0020
    --------------------------------------------
      LOOP:  cpu time      0.9050: real time      0.9063

 eigenvalue-minimisations  :  1952
 total energy-change (2. order) : 0.2597100E-01  (-0.4197108E-03)
 number of electron      10.0000000 magnetization 
 augmentation part       -1.0856534 magnetization 

 Broyden mixing:
  rms(total) = 0.22107E+00    rms(broyden)= 0.22107E+00
  rms(prec ) = 0.24477E+00
  weight for this iteration     100.00

 eigenvalues of (default mixing * dielectric matrix)
  average eigenvalue GAMMA=   8.8364
  8.8364

 Free energy of the ion-electron system (eV)
  ---------------------------------------------------
  alpha Z        PSCENC =         3.71007814
  Ewald energy   TEWEN  =       534.42243236
  -Hartree energ DENC   =      -834.23258271
  -exchange      EXHF   =         0.00000000
  -V(xc)+E(xc)   XCENC  =        -7.51419278
  PAW double counting   =       300.10866954     -269.37082397
  entropy T*S    EENTRO =        -0.00000000
  eigenvalues    EBANDS =       -89.97316451
  atomic energy  EATOM  =       352.08369776
  Solvation  Ediel_sol  =         0.00000000
  ---------------------------------------------------
  free energy    TOTEN  =       -10.76588618 eV

  energy without entropy =      -10.76588618  energy(sigma->0) =      -10.76588618


--------------------------------------------------------------------------------------------------------




--------------------------------------- Iteration      1(  14)  ---------------------------------------


    POTLOK:  cpu time      0.0165: real time      0.0165
    SETDIJ:  cpu time      0.1448: real time      0.1449
     EDDAV:  cpu time      0.7001: real time      0.7012
       DOS:  cpu time      0.0009: real time      0.0009
    CHARGE:  cpu time      0.0588: real time      0.0589
    MIXING:  cpu time      0.0024: real time      0.0024
    --------------------------------------------
      LOOP:  cpu time      0.9235: real time      0.9248

 eigenvalue-minimisations  :  1996
 total energy-change (2. order) : 0.7661034E-01  (-0.2246682E-01)
 number of electron      10.0000000 magnetization 
 augmentation part       -1.0702959 magnetization 

 Broyden mixing:
  rms(total) = 0.30017E-01    rms(broyden)= 0.30017E-01
  rms(prec ) = 0.37387E-01
  weight for this iteration     100.00

 eigenvalues of (default mixing * dielectric matrix)
  average eigenvalue GAMMA=   7.4754
  6.3246  8.6261

 Free energy of the ion-electron system (eV)
  ---------------------------------------------------
  alpha Z        PSCENC =         3.71007814
  Ewald energy   TEWEN  =       534.42243236
  -Hartree energ DENC   =      -840.82265963
  -exchange      EXHF   =         0.00000000
  -V(xc)+E(xc)   XCENC  =        -7.04161824
  PAW double counting   =       348.70673322     -318.14708208
  entropy T*S    EENTRO =        -0.00000000
  eigenvalues    EBANDS =       -83.60085735
  atomic energy  EATOM  =       352.08369776
  Solvation  Ediel_sol  =         0.00000000
  ---------------------------------------------------
  free energy    TOTEN  =       -10.68927584 eV

  energy without entropy =      -10.68927584  energy(sigma->0) =      -10.68927584


--------------------------------------------------------------------------------------------------------




--------------------------------------- Iteration      1(  15)  ---------------------------------------


    POTLOK:  cpu time      0.0205: real time      0.0206
    SETDIJ:  cpu time      0.1442: real time      0.1443
     EDDAV:  cpu time      0.6901: real time      0.6912
       DOS:  cpu time      0.0012: real time      0.0012
    CHARGE:  cpu time      0.0590: real time      0.0591
    MIXING:  cpu time      0.0030: real time      0.0030
    --------------------------------------------
      LOOP:  cpu time      0.9180: real time      0.9194

 eigenvalue-minimisations  :  1944
 total energy-change (2. order) : 0.5372478E-02  (-0.2373169E-02)
 number of electron      10.0000000 magnetization 
 augmentation part       -1.0752544 magnetization 

 Broyden mixing:
  rms(total) = 0.11570E-01    rms(broyden)= 0.11570E-01
  rms(prec ) = 0.12567E-01
  weight for this iteration     100.00

 eigenvalues of (default mixing * dielectric matrix)
  average eigenvalue GAMMA=   5.5520
  9.3574  6.4210  0.8776

 Free energy of the ion-electron system (eV)
  ---------------------------------------------------
  alpha Z        PSCENC =         3.71007814
  Ewald energy   TEWEN  =       534.42243236
  -Hartree energ DENC   =      -838.76575748
  -exchange      EXHF   =         0.00000000
  -V(xc)+E(xc)   XCENC  =        -7.07214962
  PAW double counting   =       347.87243412     -317.30760728
  entropy T*S    EENTRO =        -0.00000000
  eigenvalues    EBANDS =       -85.62703136
  atomic energy  EATOM  =       352.08369776
  Solvation  Ediel_sol  =         0.00000000
  ---------------------------------------------------
  free energy    TOTEN  =       -10.68390336 eV

  energy without entropy =      -10.68390336  energy(sigma->0) =      -10.68390336


--------------------------------------------------------------------------------------------------------




--------------------------------------- Iteration      1(  16)  ---------------------------------------


    POTLOK:  cpu time      0.0190: real time      0.0190
    SETDIJ:  cpu time      0.1470: real time      0.1472
     EDDAV:  cpu time      0.7500: real time      0.7512
       DOS:  cpu time      0.0010: real time      0.0009
    CHARGE:  cpu time      0.0694: real time      0.0695
    MIXING:  cpu time      0.0023: real time      0.0023
    --------------------------------------------
      LOOP:  cpu time      0.9887: real time      0.9902

 eigenvalue-minimisations  :  2280
 total energy-change (2. order) :-0.2583812E-03  (-0.2739780E-03)
 number of electron      10.0000000 magnetization 
 augmentation part       -1.0780403 magnetization 

 Broyden mixing:
  rms(total) = 0.65471E-02    rms(broyden)= 0.65471E-02
  rms(prec ) = 0.79341E-02
  weight for this iteration     100.00

 eigenvalues of (default mixing * dielectric matrix)
  average eigenvalue GAMMA=   4.4729
  9.1376  5.9210  1.0262  1.8069

 Free energy of the ion-electron system (eV)
  ---------------------------------------------------
  alpha Z        PSCENC =         3.71007814
  Ewald energy   TEWEN  =       534.42243236
  -Hartree energ DENC   =      -838.47963526
  -exchange      EXHF   =         0.00000000
  -V(xc)+E(xc)   XCENC  =        -7.06620761
  PAW double counting   =       348.92008974     -318.35795491
  entropy T*S    EENTRO =        -0.00000000
  eigenvalues    EBANDS =       -85.91666195
  atomic energy  EATOM  =       352.08369776
  Solvation  Ediel_sol  =         0.00000000
  ---------------------------------------------------
  free energy    TOTEN  =       -10.68416174 eV

  energy without entropy =      -10.68416174  energy(sigma->0) =      -10.68416174


--------------------------------------------------------------------------------------------------------




--------------------------------------- Iteration      1(  17)  ---------------------------------------


    POTLOK:  cpu time      0.0216: real time      0.0216
    SETDIJ:  cpu time      0.1400: real time      0.1401
     EDDAV:  cpu time      0.7122: real time      0.7133
       DOS:  cpu time      0.0009: real time      0.0009
    CHARGE:  cpu time      0.0511: real time      0.0512
    MIXING:  cpu time      0.0010: real time      0.1004
    --------------------------------------------
      LOOP:  cpu time      0.9268: real time      1.0275

 eigenvalue-minimisations  :  1972
 total energy-change (2. order) : 0.1605010E-03  (-0.6305435E-04)
 number of electron      10.0000000 magnetization 
 augmentation part       -1.0774971 magnetization 

 Broyden mixing:
  rms(total) = 0.57431E-02    rms(broyden)= 0.57431E-02
  rms(prec ) = 0.62805E-02
  weight for this iteration     100.00

 eigenvalues of (default mixing * dielectric matrix)
  average eigenvalue GAMMA=   5.0039
  9.5694  8.4698  4.9606  0.9569  1.0626

 Free energy of the ion-electron system (eV)
  ---------------------------------------------------
  alpha Z        PSCENC =         3.71007814
  Ewald energy   TEWEN  =       534.42243236
  -Hartree energ DENC   =      -838.78162427
  -exchange      EXHF   =         0.00000000
  -V(xc)+E(xc)   XCENC  =        -7.06479894
  PAW double counting   =       348.79048346     -318.22710623
  entropy T*S    EENTRO =        -0.00000000
  eigenvalues    EBANDS =       -85.61716352
  atomic energy  EATOM  =       352.08369776
  Solvation  Ediel_sol  =         0.00000000
  ---------------------------------------------------
  free energy    TOTEN  =       -10.68400124 eV

  energy without entropy =      -10.68400124  energy(sigma->0) =      -10.68400124


--------------------------------------------------------------------------------------------------------




--------------------------------------- Iteration      1(  18)  ---------------------------------------


    POTLOK:  cpu time      0.0169: real time      0.0169
    SETDIJ:  cpu time      0.1464: real time      0.1466
     EDDAV:  cpu time      0.8601: real time      0.8614
       DOS:  cpu time      0.0009: real time      0.0009
    CHARGE:  cpu time      0.0530: real time      0.0530
    MIXING:  cpu time      0.0020: real time      0.0020
    --------------------------------------------
      LOOP:  cpu time      1.0793: real time      1.0807

 eigenvalue-minimisations  :  2092
 total energy-change (2. order) : 0.2452522E-04  (-0.2410025E-04)
 number of electron      10.0000000 magnetization 
 augmentation part       -1.0782832 magnetization 

 Broyden mixing:
  rms(total) = 0.92989E-03    rms(broyden)= 0.92988E-03
  rms(prec ) = 0.10678E-02
  weight for this iteration     100.00

 eigenvalues of (default mixing * dielectric matrix)
  average eigenvalue GAMMA=   4.3936
  9.8280  7.2770  5.3744  1.8330  0.9584  1.0908

 Free energy of the ion-electron system (eV)
  ---------------------------------------------------
  alpha Z        PSCENC =         3.71007814
  Ewald energy   TEWEN  =       534.42243236
  -Hartree energ DENC   =      -838.75939952
  -exchange      EXHF   =         0.00000000
  -V(xc)+E(xc)   XCENC  =        -7.06556832
  PAW double counting   =       348.95740358     -318.39138339
  entropy T*S    EENTRO =        -0.00000000
  eigenvalues    EBANDS =       -85.64123731
  atomic energy  EATOM  =       352.08369776
  Solvation  Ediel_sol  =         0.00000000
  ---------------------------------------------------
  free energy    TOTEN  =       -10.68397672 eV

  energy without entropy =      -10.68397672  energy(sigma->0) =      -10.68397672


--------------------------------------------------------------------------------------------------------




--------------------------------------- Iteration      1(  19)  ---------------------------------------


    POTLOK:  cpu time      0.0195: real time      0.0195
    SETDIJ:  cpu time      0.1425: real time      0.1426
     EDDAV:  cpu time      0.7688: real time      0.7699
       DOS:  cpu time      0.0012: real time      0.0012
    CHARGE:  cpu time      0.0610: real time      0.0611
    MIXING:  cpu time      0.0029: real time      0.0029
    --------------------------------------------
      LOOP:  cpu time      0.9959: real time      0.9972

 eigenvalue-minimisations  :  2472
 total energy-change (2. order) :-0.1949907E-05  (-0.2876925E-05)
 number of electron      10.0000000 magnetization 
 augmentation part       -1.0782992 magnetization 

 Broyden mixing:
  rms(total) = 0.98717E-03    rms(broyden)= 0.98717E-03
  rms(prec ) = 0.10692E-02
  weight for this iteration     100.00

 eigenvalues of (default mixing * dielectric matrix)
  average eigenvalue GAMMA=   3.7984
  9.8286  7.2723  5.3874  1.9371  0.9585  1.0891  0.1158

 Free energy of the ion-electron system (eV)
  ---------------------------------------------------
  alpha Z        PSCENC =         3.71007814
  Ewald energy   TEWEN  =       534.42243236
  -Hartree energ DENC   =      -838.80866035
  -exchange      EXHF   =         0.00000000
  -V(xc)+E(xc)   XCENC  =        -7.06362172
  PAW double counting   =       349.12241474     -318.55697726
  entropy T*S    EENTRO =        -0.00000000
  eigenvalues    EBANDS =       -85.59334232
  atomic energy  EATOM  =       352.08369776
  Solvation  Ediel_sol  =         0.00000000
  ---------------------------------------------------
  free energy    TOTEN  =       -10.68397867 eV

  energy without entropy =      -10.68397867  energy(sigma->0) =      -10.68397867


--------------------------------------------------------------------------------------------------------




--------------------------------------- Iteration      1(  20)  ---------------------------------------


    POTLOK:  cpu time      0.0188: real time      0.0188
    SETDIJ:  cpu time      0.1494: real time      0.1495
     EDDAV:  cpu time      0.5703: real time      0.5712
       DOS:  cpu time      0.0009: real time      0.0009
    --------------------------------------------
      LOOP:  cpu time      0.7393: real time      0.7404

 eigenvalue-minimisations  :  1512
 total energy-change (2. order) :-0.2158823E-06  (-0.1293151E-06)
 number of electron      10.0000000 magnetization 
 augmentation part       -1.0782992 magnetization 

 Free energy of the ion-electron system (eV)
  ---------------------------------------------------
  alpha Z        PSCENC =         3.71007814
  Ewald energy   TEWEN  =       534.42243236
  -Hartree energ DENC   =      -838.80629455
  -exchange      EXHF   =         0.00000000
  -V(xc)+E(xc)   XCENC  =        -7.06400246
  PAW double counting   =       349.10176804     -318.53597880
  entropy T*S    EENTRO =        -0.00000000
  eigenvalues    EBANDS =       -85.59567936
  atomic energy  EATOM  =       352.08369776
  Solvation  Ediel_sol  =         0.00000000
  ---------------------------------------------------
  free energy    TOTEN  =       -10.68397888 eV

  energy without entropy =      -10.68397888  energy(sigma->0) =      -10.68397888


--------------------------------------------------------------------------------------------------------




 average (electrostatic) potential at core
  the test charge radii are     1.0220
  (the norm of the test charge is              1.0000)
       1 -82.5703       2 -82.5703
 
 
 
 E-fermi :  -3.3399     XC(G=0):  -3.2815     alpha+bet : -2.8518

 Fermi energy:        -3.3399002668

 k-point     1 :       0.0000    0.0000    0.0000
  band No.  band energies     occupation 
      1     -17.4693      2.00000
      2      -9.7579      2.00000
      3      -3.7661      2.00000
      4      -3.4957      2.00000
      5      -3.4957      2.00000
      6       0.3760      0.00000
      7       0.5279      0.00000
      8       0.5279      0.00000
      9       2.0237      0.00000
     10       2.4670      0.00000
     11       3.8284      0.00000
     12       4.4413      0.00000

 k-point     2 :       0.0714   -0.0000    0.0000
  band No.  band energies     occupation 
      1     -17.3872      2.00000
      2      -9.7032      2.00000
      3      -4.1769      2.00000
      4      -3.7178      2.00000
      5      -3.6819      2.00000
      6       0.2804      0.00000
      7       0.7655      0.00000
      8       1.0539      0.00000
      9       2.1279      0.00000
     10       2.5513      0.00000
     11       3.8890      0.00000
     12       4.5333      0.00000

 k-point     3 :       0.1429    0.0000    0.0000
  band No.  band energies     occupation 
      1     -17.1423      2.00000
      2      -9.5619      2.00000
      3      -5.5032      2.00000
      4      -4.1133      2.00000
      5      -3.5887      2.00000
      6      -0.2547      0.00000
      7       1.2956      0.00000
      8       2.0714      0.00000
      9       2.4584      0.00000
     10       2.8302      0.00000
     11       4.0220      0.00000
     12       4.8072      0.00000

 k-point     4 :       0.2143   -0.0000    0.0000
  band No.  band energies     occupation 
      1     -16.7387      2.00000
      2      -9.4537      2.00000
      3      -6.7875      2.00000
      4      -4.5998      2.00000
      5      -3.4417      2.00000
      6      -0.8632      0.00000
      7       1.7774      0.00000
      8       2.0407      0.00000
      9       2.8231      0.00000
     10       3.3578      0.00000
     11       4.4806      0.00000
     12       5.2149      0.00000

 k-point     5 :       0.2857   -0.0000    0.0000
  band No.  band energies     occupation 
      1     -16.1857      2.00000
      2      -9.7927      2.00000
      3      -7.4550      2.00000
      4      -5.0334      2.00000
      5      -3.4408      2.00000
      6      -1.3185      0.00000
      7       1.2295      0.00000
      8       2.0027      0.00000
      9       3.4621      0.00000
     10       3.8740      0.00000
     11       4.7327      0.00000
     12       5.6962      0.00000

 k-point     6 :       0.3571   -0.0000    0.0000
  band No.  band energies     occupation 
      1     -15.5068      2.00000
      2     -10.7531      2.00000
      3      -7.2797      2.00000
      4      -5.3643      2.00000
      5      -3.7918      2.00000
      6      -1.4477      0.00000
      7       0.5592      0.00000
      8       2.0244      0.00000
      9       3.7929      0.00000
     10       4.3176      0.00000
     11       5.0372      0.00000
     12       6.3021      0.00000

 k-point     7 :       0.4286   -0.0000    0.0000
  band No.  band energies     occupation 
      1     -14.7795      2.00000
      2     -11.7856      2.00000
      3      -6.7916      2.00000
      4      -5.5696      2.00000
      5      -4.3739      2.00000
      6      -1.3940      0.00000
      7       0.2379      0.00000
      8       1.9823      0.00000
      9       3.2970      0.00000
     10       5.3096      0.00000
     11       5.9166      0.00000
     12       6.9636      0.00000

 k-point     8 :       0.5000   -0.0000    0.0000
  band No.  band energies     occupation 
      1     -14.3591      2.00000
      2     -12.3210      2.00000
      3      -6.4908      2.00000
      4      -5.6390      2.00000
      5      -4.7151      2.00000
      6      -1.3660      0.00000
      7       0.1769      0.00000
      8       1.9601      0.00000
      9       3.0663      0.00000
     10       6.3901      0.00000
     11       6.4018      0.00000
     12       6.8517      0.00000

 k-point     9 :       0.0714    0.0714    0.0000
  band No.  band energies     occupation 
      1     -17.2238      2.00000
      2      -9.6043      2.00000
      3      -5.0806      2.00000
      4      -4.0830      2.00000
      5      -3.6288      2.00000
      6       0.3075      0.00000
      7       0.6605      0.00000
      8       1.9780      0.00000
      9       2.3745      0.00000
     10       2.7109      0.00000
     11       3.9662      0.00000
     12       4.7168      0.00000

 k-point    10 :       0.1429    0.0714    0.0000
  band No.  band energies     occupation 
      1     -16.8993      2.00000
      2      -9.4671      2.00000
      3      -6.2696      2.00000
      4      -4.6835      2.00000
      5      -3.4860      2.00000
      6      -0.1476      0.00000
      7       1.1558      0.00000
      8       2.4767      0.00000
      9       2.7066      0.00000
     10       3.0958      0.00000
     11       4.0209      0.00000
     12       4.9485      0.00000

 k-point    11 :       0.2143    0.0714    0.0000
  band No.  band energies     occupation 
      1     -16.4201      2.00000
      2      -9.5402      2.00000
      3      -7.2199      2.00000
      4      -5.2354      2.00000
      5      -3.3898      2.00000
      6      -0.6778      0.00000
      7       1.5647      0.00000
      8       1.8652      0.00000
      9       3.1886      0.00000
     10       3.6456      0.00000
     11       4.4716      0.00000
     12       5.3940      0.00000

 k-point    12 :       0.2857    0.0714    0.0000
  band No.  band energies     occupation 
      1     -15.8005      2.00000
      2     -10.2434      2.00000
      3      -7.3876      2.00000
      4      -5.6601      2.00000
      5      -3.5384      2.00000
      6      -0.9793      0.00000
      7       1.0303      0.00000
      8       1.7027      0.00000
      9       3.8825      0.00000
     10       4.1176      0.00000
     11       4.8164      0.00000
     12       6.0053      0.00000

 k-point    13 :       0.3571    0.0714    0.0000
  band No.  band energies     occupation 
      1     -15.0801      2.00000
      2     -11.2889      2.00000
      3      -7.0296      2.00000
      4      -5.9092      2.00000
      5      -4.0295      2.00000
      6      -0.9578      0.00000
      7       0.4398      0.00000
      8       1.7306      0.00000
      9       3.6720      0.00000
     10       4.8717      0.00000
     11       5.5095      0.00000
     12       6.7195      0.00000

 k-point    14 :       0.4286    0.0714    0.0000
  band No.  band energies     occupation 
      1     -14.4220      2.00000
      2     -12.1591      2.00000
      3      -6.6885      2.00000
      4      -5.9060      2.00000
      5      -4.5890      2.00000
      6      -0.8260      0.00000
      7       0.1349      0.00000
      8       1.7894      0.00000
      9       3.2086      0.00000
     10       5.9450      0.00000
     11       6.4723      0.00000
     12       7.1203      0.00000

 k-point    15 :       0.1429    0.1429    0.0000
  band No.  band energies     occupation 
      1     -16.4987      2.00000
      2      -9.4714      2.00000
      3      -6.9820      2.00000
      4      -5.5433      2.00000
      5      -3.3819      2.00000
      6       0.1204      0.00000
      7       0.9601      0.00000
      8       2.6062      0.00000
      9       3.1005      0.00000
     10       3.1360      0.00000
     11       3.9383      0.00000
     12       5.2026      0.00000

 k-point    16 :       0.2143    0.1429    0.0000
  band No.  band energies     occupation 
      1     -15.9498      2.00000
      2      -9.9113      2.00000
      3      -7.2748      2.00000
      4      -6.2505      2.00000
      5      -3.4080      2.00000
      6      -0.1060      0.00000
      7       0.9853      0.00000
      8       2.0591      0.00000
      9       3.5771      0.00000
     10       3.8121      0.00000
     11       4.4774      0.00000
     12       5.7013      0.00000

 k-point    17 :       0.2857    0.1429    0.0000
  band No.  band energies     occupation 
      1     -15.2742      2.00000
      2     -10.8100      2.00000
      3      -7.1700      2.00000
      4      -6.5777      2.00000
      5      -3.7222      2.00000
      6      -0.2807      0.00000
      7       0.8153      0.00000
      8       1.6217      0.00000
      9       4.0363      0.00000
     10       4.6398      0.00000
     11       5.2535      0.00000
     12       5.8447      0.00000

 k-point    18 :       0.3571    0.1429    0.0000
  band No.  band energies     occupation 
      1     -14.5431      2.00000
      2     -11.7827      2.00000
      3      -7.2521      2.00000
      4      -6.2527      2.00000
      5      -4.2847      2.00000
      6      -0.2622      0.00000
      7       0.5612      0.00000
      8       1.5543      0.00000
      9       3.6393      0.00000
     10       5.6130      0.00000
     11       6.1604      0.00000
     12       6.7869      0.00000

 k-point    19 :       0.4286    0.1429    0.0000
  band No.  band energies     occupation 
      1     -14.1068      2.00000
      2     -12.3129      2.00000
      3      -7.3211      2.00000
      4      -5.9188      2.00000
      5      -4.6669      2.00000
      6      -0.2170      0.00000
      7       0.4425      0.00000
      8       1.6104      0.00000
      9       3.3565      0.00000
     10       6.5844      0.00000
     11       6.8635      0.00000
     12       7.0002      0.00000

 k-point    20 :       0.2143    0.2143    0.0000
  band No.  band energies     occupation 
      1     -15.3408      2.00000
      2     -10.5916      2.00000
      3      -7.1628      2.00000
      4      -6.9466      2.00000
      5      -3.6037      2.00000
      6       0.2168      0.00000
      7       0.3569      0.00000
      8       2.6602      0.00000
      9       3.5044      0.00000
     10       4.5067      0.00000
     11       5.1001      0.00000
     12       5.4277      0.00000

 k-point    21 :       0.2857    0.2143    0.0000
  band No.  band energies     occupation 
      1     -14.6258      2.00000
      2     -11.4453      2.00000
      3      -7.7739      2.00000
      4      -6.4049      2.00000
      5      -4.0302      2.00000
      6      -0.3702      0.00000
      7       0.8169      0.00000
      8       2.4480      0.00000
      9       4.0468      0.00000
     10       5.4070      0.00000
     11       5.4829      0.00000
     12       5.8652      0.00000

 k-point    22 :       0.3571    0.2143    0.0000
  band No.  band energies     occupation 
      1     -13.9385      2.00000
      2     -12.2341      2.00000
      3      -8.0713      2.00000
      4      -5.8308      2.00000
      5      -4.5595      2.00000
      6      -0.6766      0.00000
      7       1.3871      0.00000
      8       1.9703      0.00000
      9       3.9099      0.00000
     10       5.9226      0.00000
     11       6.5693      0.00000
     12       6.8123      0.00000

 k-point    23 :       0.2857    0.2857    0.0000
  band No.  band energies     occupation 
      1     -13.8985      2.00000
      2     -12.1433      2.00000
      3      -8.3870      2.00000
      4      -5.8147      2.00000
      5      -4.4649      2.00000
      6      -0.8944      0.00000
      7       1.4041      0.00000
      8       2.6400      0.00000
      9       4.6397      0.00000
     10       5.4348      0.00000
     11       5.8760      0.00000
     12       6.4713      0.00000

 k-point    24 :       0.3571    0.2857    0.0000
  band No.  band energies     occupation 
      1     -13.3574      2.00000
      2     -12.6726      2.00000
      3      -8.6030      2.00000
      4      -5.3650      2.00000
      5      -4.8494      2.00000
      6      -1.1036      0.00000
      7       1.9221      0.00000
      8       2.2699      0.00000
      9       4.7900      0.00000
     10       5.5709      0.00000
     11       6.7682      0.00000
     12       7.1822      0.00000

 k-point    25 :       0.0000    0.0000    0.3333
  band No.  band energies     occupation 
      1     -17.4693      2.00000
      2      -9.7579      2.00000
      3      -3.7661      2.00000
      4      -3.4957      2.00000
      5      -3.4957      2.00000
      6       0.3759      0.00000
      7       0.5279      0.00000
      8       0.5279      0.00000
      9       1.9754      0.00000
     10       2.6287      0.00000
     11       3.4413      0.00000
     12       4.9946      0.00000

 k-point    26 :       0.0714   -0.0000    0.3333
  band No.  band energies     occupation 
      1     -17.3872      2.00000
      2      -9.7032      2.00000
      3      -4.1769      2.00000
      4      -3.7178      2.00000
      5      -3.6819      2.00000
      6       0.2804      0.00000
      7       0.7655      0.00000
      8       1.0535      0.00000
      9       2.0800      0.00000
     10       2.7069      0.00000
     11       3.5308      0.00000
     12       5.0053      0.00000

 k-point    27 :       0.0000    0.0714    0.3333
  band No.  band energies     occupation 
      1     -17.3872      2.00000
      2      -9.7032      2.00000
      3      -4.1769      2.00000
      4      -3.7178      2.00000
      5      -3.6819      2.00000
      6       0.2804      0.00000
      7       0.7655      0.00000
      8       1.0536      0.00000
      9       2.0791      0.00000
     10       2.7091      0.00000
     11       3.5281      0.00000
     12       5.0062      0.00000

 k-point    28 :       0.1429    0.0000    0.3333
  band No.  band energies     occupation 
      1     -17.1423      2.00000
      2      -9.5618      2.00000
      3      -5.5032      2.00000
      4      -4.1133      2.00000
      5      -3.5887      2.00000
      6      -0.2547      0.00000
      7       1.2956      0.00000
      8       2.0620      0.00000
      9       2.4302      0.00000
     10       2.9522      0.00000
     11       3.8063      0.00000
     12       4.6947      0.00000

 k-point    29 :       0.0000    0.1429    0.3333
  band No.  band energies     occupation 
      1     -17.1423      2.00000
      2      -9.5618      2.00000
      3      -5.5032      2.00000
      4      -4.1133      2.00000
      5      -3.5887      2.00000
      6      -0.2547      0.00000
      7       1.2956      0.00000
      8       2.0677      0.00000
      9       2.4115      0.00000
     10       2.9822      0.00000
     11       3.7674      0.00000
     12       4.7258      0.00000

 k-point    30 :       0.2143   -0.0000    0.3333
  band No.  band energies     occupation 
      1     -16.7387      2.00000
      2      -9.4537      2.00000
      3      -6.7875      2.00000
      4      -4.5998      2.00000
      5      -3.4417      2.00000
      6      -0.8632      0.00000
      7       1.7774      0.00000
      8       2.0414      0.00000
      9       2.7843      0.00000
[...]
      1     -15.8005      2.00000
      2     -10.2434      2.00000
      3      -7.3876      2.00000
      4      -5.6600      2.00000
      5      -3.5384      2.00000
      6      -0.9793      0.00000
      7       1.0304      0.00000
      8       1.7027      0.00000
      9       3.8477      0.00000
     10       4.1527      0.00000
     11       4.9218      0.00000
     12       5.6205      0.00000

 k-point    46 :       0.3571    0.0714    0.3333
  band No.  band energies     occupation 
      1     -15.0801      2.00000
      2     -11.2889      2.00000
      3      -7.0295      2.00000
      4      -5.9092      2.00000
      5      -4.0295      2.00000
      6      -0.9578      0.00000
      7       0.4398      0.00000
      8       1.7307      0.00000
      9       3.6727      0.00000
     10       4.8279      0.00000
     11       5.7178      0.00000
     12       6.2967      0.00000

 k-point    47 :      -0.0714    0.4286    0.3333
  band No.  band energies     occupation 
      1     -15.0801      2.00000
      2     -11.2889      2.00000
      3      -7.0296      2.00000
      4      -5.9092      2.00000
      5      -4.0295      2.00000
      6      -0.9578      0.00000
      7       0.4398      0.00000
      8       1.7307      0.00000
      9       3.6724      0.00000
     10       4.8386      0.00000
     11       5.6422      0.00000
     12       6.4481      0.00000

 k-point    48 :       0.4286    0.0714    0.3333
  band No.  band energies     occupation 
      1     -14.4220      2.00000
      2     -12.1591      2.00000
      3      -6.6885      2.00000
      4      -5.9060      2.00000
      5      -4.5890      2.00000
      6      -0.8260      0.00000
      7       0.1349      0.00000
      8       1.7894      0.00000
      9       3.2087      0.00000
     10       5.9073      0.00000
     11       6.5919      0.00000
     12       7.1824      0.00000

 k-point    49 :      -0.0714    0.5000    0.3333
  band No.  band energies     occupation 
      1     -14.4220      2.00000
      2     -12.1591      2.00000
      3      -6.6885      2.00000
      4      -5.9060      2.00000
      5      -4.5890      2.00000
      6      -0.8260      0.00000
      7       0.1349      0.00000
      8       1.7894      0.00000
      9       3.2087      0.00000
     10       5.9191      0.00000
     11       6.5363      0.00000
     12       7.1113      0.00000

 k-point    50 :       0.1429    0.1429    0.3333
  band No.  band energies     occupation 
      1     -16.4987      2.00000
      2      -9.4714      2.00000
      3      -6.9820      2.00000
      4      -5.5433      2.00000
      5      -3.3819      2.00000
      6       0.1204      0.00000
      7       0.9601      0.00000
      8       2.6054      0.00000
      9       3.0852      0.00000
     10       3.1290      0.00000
     11       4.1280      0.00000
     12       4.6537      0.00000

 k-point    51 :       0.2143    0.1429    0.3333
  band No.  band energies     occupation 
      1     -15.9498      2.00000
      2      -9.9113      2.00000
      3      -7.2748      2.00000
      4      -6.2505      2.00000
      5      -3.4080      2.00000
      6      -0.1060      0.00000
      7       0.9853      0.00000
      8       2.0592      0.00000
      9       3.5823      0.00000
     10       3.7677      0.00000
     11       4.6828      0.00000
     12       5.2432      0.00000

 k-point    52 :      -0.1429    0.3571    0.3333
  band No.  band energies     occupation 
      1     -15.9498      2.00000
      2      -9.9113      2.00000
      3      -7.2748      2.00000
      4      -6.2505      2.00000
      5      -3.4080      2.00000
      6      -0.1060      0.00000
      7       0.9853      0.00000
      8       2.0592      0.00000
      9       3.5679      0.00000
     10       3.7926      0.00000
     11       4.6470      0.00000
     12       5.2609      0.00000

 k-point    53 :       0.2857    0.1429    0.3333
  band No.  band energies     occupation 
      1     -15.2742      2.00000
      2     -10.8100      2.00000
      3      -7.1700      2.00000
      4      -6.5777      2.00000
      5      -3.7222      2.00000
      6      -0.2807      0.00000
      7       0.8153      0.00000
      8       1.6217      0.00000
      9       4.0387      0.00000
     10       4.5915      0.00000
     11       5.4660      0.00000
     12       5.8290      0.00000

 k-point    54 :      -0.1429    0.4286    0.3333
  band No.  band energies     occupation 
      1     -15.2742      2.00000
      2     -10.8100      2.00000
      3      -7.1700      2.00000
      4      -6.5777      2.00000
      5      -3.7221      2.00000
      6      -0.2807      0.00000
      7       0.8153      0.00000
      8       1.6217      0.00000
      9       4.0359      0.00000
     10       4.6081      0.00000
     11       5.3889      0.00000
     12       5.8504      0.00000

 k-point    55 :       0.3571    0.1429    0.3333
  band No.  band energies     occupation 
      1     -14.5431      2.00000
      2     -11.7827      2.00000
      3      -7.2521      2.00000
      4      -6.2527      2.00000
      5      -4.2847      2.00000
      6      -0.2622      0.00000
      7       0.5612      0.00000
      8       1.5543      0.00000
      9       3.6394      0.00000
     10       5.5713      0.00000
     11       6.3184      0.00000
     12       6.7820      0.00000

 k-point    56 :      -0.1429    0.5000    0.3333
  band No.  band energies     occupation 
      1     -14.5431      2.00000
      2     -11.7827      2.00000
      3      -7.2521      2.00000
      4      -6.2527      2.00000
      5      -4.2847      2.00000
      6      -0.2622      0.00000
      7       0.5612      0.00000
      8       1.5543      0.00000
      9       3.6394      0.00000
     10       5.5810      0.00000
     11       6.2596      0.00000
     12       6.7842      0.00000

 k-point    57 :       0.4286    0.1429    0.3333
  band No.  band energies     occupation 
      1     -14.1068      2.00000
      2     -12.3129      2.00000
      3      -7.3211      2.00000
      4      -5.9188      2.00000
      5      -4.6669      2.00000
      6      -0.2171      0.00000
      7       0.4425      0.00000
      8       1.6104      0.00000
      9       3.3565      0.00000
     10       6.5701      0.00000
     11       6.8397      0.00000
     12       6.9975      0.00000

 k-point    58 :       0.2143    0.2143    0.3333
  band No.  band energies     occupation 
      1     -15.3408      2.00000
      2     -10.5916      2.00000
      3      -7.1628      2.00000
      4      -6.9466      2.00000
      5      -3.6037      2.00000
      6       0.2168      0.00000
      7       0.3569      0.00000
      8       2.6601      0.00000
      9       3.5051      0.00000
     10       4.4673      0.00000
     11       5.2580      0.00000
     12       5.4165      0.00000

 k-point    59 :       0.2857    0.2143    0.3333
  band No.  band energies     occupation 
      1     -14.6258      2.00000
      2     -11.4453      2.00000
      3      -7.7739      2.00000
      4      -6.4049      2.00000
      5      -4.0302      2.00000
      6      -0.3702      0.00000
      7       0.8169      0.00000
      8       2.4480      0.00000
      9       4.0471      0.00000
     10       5.3904      0.00000
     11       5.4543      0.00000
     12       5.9660      0.00000

 k-point    60 :      -0.2143    0.5000    0.3333
  band No.  band energies     occupation 
      1     -14.6258      2.00000
      2     -11.4453      2.00000
      3      -7.7739      2.00000
      4      -6.4049      2.00000
      5      -4.0302      2.00000
      6      -0.3702      0.00000
      7       0.8169      0.00000
      8       2.4480      0.00000
      9       4.0470      0.00000
     10       5.3938      0.00000
     11       5.4593      0.00000
     12       5.9358      0.00000

 k-point    61 :       0.3571    0.2143    0.3333
  band No.  band energies     occupation 
      1     -13.9385      2.00000
      2     -12.2341      2.00000
      3      -8.0713      2.00000
      4      -5.8308      2.00000
      5      -4.5595      2.00000
      6      -0.6766      0.00000
      7       1.3871      0.00000
      8       1.9703      0.00000
      9       3.9100      0.00000
     10       5.9230      0.00000
     11       6.5322      0.00000
     12       6.8459      0.00000

 k-point    62 :      -0.2143   -0.4286    0.3333
  band No.  band energies     occupation 
      1     -13.9385      2.00000
      2     -12.2341      2.00000
      3      -8.0713      2.00000
      4      -5.8308      2.00000
      5      -4.5595      2.00000
      6      -0.6766      0.00000
      7       1.3871      0.00000
      8       1.9703      0.00000
      9       3.9099      0.00000
     10       5.9243      0.00000
     11       6.5308      0.00000
     12       6.8373      0.00000

 k-point    63 :       0.2857    0.2857    0.3333
  band No.  band energies     occupation 
      1     -13.8985      2.00000
      2     -12.1433      2.00000
      3      -8.3870      2.00000
      4      -5.8147      2.00000
      5      -4.4649      2.00000
      6      -0.8944      0.00000
      7       1.4042      0.00000
      8       2.6400      0.00000
      9       4.6397      0.00000
     10       5.4349      0.00000
     11       5.8797      0.00000
     12       6.4330      0.00000

 k-point    64 :       0.3571    0.2857    0.3333
  band No.  band energies     occupation 
      1     -13.3574      2.00000
      2     -12.6725      2.00000
      3      -8.6030      2.00000
      4      -5.3650      2.00000
      5      -4.8494      2.00000
      6      -1.1036      0.00000
      7       1.9221      0.00000
      8       2.2699      0.00000
      9       4.7900      0.00000
     10       5.5711      0.00000
     11       6.7692      0.00000
     12       7.1828      0.00000


--------------------------------------------------------------------------------------------------------


 soft charge-density along one line, spin component           1
         0         1         2         3         4         5         6         7         8         9
 total charge-density along one line
 
 pseudopotential strength for first ion, spin component:           1
 28.237 -61.593  -0.000   0.057   0.000   0.000  -0.081  -0.000
-61.593 119.428   0.000  -0.120  -0.000  -0.000   0.252   0.000
 -0.000   0.000   5.964   0.000  -0.000  -8.522  -0.000   0.000
  0.057  -0.120   0.000   5.956  -0.000  -0.000  -8.515   0.000
  0.000  -0.000  -0.000  -0.000   5.964   0.000   0.000  -8.522
  0.000  -0.000  -8.522  -0.000   0.000  26.382   0.000  -0.000
 -0.081   0.252  -0.000  -8.515   0.000   0.000  26.376  -0.000
 -0.000   0.000   0.000   0.000  -8.522  -0.000  -0.000  26.382
 -0.000   0.000   0.000   0.000   0.001   0.000   0.000  -0.000
  0.000  -0.000   0.018   0.000   0.000  -0.003   0.000   0.000
 -0.007   0.011   0.000   0.020  -0.000   0.000  -0.003  -0.000
 -0.000   0.000   0.000  -0.000   0.018   0.000  -0.000  -0.003
  0.000  -0.000   0.001  -0.000   0.000  -0.000  -0.000   0.000
 -0.000   0.000   0.000   0.000   0.002  -0.000  -0.000   0.004
  0.000  -0.000   0.015   0.000   0.000  -0.068  -0.000  -0.000
 -0.008   0.005   0.000   0.013  -0.000  -0.000  -0.082   0.000
 -0.000   0.000   0.000  -0.000   0.015  -0.000   0.000  -0.068
  0.000  -0.000   0.002  -0.000   0.000   0.004   0.000  -0.000
 total augmentation occupancy for first ion, spin component:           1
  1.889   0.005  -0.000  -0.272   0.000  -0.000   0.002   0.000   0.000   0.000  -0.027  -0.000   0.000  -0.000   0.000   0.001
  0.005   0.000   0.000   0.017  -0.000   0.000   0.000   0.000   0.000   0.000  -0.000   0.000   0.000   0.000   0.000  -0.000
  0.000  -0.000   1.074   0.000   0.000   0.016   0.000   0.000  -0.000   0.164  -0.000   0.000   0.096  -0.000   0.000  -0.000
 -0.272   0.017   0.000   1.294   0.000   0.000   0.014  -0.000  -0.000  -0.000   0.041   0.000  -0.000   0.000  -0.000  -0.001
 -0.000   0.000   0.000   0.000   1.074   0.000   0.000   0.016   0.096   0.000  -0.000   0.164   0.000   0.000   0.000  -0.000
  0.000   0.000   0.016   0.000   0.000   0.000   0.000   0.000  -0.000   0.003  -0.000   0.000   0.002  -0.000   0.000  -0.000
  0.002   0.000  -0.000   0.014  -0.000   0.000   0.000   0.000  -0.000   0.000   0.001   0.000  -0.000   0.000   0.000  -0.000
 -0.000  -0.000   0.000   0.000   0.016   0.000   0.000   0.000   0.002   0.000  -0.000   0.003   0.000   0.000   0.000  -0.000
  0.000   0.000  -0.000  -0.000   0.096  -0.000  -0.000   0.002   0.027  -0.000  -0.000   0.016   0.000   0.000  -0.000  -0.000
  0.000   0.000   0.164   0.000   0.000   0.003  -0.000   0.000  -0.000   0.040  -0.000   0.000   0.016  -0.000   0.000  -0.000
 -0.027  -0.000  -0.000   0.041  -0.000  -0.000   0.001  -0.000  -0.000  -0.000   0.017  -0.000  -0.000  -0.000  -0.000   0.000
 -0.000   0.000   0.000  -0.000   0.164   0.000   0.000   0.003   0.016   0.000  -0.000   0.040   0.000   0.000   0.000  -0.000
  0.000   0.000   0.096  -0.000   0.000   0.002  -0.000   0.000   0.000   0.016  -0.000   0.000   0.027   0.000   0.000  -0.000
 -0.000   0.000  -0.000   0.000   0.000  -0.000   0.000   0.000   0.000  -0.000  -0.000   0.000   0.000   0.000  -0.000  -0.000
  0.000  -0.000   0.000   0.000   0.000   0.000   0.000   0.000  -0.000   0.000  -0.000   0.000   0.000  -0.000   0.000  -0.000
  0.001  -0.000  -0.000  -0.001  -0.000  -0.000  -0.000  -0.000  -0.000  -0.000   0.000  -0.000  -0.000  -0.000  -0.000   0.000
 -0.000  -0.000   0.000  -0.000   0.000   0.000  -0.000   0.000   0.000   0.000  -0.000   0.000   0.000   0.000   0.000  -0.000
 -0.000   0.000   0.000   0.000   0.000   0.000   0.000   0.000   0.000   0.000  -0.000   0.000   0.000   0.000   0.000  -0.000


------------------------ aborting loop because EDIFF is reached ----------------------------------------





 total charge

# of ion       s       p       d       tot
------------------------------------------
    1        1.215   1.527   0.095   2.837
    2        1.215   1.527   0.095   2.837
--------------------------------------------------
tot          2.430   3.053   0.190   5.674
 
    CHARGE:  cpu time      0.0591: real time      0.0593
    FORLOC:  cpu time      0.0025: real time      0.0025
    FORNL :  cpu time      0.1706: real time      0.1708
    STRESS:  cpu time      0.7699: real time      0.7715
    FORCOR:  cpu time      0.0186: real time      0.0186
    FORHAR:  cpu time      0.0051: real time      0.0051
    MIXING:  cpu time      0.0010: real time      0.0010
    OFIELD:  cpu time      0.0001: real time      0.0001

  FORCE on cell =-STRESS in cart. coord.  units (eV):
  Direction    XX          YY          ZZ          XY          YZ          ZX
  --------------------------------------------------------------------------------------
  Alpha Z     3.71008     3.71008     3.71008
  Ewald     798.27455   798.27455 -1062.12655    -0.00000     0.00000    -0.00000
  Hartree   825.72820   825.72820  -812.68477    -0.00000    -0.00000    -0.00000
  E(xc)     -34.19769   -34.19769   -34.66612     0.00000     0.00000    -0.00000
  Local   -1769.73884 -1769.73885  1718.97295    -0.00001     0.00000    -0.00000
  n-local   102.46367   102.19749   102.86153    -1.18182     0.35278    -0.58539
  augment   -21.08479   -21.08479   -21.79565     0.00001    -0.00000     0.00000
  Kinetic    93.35619    96.58096   105.70369     1.96898     0.32875    -1.46949
  Fock        0.00000     0.00000     0.00000     0.00000     0.00000     0.00000
  -------------------------------------------------------------------------------------
  Total      -0.00934    -0.00934    -0.02484     0.00000    -0.00000    -0.00000
  in kB      -0.10019    -0.10019    -0.26662     0.00000    -0.00000    -0.00000
  external pressure =       -0.16 kB  Pullay stress =        0.00 kB


 VOLUME and BASIS-vectors are now :
 -----------------------------------------------------------------------------
  energy-cutoff  :      510.08
  volume of cell :      149.29
      direct lattice vectors                 reciprocal lattice vectors
     3.282343494  0.000000000  0.000000000     0.304660375  0.175895750  0.000000000
    -1.641171747  2.842592850  0.000000000     0.000000000  0.351791499  0.000000000
     0.000000000  0.000000000 16.000000000     0.000000000  0.000000000  0.062500000

  length of vectors
     3.282343494  3.282343494 16.000000000     0.351791499  0.351791499  0.062500000


 FORCES acting on ions
    electron-ion (+dipol)            ewald-force                    non-local-force                 convergence-correction
 -----------------------------------------------------------------------------------------------
   0.136E-06 -.268E-07 0.158E+03   0.336E-11 -.195E-11 -.167E+03   0.833E-16 0.000E+00 0.947E+01   0.764E-09 -.441E-09 0.109E-01
   -.136E-06 0.268E-07 -.158E+03   -.336E-11 0.195E-11 0.167E+03   -.278E-16 0.000E+00 -.947E+01   -.764E-09 0.441E-09 -.109E-01
 -----------------------------------------------------------------------------------------------
   -.140E-12 -.189E-13 -.551E-11   -.504E-15 0.189E-14 0.000E+00   0.555E-16 0.000E+00 0.178E-14   0.107E-14 0.148E-15 -.113E-12
 
 
 POSITION                                       TOTAL-FORCE (eV/Angst)
 -----------------------------------------------------------------------------------
      1.64117      0.94753      7.37893         0.000000      0.000000      0.006967
      0.00000      1.89506      8.62107        -0.000000      0.000000     -0.006967
 -----------------------------------------------------------------------------------
    total drift:                               -0.000000     -0.000000     -0.000000


--------------------------------------------------------------------------------------------------------



  FREE ENERGIE OF THE ION-ELECTRON SYSTEM (eV)
  ---------------------------------------------------
  free  energy   TOTEN  =       -10.68397888 eV

  energy  without entropy=      -10.68397888  energy(sigma->0) =      -10.68397888
 


--------------------------------------------------------------------------------------------------------


    POTLOK:  cpu time      0.1701: real time      0.1702


--------------------------------------------------------------------------------------------------------




--------------------------------------------------------------------------------------------------------


  
 reached required accuracy - stopping structural energy minimisation
     LOOP+:  cpu time     17.5273: real time     18.4510
    4ORBIT:  cpu time      0.0000: real time      0.0000



 total charge

# of ion       s       p       d       tot
------------------------------------------
    1        1.215   1.527   0.095   2.837
    2        1.215   1.527   0.095   2.837
--------------------------------------------------
tot          2.430   3.053   0.190   5.674
 

 total amount of memory used by VASP MPI-rank0    50275. kBytes
=======================================================================

   base      :      30000. kBytes
   nonl-proj :       9211. kBytes
   fftplans  :       5567. kBytes
   grid      :       2361. kBytes
   one-center:         15. kBytes
   wavefun   :       3121. kBytes
 
  
  
 General timing and accounting informations for this job:
 ========================================================
  
                  Total CPU time used (sec):       18.533
                            User time (sec):       18.337
                          System time (sec):        0.196
                         Elapsed time (sec):       21.616
  
                   Maximum memory used (kb):      180276.
                   Average memory used (kb):          N/A
  
                          Minor page faults:        25493
                          Major page faults:         2898
                 Voluntary context switches:          251
