PROCAR new format
# of k-points:   64         # of bands:   12         # of ions:    2

 k-point     1 :    0.00000000 0.00000000 0.00000000     weight = 0.00170068

band     1 # energy  -17.46925531 # occ.  2.00000000
 
ion      s      p      d    tot
    1  0.261  0.016  0.000  0.277
    2  0.261  0.016  0.000  0.277
tot    0.521  0.031  0.001  0.554
 
band     2 # energy   -9.75789022 # occ.  2.00000000
 
ion      s      p      d    tot
    1  0.212  0.052  0.003  0.267
    2  0.212  0.052  0.003  0.267
tot    0.423  0.105  0.007  0.534
 
band     3 # energy   -3.76606471 # occ.  2.00000000
 
ion      s      p      d    tot
    1  0.005  0.205  0.004  0.213
    2  0.005  0.205  0.004  0.213
tot    0.010  0.410  0.007  0.427
 
band     4 # energy   -3.49567929 # occ.  2.00000000
 
ion      s      p      d    tot
    1  0.000  0.309  0.034  0.343
    2  0.000  0.309  0.034  0.343
tot    0.000  0.618  0.067  0.686
 
band     5 # energy   -3.49567914 # occ.  2.00000000
 
ion      s      p      d    tot
    1  0.000  0.309  0.034  0.343
    2  0.000  0.309  0.034  0.343
tot    0.000  0.618  0.067  0.686
 
band     6 # energy    0.37601220 # occ.  0.00000000
 
ion      s      p      d    tot
    1  0.219  0.102  0.037  0.358
    2  0.219  0.102  0.037  0.358
tot    0.437  0.204  0.075  0.716
 
band     7 # energy    0.52787688 # occ.  0.00000000
 
ion      s      p      d    tot
    1  0.000  0.259  0.047  0.306
    2  0.000  0.259  0.047  0.306
tot    0.000  0.518  0.094  0.613
 
band     8 # energy    0.52787704 # occ.  0.00000000
 
ion      s      p      d    tot
    1  0.000  0.259  0.047  0.306
    2  0.000  0.259  0.047  0.306
tot    0.000  0.518  0.094  0.613
 
band     9 # energy    2.02374037 # occ.  0.00000000
 
ion      s      p      d    tot
    1  0.002  0.004  0.023  0.029
    2  0.002  0.004  0.023  0.029
tot    0.004  0.008  0.046  0.059
 
band    10 # energy    2.46700316 # occ.  0.00000000
 
ion      s      p      d    tot
    1  0.003  0.017  0.000  0.020
    2  0.003  0.017  0.000  0.020
tot    0.006  0.035  0.000  0.040
 
band    11 # energy    3.82841118 # occ.  0.00000000
 
ion      s      p      d    tot
    1  0.006  0.026  0.000  0.031
    2  0.006  0.026  0.000  0.031
tot    0.012  0.051  0.000  0.063
 
band    12 # energy    4.44126879 # occ.  0.00000000
 
ion      s      p      d    tot
    1  0.008  0.000  0.022  0.030
    2  0.008  0.000  0.022  0.030
tot    0.016  0.000  0.044  0.060
 

 k-point     2 :    0.07142857-0.00000000 0.00000000     weight = 0.01020408

band     1 # energy  -17.38723283 # occ.  2.00000000
 
ion      s      p      d    tot
    1  0.260  0.017  0.000  0.277
    2  0.260  0.017  0.000  0.277
tot    0.521  0.033  0.001  0.555
 
band     2 # energy   -9.70322620 # occ.  2.00000000
 
ion      s      p      d    tot
    1  0.216  0.051  0.003  0.271
    2  0.216  0.051  0.003  0.271
tot    0.432  0.102  0.007  0.541
 
band     3 # energy   -4.17686114 # occ.  2.00000000
 
ion      s      p      d    tot
    1  0.022  0.276  0.032  0.330
    2  0.022  0.276  0.032  0.330
tot    0.044  0.552  0.064  0.660
 
band     4 # energy   -3.71783449 # occ.  2.00000000
 
ion      s      p      d    tot
    1  0.005  0.207  0.004  0.216
    2  0.005  0.207  0.004  0.216
tot    0.011  0.414  0.007  0.432
 
band     5 # energy   -3.68185848 # occ.  2.00000000
 
ion      s      p      d    tot
    1  0.000  0.304  0.033  0.337
    2  0.000  0.304  0.033  0.337
tot    0.000  0.608  0.066  0.674
 
band     6 # energy    0.28039471 # occ.  0.00000000
 
ion      s      p      d    tot
    1  0.045  0.218  0.045  0.307
    2  0.045  0.218  0.045  0.307
tot    0.090  0.436  0.089  0.614
 
band     7 # energy    0.76553239 # occ.  0.00000000
 
ion      s      p      d    tot
    1  0.000  0.271  0.044  0.315
    2  0.000  0.271  0.044  0.315
tot    0.000  0.542  0.088  0.630
 
band     8 # energy    1.05391827 # occ.  0.00000000
 
ion      s      p      d    tot
    1  0.155  0.167  0.033  0.354
    2  0.155  0.167  0.033  0.354
tot    0.309  0.333  0.066  0.709
 
band     9 # energy    2.12789792 # occ.  0.00000000
 
ion      s      p      d    tot
    1  0.001  0.007  0.026  0.034
    2  0.001  0.007  0.026  0.034
tot    0.002  0.015  0.051  0.068
 
band    10 # energy    2.55132708 # occ.  0.00000000
 
ion      s      p      d    tot
    1  0.003  0.018  0.001  0.022
    2  0.003  0.018  0.001  0.022
tot    0.006  0.036  0.002  0.043
 
band    11 # energy    3.88898270 # occ.  0.00000000
 
ion      s      p      d    tot
    1  0.006  0.026  0.003  0.035
    2  0.006  0.026  0.003  0.035
tot    0.011  0.052  0.006  0.069
 
band    12 # energy    4.53330887 # occ.  0.00000000
 
ion      s      p      d    tot
    1  0.008  0.000  0.022  0.030
    2  0.008  0.000  0.022  0.030
tot    0.015  0.000  0.045  0.061
 

 k-point     3 :    0.14285714 0.00000000 0.00000000     weight = 0.01020408

band     1 # energy  -17.14234843 # occ.  2.00000000
 
ion      s      p      d    tot
    1  0.259  0.019  0.001  0.279
    2  0.259  0.019  0.001  0.279
tot    0.518  0.039  0.002  0.559
 
band     2 # energy   -9.56185410 # occ.  2.00000000
 
ion      s      p      d    tot
    1  0.233  0.045  0.004  0.283
    2  0.233  0.045  0.004  0.283
tot    0.466  0.091  0.008  0.565
 
band     3 # energy   -5.50319802 # occ.  2.00000000
 
ion      s      p      d    tot
    1  0.033  0.243  0.028  0.304
    2  0.033  0.243  0.028  0.304
tot    0.066  0.486  0.055  0.607
 
band     4 # energy   -4.11331855 # occ.  2.00000000
 
ion      s      p      d    tot
    1  0.000  0.295  0.030  0.326
    2  0.000  0.295  0.030  0.326
tot    0.000  0.590  0.061  0.651
 
band     5 # energy   -3.58874574 # occ.  2.00000000
 
ion      s      p      d    tot
    1  0.008  0.214  0.004  0.225
    2  0.008  0.214  0.004  0.225
tot    0.015  0.427  0.008  0.450
 
band     6 # energy   -0.25468115 # occ.  0.00000000
 
ion      s      p      d    tot
    1  0.055  0.192  0.043  0.290
    2  0.055  0.192  0.043  0.290
tot    0.109  0.385  0.086  0.580
 
band     7 # energy    1.29558153 # occ.  0.00000000
 
ion      s      p      d    tot
    1  0.000  0.296  0.036  0.332
    2  0.000  0.296  0.036  0.332
tot    0.000  0.593  0.071  0.664
 
band     8 # energy    2.07138422 # occ.  0.00000000
 
ion      s      p      d    tot
    1  0.109  0.162  0.011  0.282
    2  0.109  0.162  0.011  0.282
tot    0.219  0.324  0.021  0.564
 
band     9 # energy    2.45844567 # occ.  0.00000000
 
ion      s      p      d    tot
    1  0.005  0.045  0.036  0.086
    2  0.005  0.045  0.036  0.086
tot    0.009  0.089  0.073  0.171
 
band    10 # energy    2.83016012 # occ.  0.00000000
 
ion      s      p      d    tot
    1  0.007  0.035  0.006  0.049
    2  0.007  0.035  0.006  0.049
tot    0.014  0.071  0.013  0.097
 
band    11 # energy    4.02202285 # occ.  0.00000000
 
ion      s      p      d    tot
    1  0.008  0.031  0.026  0.065
    2  0.008  0.031  0.026  0.065
tot    0.017  0.061  0.051  0.129
 
band    12 # energy    4.80717445 # occ.  0.00000000
 
ion      s      p      d    tot
    1  0.008  0.001  0.024  0.032
    2  0.008  0.001  0.024  0.032
tot    0.015  0.001  0.048  0.065
 

 k-point     4 :    0.21428571-0.00000000 0.00000000     weight = 0.01020408

band     1 # energy  -16.73870917 # occ.  2.00000000
 
ion      s      p      d    tot
    1  0.258  0.024  0.001  0.283
    2  0.258  0.024  0.001  0.283
tot    0.515  0.047  0.003  0.565
 
band     2 # energy   -9.45369871 # occ.  2.00000000
 
ion      s      p      d    tot
    1  0.270  0.035  0.006  0.311
    2  0.270  0.035  0.006  0.311
tot    0.540  0.070  0.012  0.622
 
band     3 # energy   -6.78746024 # occ.  2.00000000
 
ion      s      p      d    tot
    1  0.014  0.230  0.021  0.264
    2  0.014  0.230  0.021  0.264
tot    0.027  0.459  0.041  0.528
 
band     4 # energy   -4.59981877 # occ.  2.00000000
 
ion      s      p      d    tot
    1  0.000  0.289  0.027  0.316
    2  0.000  0.289  0.027  0.316
tot    0.000  0.577  0.054  0.631
 
band     5 # energy   -3.44171653 # occ.  2.00000000
 
ion      s      p      d    tot
    1  0.014  0.225  0.003  0.242
    2  0.014  0.225  0.003  0.242
tot    0.028  0.450  0.007  0.485
 
band     6 # energy   -0.86322649 # occ.  0.00000000
 
ion      s      p      d    tot
    1  0.067  0.163  0.042  0.271
    2  0.067  0.163  0.042  0.271
tot    0.133  0.326  0.083  0.542
 
band     7 # energy    1.77743896 # occ.  0.00000000
 
ion      s      p      d    tot
    1  0.000  0.315  0.027  0.342
    2  0.000  0.315  0.027  0.342
tot    0.000  0.629  0.054  0.683
 
band     8 # energy    2.04065165 # occ.  0.00000000
 
ion      s      p      d    tot
    1  0.042  0.139  0.055  0.236
    2  0.042  0.139  0.055  0.236
tot    0.083  0.278  0.111  0.471
 
band     9 # energy    2.82305478 # occ.  0.00000000
 
ion      s      p      d    tot
    1  0.012  0.003  0.017  0.032
    2  0.012  0.003  0.017  0.032
tot    0.024  0.006  0.035  0.064
 
band    10 # energy    3.35775978 # occ.  0.00000000
 
ion      s      p      d    tot
    1  0.004  0.044  0.004  0.051
    2  0.004  0.044  0.004  0.051
tot    0.008  0.088  0.008  0.103
 
band    11 # energy    4.48060697 # occ.  0.00000000
 
ion      s      p      d    tot
    1  0.014  0.080  0.017  0.111
    2  0.014  0.080  0.017  0.112
tot    0.029  0.161  0.033  0.223
 
band    12 # energy    5.21486016 # occ.  0.00000000
 
ion      s      p      d    tot
    1  0.021  0.021  0.025  0.068
    2  0.021  0.021  0.025  0.068
tot    0.043  0.043  0.050  0.135
 

 k-point     5 :    0.28571429-0.00000000 0.00000000     weight = 0.01020408

band     1 # energy  -16.18574303 # occ.  2.00000000
 
ion      s      p      d    tot
    1  0.256  0.029  0.002  0.288
    2  0.256  0.029  0.002  0.288
tot    0.513  0.058  0.004  0.575
 
band     2 # energy   -9.79267903 # occ.  2.00000000
 
ion      s      p      d    tot
    1  0.285  0.045  0.011  0.342
    2  0.285  0.045  0.011  0.342
tot    0.571  0.091  0.022  0.683
 
band     3 # energy   -7.45504230 # occ.  2.00000000
 
ion      s      p      d    tot
    1  0.011  0.204  0.010  0.226
    2  0.011  0.204  0.010  0.226
tot    0.023  0.409  0.021  0.452
 
band     4 # energy   -5.03340224 # occ.  2.00000000
 
ion      s      p      d    tot
    1  0.000  0.285  0.023  0.308
    2  0.000  0.285  0.023  0.308
tot    0.000  0.570  0.047  0.617
 
band     5 # energy   -3.44079809 # occ.  2.00000000
 
ion      s      p      d    tot
    1  0.031  0.235  0.002  0.267
    2  0.031  0.235  0.002  0.267
tot    0.061  0.469  0.004  0.535
 
band     6 # energy   -1.31854024 # occ.  0.00000000
 
ion      s      p      d    tot
    1  0.065  0.139  0.044  0.249
    2  0.065  0.139  0.044  0.249
tot    0.131  0.279  0.088  0.497
 
band     7 # energy    1.22948915 # occ.  0.00000000
 
ion      s      p      d    tot
    1  0.019  0.107  0.073  0.200
    2  0.019  0.107  0.073  0.200
tot    0.038  0.214  0.147  0.399
 
band     8 # energy    2.00272024 # occ.  0.00000000
 
ion      s      p      d    tot
    1  0.000  0.310  0.026  0.336
    2  0.000  0.310  0.026  0.336
tot    0.000  0.620  0.051  0.671
 
band     9 # energy    3.46205564 # occ.  0.00000000
 
ion      s      p      d    tot
    1  0.014  0.007  0.017  0.037
    2  0.014  0.007  0.017  0.037
tot    0.028  0.013  0.034  0.075
 
band    10 # energy    3.87397209 # occ.  0.00000000
 
ion      s      p      d    tot
    1  0.003  0.050  0.011  0.063
    2  0.003  0.050  0.011  0.063
tot    0.005  0.101  0.021  0.127
 
band    11 # energy    4.73273872 # occ.  0.00000000
 
ion      s      p      d    tot
    1  0.004  0.067  0.045  0.116
    2  0.004  0.067  0.045  0.116
tot    0.009  0.134  0.089  0.232
 
band    12 # energy    5.69623222 # occ.  0.00000000
 
ion      s      p      d    tot
    1  0.003  0.026  0.038  0.067
    2  0.003  0.026  0.038  0.067
tot    0.006  0.051  0.076  0.134
 

 k-point     6 :    0.35714286-0.00000000 0.00000000     weight = 0.01020408

band     1 # energy  -15.50677355 # occ.  2.00000000
 
ion      s      p      d    tot
    1  0.257  0.035  0.003  0.295
    2  0.257  0.035  0.003  0.295
tot    0.514  0.069  0.007  0.590
 
band     2 # energy  -10.75314046 # occ.  2.00000000
 
ion      s      p      d    tot
    1  0.246  0.072  0.012  0.329
    2  0.246  0.072  0.012  0.329
tot    0.491  0.143  0.023  0.658
 
band     3 # energy   -7.27970550 # occ.  2.00000000
 
ion      s      p      d    tot
    1  0.061  0.169  0.005  0.236
    2  0.061  0.169  0.005  0.236
tot    0.123  0.339  0.010  0.471
 
band     4 # energy   -5.36430362 # occ.  2.00000000
 
ion      s      p      d    tot
    1  0.000  0.283  0.021  0.303
    2  0.000  0.283  0.021  0.303
tot    0.000  0.566  0.041  0.607
 
band     5 # energy   -3.79177460 # occ.  2.00000000
 
ion      s      p      d    tot
    1  0.051  0.225  0.002  0.278
    2  0.051  0.225  0.002  0.278
tot    0.102  0.451  0.003  0.556
 
band     6 # energy   -1.44769681 # occ.  0.00000000
 
ion      s      p      d    tot
    1  0.054  0.130  0.052  0.236
    2  0.054  0.130  0.052  0.236
tot    0.109  0.259  0.104  0.473
 
band     7 # energy    0.55922659 # occ.  0.00000000
 
ion      s      p      d    tot
    1  0.010  0.112  0.068  0.191
    2  0.010  0.112  0.068  0.191
tot    0.021  0.224  0.136  0.381
 
band     8 # energy    2.02441879 # occ.  0.00000000
 
ion      s      p      d    tot
    1  0.000  0.295  0.029  0.324
    2  0.000  0.295  0.029  0.324
tot    0.000  0.590  0.058  0.649
 
band     9 # energy    3.79293690 # occ.  0.00000000
 
ion      s      p      d    tot
    1  0.005  0.078  0.076  0.159
    2  0.005  0.078  0.076  0.159
tot    0.009  0.156  0.152  0.317
 
band    10 # energy    4.31760861 # occ.  0.00000000
 
ion      s      p      d    tot
    1  0.013  0.007  0.012  0.032
    2  0.013  0.007  0.012  0.032
tot    0.025  0.014  0.024  0.064
 
band    11 # energy    5.03716607 # occ.  0.00000000
 
ion      s      p      d    tot
    1  0.000  0.014  0.018  0.032
    2  0.000  0.014  0.018  0.032
tot    0.000  0.028  0.035  0.063
 
band    12 # energy    6.30205223 # occ.  0.00000000
 
ion      s      p      d    tot
    1  0.003  0.024  0.020  0.047
    2  0.003  0.024  0.020  0.047
tot    0.006  0.049  0.040  0.094
 

 k-point     7 :    0.42857143-0.00000000 0.00000000     weight = 0.01020408

band     1 # energy  -14.77953659 # occ.  2.00000000
 
ion      s      p      d    tot
    1  0.263  0.038  0.005  0.306
    2  0.263  0.038  0.005  0.306
tot    0.525  0.076  0.010  0.612
 
band     2 # energy  -11.78558058 # occ.  2.00000000
 
ion      s      p      d    tot
    1  0.219  0.081  0.009  0.309
    2  0.219  0.081  0.009  0.309
tot    0.438  0.161  0.018  0.617
 
band     3 # energy   -6.79155849 # occ.  2.00000000
 
ion      s      p      d    tot
    1  0.096  0.158  0.003  0.257
    2  0.096  0.158  0.003  0.257
tot    0.193  0.316  0.005  0.514
 
band     4 # energy   -5.56958618 # occ.  2.00000000
 
ion      s      p      d    tot
    1  0.000  0.282  0.019  0.301
    2  0.000  0.282  0.019  0.301
tot    0.000  0.564  0.038  0.601
 
band     5 # energy   -4.37385220 # occ.  2.00000000
 
ion      s      p      d    tot
    1  0.054  0.208  0.003  0.265
    2  0.054  0.208  0.003  0.265
tot    0.109  0.416  0.006  0.530
 
band     6 # energy   -1.39402878 # occ.  0.00000000
 
ion      s      p      d    tot
    1  0.052  0.117  0.067  0.235
    2  0.052  0.117  0.067  0.235
tot    0.104  0.234  0.133  0.471
 
band     7 # energy    0.23785882 # occ.  0.00000000
 
ion      s      p      d    tot
    1  0.004  0.147  0.051  0.202
    2  0.004  0.147  0.051  0.202
tot    0.008  0.295  0.102  0.404
 
band     8 # energy    1.98230329 # occ.  0.00000000
 
ion      s      p      d    tot
    1  0.000  0.284  0.032  0.316
    2  0.000  0.284  0.032  0.316
tot    0.000  0.568  0.064  0.632
 
band     9 # energy    3.29701203 # occ.  0.00000000
 
ion      s      p      d    tot
    1  0.002  0.050  0.092  0.143
    2  0.002  0.050  0.092  0.143
tot    0.004  0.100  0.183  0.286
 
band    10 # energy    5.30959216 # occ.  0.00000000
 
ion      s      p      d    tot
    1  0.013  0.007  0.015  0.036
    2  0.013  0.007  0.015  0.036
tot    0.027  0.014  0.031  0.072
 
band    11 # energy    5.91663026 # occ.  0.00000000
 
ion      s      p      d    tot
    1  0.001  0.017  0.009  0.027
    2  0.001  0.017  0.009  0.027
tot    0.003  0.033  0.017  0.053
 
band    12 # energy    6.96364458 # occ.  0.00000000
 
ion      s      p      d    tot
    1  0.013  0.020  0.024  0.057
    2  0.013  0.020  0.024  0.057
tot    0.025  0.041  0.047  0.113
 

 k-point     8 :    0.50000000-0.00000000 0.00000000     weight = 0.00510204

band     1 # energy  -14.35911548 # occ.  2.00000000
 
ion      s      p      d    tot
    1  0.273  0.037  0.007  0.316
    2  0.273  0.037  0.007  0.316
tot    0.545  0.073  0.013  0.631
 
band     2 # energy  -12.32098044 # occ.  2.00000000
 
ion      s      p      d    tot
    1  0.204  0.085  0.007  0.296
    2  0.204  0.085  0.007  0.296
tot    0.407  0.170  0.014  0.591
 
band     3 # energy   -6.49084870 # occ.  2.00000000
 
ion      s      p      d    tot
    1  0.115  0.156  0.001  0.272
    2  0.115  0.156  0.001  0.272
tot    0.229  0.311  0.003  0.544
 
band     4 # energy   -5.63899444 # occ.  2.00000000
 
ion      s      p      d    tot
    1  0.000  0.281  0.018  0.300
    2  0.000  0.281  0.018  0.300
tot    0.000  0.563  0.036  0.599
 
band     5 # energy   -4.71505181 # occ.  2.00000000
 
ion      s      p      d    tot
    1  0.046  0.201  0.004  0.251
    2  0.046  0.201  0.004  0.251
tot    0.092  0.402  0.008  0.502
 
band     6 # energy   -1.36603293 # occ.  0.00000000
 
ion      s      p      d    tot
    1  0.053  0.106  0.075  0.234
    2  0.053  0.106  0.075  0.234
tot    0.107  0.213  0.149  0.468
 
band     7 # energy    0.17691153 # occ.  0.00000000
 
ion      s      p      d    tot
    1  0.001  0.172  0.041  0.214
    2  0.001  0.172  0.041  0.214
tot    0.002  0.345  0.081  0.428
 
band     8 # energy    1.96013321 # occ.  0.00000000
 
ion      s      p      d    tot
    1  0.000  0.280  0.033  0.313
    2  0.000  0.280  0.033  0.313
tot    0.000  0.561  0.066  0.627
 
band     9 # energy    3.06627470 # occ.  0.00000000
 
ion      s      p      d    tot
    1  0.001  0.033  0.095  0.129
    2  0.001  0.033  0.095  0.129
tot    0.001  0.067  0.190  0.258
 
band    10 # energy    6.39010768 # occ.  0.00000000
 
ion      s      p      d    tot
    1  0.023  0.014  0.023  0.059
    2  0.023  0.014  0.023  0.059
tot    0.046  0.027  0.045  0.118
 
band    11 # energy    6.40183243 # occ.  0.00000000
 
ion      s      p      d    tot
    1  0.012  0.006  0.023  0.041
    2  0.012  0.006  0.023  0.041
tot    0.024  0.013  0.046  0.083
 
band    12 # energy    6.85165221 # occ.  0.00000000
 
ion      s      p      d    tot
    1  0.000  0.031  0.006  0.037
    2  0.000  0.031  0.006  0.037
tot    0.000  0.063  0.012  0.075
 

 k-point     9 :    0.07142857 0.07142857 0.00000000     weight = 0.01020408

band     1 # energy  -17.22376032 # occ.  2.00000000
 
ion      s      p      d    tot
    1  0.260  0.018  0.001  0.279
    2  0.260  0.018  0.001  0.279
tot    0.519  0.037  0.001  0.557
 
band     2 # energy   -9.60430100 # occ.  2.00000000
 
ion      s      p      d    tot
    1  0.227  0.047  0.004  0.278
    2  0.227  0.047  0.004  0.278
tot    0.454  0.095  0.007  0.556
 
band     3 # energy   -5.08057007 # occ.  2.00000000
 
ion      s      p      d    tot
    1  0.034  0.251  0.029  0.314
    2  0.034  0.251  0.029  0.314
tot    0.068  0.502  0.058  0.628
 
band     4 # energy   -4.08304798 # occ.  2.00000000
 
ion      s      p      d    tot
    1  0.001  0.291  0.031  0.323
    2  0.001  0.291  0.031  0.323
tot    0.002  0.582  0.062  0.647
 
band     5 # energy   -3.62879380 # occ.  2.00000000
 
ion      s      p      d    tot
    1  0.007  0.211  0.004  0.222
    2  0.007  0.211  0.004  0.222
tot    0.014  0.423  0.008  0.444
 
band     6 # energy    0.30754121 # occ.  0.00000000
 
ion      s      p      d    tot
    1  0.020  0.242  0.040  0.302
    2  0.020  0.242  0.040  0.302
tot    0.040  0.483  0.080  0.603
 
band     7 # energy    0.66050677 # occ.  0.00000000
 
ion      s      p      d    tot
    1  0.058  0.223  0.042  0.322
    2  0.058  0.223  0.042  0.322
tot    0.116  0.445  0.084  0.645
 
band     8 # energy    1.97798089 # occ.  0.00000000
 
ion      s      p      d    tot
    1  0.099  0.190  0.013  0.301
    2  0.099  0.190  0.013  0.301
tot    0.198  0.380  0.026  0.603
 
band     9 # energy    2.37447508 # occ.  0.00000000
 
ion      s      p      d    tot
    1  0.005  0.053  0.038  0.096
    2  0.005  0.053  0.038  0.096
tot    0.010  0.107  0.076  0.192
 
band    10 # energy    2.71094690 # occ.  0.00000000
 
ion      s      p      d    tot
    1  0.003  0.020  0.003  0.026
    2  0.003  0.020  0.003  0.026
tot    0.005  0.040  0.007  0.052
 
band    11 # energy    3.96617919 # occ.  0.00000000
 
ion      s      p      d    tot
    1  0.005  0.026  0.018  0.049
    2  0.005  0.026  0.018  0.049
tot    0.011  0.052  0.035  0.098
 
band    12 # energy    4.71679294 # occ.  0.00000000
 
ion      s      p      d    tot
    1  0.007  0.000  0.024  0.031
    2  0.007  0.000  0.024  0.031
tot    0.014  0.001  0.048  0.063
 

 k-point    10 :    0.14285714 0.07142857 0.00000000     weight = 0.02040816

band     1 # energy  -16.89930476 # occ.  2.00000000
 
ion      s      p      d    tot
    1  0.258  0.022  0.001  0.281
    2  0.258  0.022  0.001  0.281
tot    0.516  0.044  0.002  0.563
 
band     2 # energy   -9.46709954 # occ.  2.00000000
 
ion      s      p      d    tot
    1  0.255  0.039  0.005  0.298
    2  0.255  0.039  0.005  0.298
tot    0.509  0.078  0.010  0.597
 
band     3 # energy   -6.26955822 # occ.  2.00000000
 
ion      s      p      d    tot
    1  0.025  0.235  0.024  0.284
    2  0.025  0.235  0.024  0.284
tot    0.051  0.470  0.048  0.568
 
band     4 # energy   -4.68349223 # occ.  2.00000000
 
ion      s      p      d    tot
    1  0.004  0.276  0.028  0.308
    2  0.004  0.276  0.028  0.308
tot    0.007  0.551  0.056  0.615
 
band     5 # energy   -3.48597440 # occ.  2.00000000
 
ion      s      p      d    tot
    1  0.011  0.220  0.004  0.235
    2  0.011  0.220  0.004  0.235
tot    0.021  0.441  0.008  0.469
 
band     6 # energy   -0.14756044 # occ.  0.00000000
 
ion      s      p      d    tot
    1  0.048  0.206  0.038  0.292
    2  0.048  0.206  0.038  0.292
tot    0.097  0.412  0.076  0.584
 
band     7 # energy    1.15575854 # occ.  0.00000000
 
ion      s      p      d    tot
    1  0.031  0.262  0.034  0.327
    2  0.031  0.262  0.034  0.327
tot    0.061  0.524  0.068  0.653
 
band     8 # energy    2.47671858 # occ.  0.00000000
 
ion      s      p      d    tot
    1  0.057  0.156  0.018  0.230
    2  0.057  0.156  0.018  0.230
tot    0.113  0.312  0.035  0.460
 
band     9 # energy    2.70659488 # occ.  0.00000000
 
ion      s      p      d    tot
    1  0.001  0.040  0.037  0.079
    2  0.001  0.040  0.037  0.079
tot    0.003  0.081  0.074  0.158
 
band    10 # energy    3.09581132 # occ.  0.00000000
 
ion      s      p      d    tot
    1  0.010  0.065  0.012  0.088
    2  0.010  0.065  0.012  0.088
tot    0.021  0.131  0.025  0.176
 
band    11 # energy    4.02085865 # occ.  0.00000000
 
ion      s      p      d    tot
    1  0.010  0.040  0.061  0.111
    2  0.010  0.040  0.061  0.111
tot    0.020  0.080  0.121  0.222
 
band    12 # energy    4.94846961 # occ.  0.00000000
 
ion      s      p      d    tot
    1  0.005  0.027  0.064  0.097
    2  0.005  0.027  0.064  0.097
tot    0.010  0.055  0.129  0.194
 

 k-point    11 :    0.21428571 0.07142857 0.00000000     weight = 0.02040816

band     1 # energy  -16.42011965 # occ.  2.00000000
 
ion      s      p      d    tot
    1  0.257  0.027  0.002  0.285
    2  0.257  0.027  0.002  0.285
tot    0.514  0.054  0.004  0.571
 
band     2 # energy   -9.54022571 # occ.  2.00000000
 
ion      s      p      d    tot
    1  0.292  0.034  0.009  0.335
    2  0.292  0.034  0.009  0.335
tot    0.584  0.068  0.017  0.669
 
band     3 # energy   -7.21987805 # occ.  2.00000000
 
ion      s      p      d    tot
    1  0.002  0.222  0.015  0.239
    2  0.002  0.222  0.015  0.239
tot    0.004  0.444  0.031  0.478
 
band     4 # energy   -5.23541143 # occ.  2.00000000
 
ion      s      p      d    tot
    1  0.006  0.266  0.025  0.297
    2  0.006  0.266  0.025  0.297
tot    0.012  0.533  0.050  0.594
 
band     5 # energy   -3.38981899 # occ.  2.00000000
 
ion      s      p      d    tot
    1  0.020  0.233  0.003  0.256
    2  0.020  0.233  0.003  0.256
tot    0.040  0.466  0.006  0.512
 
band     6 # energy   -0.67783392 # occ.  0.00000000
 
ion      s      p      d    tot
    1  0.058  0.175  0.038  0.271
    2  0.058  0.175  0.038  0.271
tot    0.116  0.351  0.076  0.543
 
band     7 # energy    1.56472935 # occ.  0.00000000
 
ion      s      p      d    tot
    1  0.022  0.254  0.032  0.309
    2  0.022  0.254  0.032  0.309
tot    0.044  0.509  0.065  0.618
 
band     8 # energy    1.86517759 # occ.  0.00000000
 
ion      s      p      d    tot
    1  0.015  0.156  0.066  0.237
    2  0.015  0.156  0.066  0.237
tot    0.031  0.312  0.131  0.474
 
band     9 # energy    3.18860816 # occ.  0.00000000
 
ion      s      p      d    tot
    1  0.014  0.006  0.016  0.036
    2  0.014  0.006  0.016  0.036
tot    0.027  0.012  0.033  0.072
 
band    10 # energy    3.64559460 # occ.  0.00000000
 
ion      s      p      d    tot
    1  0.003  0.054  0.010  0.067
    2  0.003  0.054  0.010  0.067
tot    0.007  0.108  0.019  0.134
 
band    11 # energy    4.47161356 # occ.  0.00000000
 
ion      s      p      d    tot
    1  0.010  0.081  0.056  0.148
    2  0.010  0.081  0.056  0.148
tot    0.020  0.162  0.113  0.295
 
band    12 # energy    5.39402026 # occ.  0.00000000
 
ion      s      p      d    tot
    1  0.009  0.034  0.045  0.088
    2  0.009  0.034  0.045  0.088
tot    0.017  0.069  0.090  0.176
 

 k-point    12 :    0.28571429 0.07142857 0.00000000     weight = 0.02040816

band     1 # energy  -15.80048752 # occ.  2.00000000
 
ion      s      p      d    tot
    1  0.256  0.033  0.003  0.292
    2  0.256  0.033  0.003  0.292
tot    0.512  0.065  0.006  0.583
 
band     2 # energy  -10.24342595 # occ.  2.00000000
 
ion      s      p      d    tot
    1  0.269  0.060  0.012  0.341
    2  0.269  0.060  0.012  0.341
tot    0.538  0.120  0.024  0.681
 
band     3 # energy   -7.38762179 # occ.  2.00000000
 
ion      s      p      d    tot
    1  0.037  0.185  0.007  0.228
    2  0.037  0.185  0.007  0.228
tot    0.073  0.369  0.014  0.456
 
band     4 # energy   -5.66005141 # occ.  2.00000000
 
ion      s      p      d    tot
    1  0.006  0.261  0.022  0.289
    2  0.006  0.261  0.022  0.289
tot    0.012  0.523  0.044  0.579
 
band     5 # energy   -3.53844214 # occ.  2.00000000
 
ion      s      p      d    tot
    1  0.038  0.237  0.002  0.277
    2  0.038  0.237  0.002  0.277
tot    0.075  0.475  0.004  0.553
 
band     6 # energy   -0.97933178 # occ.  0.00000000
 
ion      s      p      d    tot
    1  0.052  0.156  0.042  0.250
    2  0.052  0.156  0.042  0.250
tot    0.104  0.311  0.084  0.499
 
band     7 # energy    1.03032188 # occ.  0.00000000
 
ion      s      p      d    tot
    1  0.015  0.116  0.075  0.206
    2  0.015  0.116  0.075  0.206
tot    0.029  0.232  0.150  0.412
 
band     8 # energy    1.70269982 # occ.  0.00000000
 
ion      s      p      d    tot
    1  0.009  0.262  0.031  0.302
    2  0.009  0.262  0.031  0.302
tot    0.017  0.525  0.061  0.603
 
band     9 # energy    3.88253995 # occ.  0.00000000
 
ion      s      p      d    tot
    1  0.014  0.029  0.031  0.074
    2  0.014  0.029  0.031  0.074
tot    0.028  0.057  0.063  0.147
 
band    10 # energy    4.11764853 # occ.  0.00000000
 
ion      s      p      d    tot
    1  0.002  0.076  0.026  0.104
    2  0.002  0.076  0.026  0.104
tot    0.005  0.152  0.052  0.209
 
band    11 # energy    4.81637661 # occ.  0.00000000
 
ion      s      p      d    tot
    1  0.001  0.037  0.036  0.074
    2  0.001  0.037  0.036  0.074
tot    0.002  0.074  0.072  0.148
 
band    12 # energy    6.00532472 # occ.  0.00000000
 
ion      s      p      d    tot
    1  0.001  0.025  0.030  0.056
    2  0.001  0.025  0.030  0.056
tot    0.002  0.051  0.060  0.112
 

 k-point    13 :    0.35714286 0.07142857 0.00000000     weight = 0.02040816

band     1 # energy  -15.08012422 # occ.  2.00000000
 
ion      s      p      d    tot
    1  0.259  0.037  0.004  0.300
    2  0.259  0.037  0.004  0.300
tot    0.517  0.075  0.009  0.601
 
band     2 # energy  -11.28892962 # occ.  2.00000000
 
ion      s      p      d    tot
    1  0.235  0.076  0.010  0.321
    2  0.235  0.076  0.010  0.321
tot    0.470  0.152  0.021  0.642
 
band     3 # energy   -7.02955190 # occ.  2.00000000
 
ion      s      p      d    tot
    1  0.082  0.163  0.004  0.249
    2  0.082  0.163  0.004  0.249
tot    0.163  0.327  0.009  0.498
 
band     4 # energy   -5.90922744 # occ.  2.00000000
 
ion      s      p      d    tot
    1  0.003  0.259  0.020  0.282
    2  0.003  0.259  0.020  0.282
tot    0.007  0.518  0.040  0.564
 
band     5 # energy   -4.02952962 # occ.  2.00000000
 
ion      s      p      d    tot
    1  0.051  0.223  0.002  0.276
    2  0.051  0.223  0.002  0.276
tot    0.101  0.445  0.005  0.551
 
band     6 # energy   -0.95775806 # occ.  0.00000000
 
ion      s      p      d    tot
    1  0.046  0.148  0.052  0.246
    2  0.046  0.148  0.052  0.246
tot    0.091  0.296  0.104  0.491
 
band     7 # energy    0.43979251 # occ.  0.00000000
 
ion      s      p      d    tot
    1  0.009  0.137  0.063  0.209
    2  0.009  0.137  0.063  0.209
tot    0.017  0.274  0.126  0.417
 