<?xml version="1.0" encoding="ISO-8859-1"?>
<modeling>
 <generator>
  <i name="program" type="string">vasp </i>
  <i name="version" type="string">6.4.2  </i>
  <i name="subversion" type="string">20Jul23 (build Nov 14 2023 12:59:38) complex                          parallel </i>
  <i name="platform" type="string">LinuxIFC </i>
  <i name="date" type="string">2023 12 16 </i>
  <i name="time" type="string">19:15:10 </i>
 </generator>
 <incar>
  <i type="string" name="PREC">Accurate</i>
  <i type="string" name="ALGO">Normal</i>
  <i type="logical" name="ADDGRID"> T  </i>
  <i type="int" name="ISPIN">     1</i>
  <i name="AMIX">      0.10000000</i>
  <i name="BMIX">      0.00010000</i>
  <i type="int" name="NELM">   200</i>
  <i type="int" name="NELMDL">   -12</i>
  <i type="int" name="NELMIN">     6</i>
  <i type="int" name="IBRION">     2</i>
  <i name="EDIFF">      0.00000100</i>
  <i name="EDIFFG">     -0.01000000</i>
  <i type="int" name="NSW">    30</i>
  <i type="int" name="ISIF">     3</i>
  <i name="ENCUT">    510.08000000</i>
  <i name="POTIM">      0.50000000</i>
  <i type="int" name="NEDOS">  6001</i>
  <i type="logical" name="LPLANE"> T  </i>
  <i type="int" name="ISMEAR">     0</i>
  <i name="SIGMA">      0.01000000</i>
  <i type="int" name="NWRITE">     1</i>
  <i type="logical" name="LWAVE"> F  </i>
  <i type="logical" name="LCHARG"> F  </i>
  <i type="int" name="LORBIT">    10</i>
  <i type="logical" name="LASPH"> T  </i>
  <i type="int" name="IVDW">     0</i>
 </incar>
 <primitive_cell>
  <structure name="primitive_cell" >
   <crystal>
    <varray name="basis" >
     <v>       3.28234349       0.00000000       0.00000000 </v>
     <v>      -1.64117175       2.84259285       0.00000000 </v>
     <v>       0.00000000       0.00000000      16.00000000 </v>
    </varray>
    <i name="volume">    149.28585836 </i>
    <varray name="rec_basis" >
     <v>       0.30466038       0.17589575       0.00000000 </v>
     <v>       0.00000000       0.35179150       0.00000000 </v>
     <v>       0.00000000       0.00000000       0.06250000 </v>
    </varray>
   </crystal>
   <varray name="positions" >
    <v>       0.66666667       0.33333333       0.46118284 </v>
    <v>       0.33333333       0.66666667       0.53881716 </v>
   </varray>
  </structure>
  <varray name="primitive_index" >
   <v type="int" >        1 </v>
   <v type="int" >        2 </v>
  </varray>
 </primitive_cell>
 <kpoints>
  <generation param="Auto">
   <i name="subdivisionlength">     40.00000000 </i>
   <v type="int" name="divisions">      14       14        3 </v>
   <v name="usershift">      0.00000000       0.00000000       0.00000000 </v>
   <v name="genvec1">      0.07142857       0.00000000       0.00000000 </v>
   <v name="genvec2">      0.00000000       0.07142857       0.00000000 </v>
   <v name="genvec3">      0.00000000       0.00000000       0.33333333 </v>
   <v name="shift">      0.00000000       0.00000000       0.00000000 </v>
  </generation>
  <varray name="kpointlist" >
   <v>       0.00000000       0.00000000       0.00000000 </v>
   <v>       0.07142857      -0.00000000       0.00000000 </v>
   <v>       0.14285714       0.00000000       0.00000000 </v>
   <v>       0.21428571      -0.00000000       0.00000000 </v>
   <v>       0.28571429      -0.00000000       0.00000000 </v>
   <v>       0.35714286      -0.00000000       0.00000000 </v>
   <v>       0.42857143      -0.00000000       0.00000000 </v>
   <v>       0.50000000      -0.00000000       0.00000000 </v>
   <v>       0.07142857       0.07142857       0.00000000 </v>
   <v>       0.14285714       0.07142857       0.00000000 </v>
   <v>       0.21428571       0.07142857       0.00000000 </v>
   <v>       0.28571429       0.07142857       0.00000000 </v>
   <v>       0.35714286       0.07142857       0.00000000 </v>
   <v>       0.42857143       0.07142857       0.00000000 </v>
   <v>       0.14285714       0.14285714       0.00000000 </v>
   <v>       0.21428571       0.14285714       0.00000000 </v>
   <v>       0.28571429       0.14285714       0.00000000 </v>
   <v>       0.35714286       0.14285714       0.00000000 </v>
   <v>       0.42857143       0.14285714       0.00000000 </v>
   <v>       0.21428571       0.21428571       0.00000000 </v>
   <v>       0.28571429       0.21428571       0.00000000 </v>
   <v>       0.35714286       0.21428571       0.00000000 </v>
   <v>       0.28571429       0.28571429       0.00000000 </v>
   <v>       0.35714286       0.28571429       0.00000000 </v>
   <v>       0.00000000       0.00000000       0.33333333 </v>
   <v>       0.07142857      -0.00000000       0.33333333 </v>
   <v>       0.00000000       0.07142857       0.33333333 </v>
   <v>       0.14285714       0.00000000       0.33333333 </v>
   <v>       0.00000000       0.14285714       0.33333333 </v>
   <v>       0.21428571      -0.00000000       0.33333333 </v>
   <v>       0.00000000       0.21428571       0.33333333 </v>
   <v>       0.28571429      -0.00000000       0.33333333 </v>
   <v>       0.00000000       0.28571429       0.33333333 </v>
   <v>       0.35714286      -0.00000000       0.33333333 </v>
   <v>       0.00000000       0.35714286       0.33333333 </v>
   <v>       0.42857143      -0.00000000       0.33333333 </v>
   <v>       0.00000000       0.42857143       0.33333333 </v>
   <v>       0.50000000      -0.00000000       0.33333333 </v>
   <v>       0.07142857       0.07142857       0.33333333 </v>
   <v>       0.14285714       0.07142857       0.33333333 </v>
   <v>      -0.07142857       0.21428571       0.33333333 </v>
   <v>       0.21428571       0.07142857       0.33333333 </v>
   <v>      -0.07142857       0.28571429       0.33333333 </v>
   <v>       0.28571429       0.07142857       0.33333333 </v>
   <v>      -0.07142857       0.35714286       0.33333333 </v>
   <v>       0.35714286       0.07142857       0.33333333 </v>
   <v>      -0.07142857       0.42857143       0.33333333 </v>
   <v>       0.42857143       0.07142857       0.33333333 </v>
   <v>      -0.07142857       0.50000000       0.33333333 </v>
   <v>       0.14285714       0.14285714       0.33333333 </v>
   <v>       0.21428571       0.14285714       0.33333333 </v>
   <v>      -0.14285714       0.35714286       0.33333333 </v>
   <v>       0.28571429       0.14285714       0.33333333 </v>
   <v>      -0.14285714       0.42857143       0.33333333 </v>
   <v>       0.35714286       0.14285714       0.33333333 </v>
   <v>      -0.14285714       0.50000000       0.33333333 </v>
   <v>       0.42857143       0.14285714       0.33333333 </v>
   <v>       0.21428571       0.21428571       0.33333333 </v>
   <v>       0.28571429       0.21428571       0.33333333 </v>
   <v>      -0.21428571       0.50000000       0.33333333 </v>
   <v>       0.35714286       0.21428571       0.33333333 </v>
   <v>      -0.21428571      -0.42857143       0.33333333 </v>
   <v>       0.28571429       0.28571429       0.33333333 </v>
   <v>       0.35714286       0.28571429       0.33333333 </v>
  </varray>
  <varray name="weights" >
   <v>       0.00170068 </v>
   <v>       0.01020408 </v>
   <v>       0.01020408 </v>
   <v>       0.01020408 </v>
   <v>       0.01020408 </v>
   <v>       0.01020408 </v>
   <v>       0.01020408 </v>
   <v>       0.00510204 </v>
   <v>       0.01020408 </v>
   <v>       0.02040816 </v>
   <v>       0.02040816 </v>
   <v>       0.02040816 </v>
   <v>       0.02040816 </v>
   <v>       0.02040816 </v>
   <v>       0.01020408 </v>
   <v>       0.02040816 </v>
   <v>       0.02040816 </v>
   <v>       0.02040816 </v>
   <v>       0.01020408 </v>
   <v>       0.01020408 </v>
   <v>       0.02040816 </v>
   <v>       0.02040816 </v>
   <v>       0.01020408 </v>
   <v>       0.01020408 </v>
   <v>       0.00340136 </v>
   <v>       0.01020408 </v>
   <v>       0.01020408 </v>
   <v>       0.01020408 </v>
   <v>       0.01020408 </v>
   <v>       0.01020408 </v>
   <v>       0.01020408 </v>
   <v>       0.01020408 </v>
   <v>       0.01020408 </v>
   <v>       0.01020408 </v>
   <v>       0.01020408 </v>
   <v>       0.01020408 </v>
   <v>       0.01020408 </v>
   <v>       0.01020408 </v>
   <v>       0.02040816 </v>
   <v>       0.02040816 </v>
   <v>       0.02040816 </v>
   <v>       0.02040816 </v>
   <v>       0.02040816 </v>
   <v>       0.02040816 </v>
   <v>       0.02040816 </v>
   <v>       0.02040816 </v>
   <v>       0.02040816 </v>
   <v>       0.02040816 </v>
   <v>       0.02040816 </v>
   <v>       0.02040816 </v>
   <v>       0.02040816 </v>
   <v>       0.02040816 </v>
   <v>       0.02040816 </v>
   <v>       0.02040816 </v>
   <v>       0.02040816 </v>
   <v>       0.02040816 </v>
   <v>       0.02040816 </v>
   <v>       0.02040816 </v>
   <v>       0.02040816 </v>
   <v>       0.02040816 </v>
   <v>       0.02040816 </v>
   <v>       0.02040816 </v>
   <v>       0.02040816 </v>
   <v>       0.02040816 </v>
  </varray>
 </kpoints>
 <parameters>
  <separator name="general" >
   <i type="string" name="SYSTEM">unknown system</i>
   <i type="logical" name="LCOMPAT"> F  </i>
  </separator>
  <separator name="electronic" >
   <i type="string" name="PREC">accura</i>
   <i name="ENMAX">    510.08000000</i>
   <i name="ENAUG">    499.73200000</i>
   <i name="EDIFF">      0.00000100</i>
   <i type="int" name="IALGO">    38</i>
   <i type="int" name="IWAVPR">    11</i>
   <i type="int" name="NBANDS">    12</i>
   <i type="int" name="NBANDSLOW">    -1</i>
   <i type="int" name="NBANDSHIGH">    -1</i>
   <i name="NELECT">     10.00000000</i>
   <i type="int" name="TURBO">     0</i>
   <i type="int" name="IRESTART">     0</i>
   <i type="int" name="NREBOOT">     0</i>
   <i type="int" name="NMIN">     0</i>
   <i name="EREF">      0.00000000</i>
   <separator name="electronic smearing" >
    <i type="int" name="ISMEAR">     0</i>
    <i name="SIGMA">      0.01000000</i>
    <i name="KSPACING">      0.50000000</i>
    <i type="logical" name="KGAMMA"> T  </i>
    <i type="logical" name="KBLOWUP"> T  </i>
   </separator>
   <separator name="electronic projectors" >
    <i type="logical" name="LREAL"> F  </i>
    <v name="ROPT">      0.00000000</v>
    <i type="int" name="LMAXPAW">  -100</i>
    <i type="int" name="LMAXMIX">     2</i>
    <i type="logical" name="NLSPLINE"> F  </i>
   </separator>
   <separator name="electronic startup" >
    <i type="int" name="ISTART">     0</i>
    <i type="int" name="ICHARG">     2</i>
    <i type="int" name="INIWAV">     1</i>
   </separator>
   <separator name="electronic spin" >
    <i type="int" name="ISPIN">     1</i>
    <i type="logical" name="LNONCOLLINEAR"> F  </i>
    <v name="MAGMOM">      1.00000000      1.00000000</v>
    <i name="NUPDOWN">     -1.00000000</i>
    <i type="logical" name="LSORBIT"> F  </i>
    <v name="SAXIS">      0.00000000      0.00000000      1.00000000</v>
    <i type="logical" name="LSPIRAL"> F  </i>
    <v name="QSPIRAL">      0.00000000      0.00000000      0.00000000</v>
    <i type="logical" name="LZEROZ"> F  </i>
   </separator>
   <separator name="electronic exchange-correlation" >
    <i type="logical" name="LASPH"> T  </i>
    <i type="logical" name="LMETAGGA"> F  </i>
   </separator>
   <separator name="electronic convergence" >
    <i type="int" name="NELM">   200</i>
    <i type="int" name="NELMDL">   -12</i>
    <i type="int" name="NELMIN">     6</i>
    <i name="ENINI">    510.08000000</i>
    <separator name="electronic convergence detail" >
     <i type="logical" name="LDIAG"> T  </i>
     <i type="logical" name="LSUBROT"> F  </i>
     <i name="WEIMIN">      0.00100000</i>
     <i name="EBREAK">      0.00000002</i>
     <i name="DEPER">      0.30000000</i>
     <i type="int" name="NRMM">     4</i>
     <i name="TIME">      0.40000000</i>
    </separator>
   </separator>
   <separator name="electronic mixer" >
    <i name="AMIX">      0.10000000</i>
    <i name="BMIX">      0.00010000</i>
    <i name="AMIN">      0.10000000</i>
    <i name="AMIX_MAG">      0.40000000</i>
    <i name="BMIX_MAG">      0.00010000</i>
    <separator name="electronic mixer details" >
     <i type="int" name="IMIX">     4</i>
     <i type="logical" name="MIXFIRST"> F  </i>
     <i type="int" name="MAXMIX">   -45</i>
     <i name="WC">    100.00000000</i>
     <i type="int" name="INIMIX">     1</i>
     <i type="int" name="MIXPRE">     1</i>
     <i type="int" name="MREMOVE">     5</i>
    </separator>
   </separator>
   <separator name="electronic dipolcorrection" >
    <i type="logical" name="LDIPOL"> F  </i>
    <i type="logical" name="LMONO"> F  </i>
    <i type="int" name="IDIPOL">     0</i>
    <i name="EPSILON">      1.00000000</i>
    <v name="DIPOL">   -100.00000000   -100.00000000   -100.00000000</v>
    <i name="EFIELD">      0.00000000</i>
   </separator>
  </separator>
  <separator name="grids" >
   <i type="int" name="NGX">    24</i>
   <i type="int" name="NGY">    24</i>
   <i type="int" name="NGZ">   120</i>
   <i type="int" name="NGXF">    48</i>
   <i type="int" name="NGYF">    48</i>
   <i type="int" name="NGZF">   240</i>
   <i type="logical" name="ADDGRID"> T  </i>
  </separator>
  <separator name="ionic" >
   <i type="int" name="NSW">    30</i>
   <i type="int" name="IBRION">     2</i>
   <i type="int" name="MDALGO">     0</i>
   <i type="int" name="ISIF">     3</i>
   <i name="PSTRESS">      0.00000000</i>
   <i name="EDIFFG">     -0.01000000</i>
   <i type="int" name="NFREE">     1</i>
   <i name="POTIM">      0.50000000</i>
   <i name="SMASS">     -3.00000000</i>
   <i name="SCALEE">      1.00000000</i>
  </separator>
  <separator name="ionic md" >
   <i name="TEBEG">      0.00010000</i>
   <i name="TEEND">      0.00010000</i>
   <i type="int" name="NBLOCK">     1</i>
   <i type="int" name="KBLOCK">    30</i>
   <i type="int" name="NPACO">   256</i>
   <i name="APACO">     10.00000000</i>
  </separator>
  <separator name="symmetry" >
   <i type="int" name="ISYM">     2</i>
   <i name="SYMPREC">      0.00001000</i>
  </separator>
  <separator name="dos" >
   <i type="int" name="LORBIT">    10</i>
   <v name="RWIGS">     -1.00000000</v>
   <i type="int" name="NEDOS">  6001</i>
   <i name="EMIN">     10.00000000</i>
   <i name="EMAX">    -10.00000000</i>
   <i name="EFERMI">      0.00000000</i>
  </separator>
  <separator name="writing" >
   <i type="int" name="NWRITE">     1</i>
   <i type="logical" name="LWAVE"> F  </i>
   <i type="logical" name="LDOWNSAMPLE"> F  </i>
   <i type="logical" name="LCHARG"> F  </i>
   <i type="logical" name="LPARD"> F  </i>
   <i type="logical" name="LVTOT"> F  </i>
   <i type="logical" name="LVHAR"> F  </i>
   <i type="logical" name="LELF"> F  </i>
   <i type="logical" name="LOPTICS"> F  </i>
   <v name="STM">      0.00000000      0.00000000      0.00000000      0.00000000      0.00000000      0.00000000      0.00000000</v>
  </separator>
  <separator name="performance" >
   <i type="int" name="NPAR">     4</i>
   <i type="int" name="NSIM">     4</i>
   <i type="int" name="NBLK">    -1</i>
   <i type="logical" name="LPLANE"> T  </i>
   <i type="logical" name="LSCALAPACK"> T  </i>
   <i type="logical" name="LSCAAWARE"> F  </i>
   <i type="logical" name="LSCALU"> F  </i>
   <i type="logical" name="LASYNC"> F  </i>
   <i type="logical" name="LORBITALREAL"> F  </i>
  </separator>
  <separator name="miscellaneous" >
   <i type="int" name="IDIOT">     3</i>
   <i type="int" name="PHON_NSTRUCT">    -1</i>
   <i type="logical" name="LMUSIC"> F  </i>
   <v name="POMASS">     30.97400000</v>
   <v name="DARWINR">      0.00000000</v>
   <v name="DARWINV">      1.00000000</v>
   <i type="logical" name="LCORR"> T  </i>
  </separator>
  <i type="logical" name="GGA_COMPAT"> T  </i>
  <i type="logical" name="LBERRY"> F  </i>
  <i type="int" name="ICORELEVEL">     0</i>
  <i type="logical" name="LDAU"> F  </i>
  <i type="int" name="I_CONSTRAINED_M">     0</i>
  <separator name="electronic exchange-correlation" >
   <i type="string" name="GGA">--</i>
   <i type="int" name="VOSKOWN">     0</i>
   <i type="logical" name="LHFCALC"> F  </i>
   <i type="string" name="PRECFOCK"></i>
   <i type="logical" name="LSYMGRAD"> F  </i>
   <i type="logical" name="LHFONE"> F  </i>
   <i type="logical" name="LRHFCALC"> F  </i>
   <i type="logical" name="LTHOMAS"> F  </i>
   <i type="logical" name="LMODELHF"> F  </i>
   <i type="logical" name="LFOCKACE"> F  </i>
   <i name="ENCUT4O">     -1.00000000</i>
   <i type="int" name="EXXOEP">     0</i>
   <i type="int" name="FOURORBIT">     0</i>
   <i name="AEXX">      0.00000000</i>
   <i name="HFALPHA">      0.00000000</i>
   <i name="MCALPHA">      0.00000000</i>
   <i name="ALDAX">      1.00000000</i>
   <i name="AGGAX">      1.00000000</i>
   <i name="ALDAC">      1.00000000</i>
   <i name="AGGAC">      1.00000000</i>
   <i type="int" name="NKREDX">     1</i>
   <i type="int" name="NKREDY">     1</i>
   <i type="int" name="NKREDZ">     1</i>
   <i type="logical" name="SHIFTRED"> F  </i>
   <i type="logical" name="ODDONLY"> F  </i>
   <i type="logical" name="EVENONLY"> F  </i>
   <i type="int" name="LMAXFOCK">     0</i>
   <i type="int" name="NMAXFOCKAE">     0</i>
   <i type="logical" name="LFOCKAEDFT"> F  </i>
   <i name="HFSCREEN">      0.00000000</i>
   <i name="HFSCREENC">      0.00000000</i>
   <i type="int" name="NBANDSGWLOW">     0</i>
  </separator>
  <separator name="vdW DFT" >
   <i type="logical" name="LUSE_VDW"> F  </i>
   <i type="int" name="IVDW_NL">     1</i>
   <i type="logical" name="LSPIN_VDW"> F  </i>
   <i name="Zab_VDW">     -0.84910000</i>
   <i name="PARAM1">      0.12340000</i>
   <i name="PARAM2">      1.00000000</i>
   <i name="PARAM3">      0.00000000</i>
  </separator>
  <separator name="model GW" >
   <i type="int" name="MODEL_GW">     0</i>
   <i name="MODEL_EPS0">     44.78575751</i>
   <i name="MODEL_ALPHA">      1.00000000</i>
  </separator>
  <separator name="linear response parameters" >
   <i type="logical" name="LEPSILON"> F  </i>
   <i type="logical" name="LRPA"> F  </i>
   <i type="logical" name="LNABLA"> F  </i>
   <i type="logical" name="LVEL"> F  </i>
   <i name="CSHIFT">      0.10000000</i>
   <i name="OMEGAMAX">     -1.00000000</i>
   <i name="DEG_THRESHOLD">      0.00200000</i>
   <i name="RTIME">     -0.10000000</i>
   <i name="WPLASMAI">      0.00000000</i>
   <v name="DFIELD">      0.00000000      0.00000000      0.00000000</v>
   <v name="WPLASMA">      0.00000000      0.00000000      0.00000000      0.00000000      0.00000000      0.00000000      0.00000000      0.00000000      0.00000000</v>
  </separator>
  <separator name="orbital magnetization" >
   <i type="logical" name="NUCIND"> F  </i>
   <v name="MAGPOS">      0.00000000      0.00000000      0.00000000</v>
   <i type="logical" name="LNICSALL"> T  </i>
   <i type="logical" name="ORBITALMAG"> F  </i>
   <i type="logical" name="LMAGBLOCH"> F  </i>
   <i type="logical" name="LCHIMAG"> F  </i>
   <i type="logical" name="LGAUGE"> T  </i>
   <i type="int" name="MAGATOM">     0</i>
   <v name="MAGDIPOL">      0.00000000      0.00000000      0.00000000</v>
   <v name="AVECCONST">      0.00000000      0.00000000      0.00000000</v>
  </separator>
  <separator name="response functions" >
   <i type="logical" name="LALL_IN_ONE"> F  </i>
   <i type="int" name="IALL_IN_ONE">    -1</i>
   <i type="int" name="NBANDS_WAVE">    -1</i>
   <i type="logical" name="LFINITE_TEMPERATURE"> F  </i>
   <i type="logical" name="LADDER"> F  </i>
   <i type="logical" name="LRPAFORCE"> F  </i>
   <i type="logical" name="LFXC"> F  </i>
   <i type="logical" name="LHARTREE"> T  </i>
   <i type="int" name="IBSE">     0</i>
   <v type="int" name="KPOINT">    -1     0     0     0</v>
   <i type="logical" name="LTCTC"> F  </i>
   <i type="logical" name="LTCTE"> F  </i>
   <i type="logical" name="LTETE"> F  </i>
   <i type="logical" name="LTRIPLET"> F  </i>
   <i type="logical" name="LFXCEPS"> F  </i>
   <i type="logical" name="LFXHEG"> F  </i>
   <i type="int" name="NATURALO">     2</i>
   <i type="logical" name="LHOLEGF"> F  </i>
   <i type="logical" name="L2ORDER"> F  </i>
   <i type="logical" name="LDMP1"> F  </i>
   <i type="logical" name="LMP2LT"> F  </i>
   <i type="logical" name="LSMP2LT"> F  </i>
   <i type="logical" name="LGWLF"> F  </i>
   <i name="ENCUTGW">     -1.60000002</i>
   <i name="ENCUTGWSOFT">     -1.60000002</i>
   <i name="ENCUTLF">     -1.00000000</i>
   <i type="logical" name="LESF_SPLINES"> F  </i>
   <i type="int" name="LMAXMP2">    -1</i>
   <i name="SCISSOR">      0.00000000</i>
   <i type="int" name="NOMEGA">     0</i>
   <i type="int" name="NOMEGAR">     0</i>
   <i type="int" name="NBANDSGW">    -1</i>
   <i type="int" name="NBANDSO">    -1</i>
   <i type="int" name="NBANDSV">    -1</i>
   <i type="int" name="NELMGW">     1</i>
   <i type="int" name="NELMHF">     1</i>
   <i type="int" name="DIM">     3</i>
   <i type="int" name="IESPILON">     4</i>
   <i type="int" name="ANTIRES">     0</i>
   <i name="OMEGAMAX">    -30.00000000</i>
   <i name="OMEGAMIN">    -30.00000000</i>
   <i name="OMEGATL">   -200.00000000</i>
   <i type="int" name="OMEGAGRID">     0</i>
   <i name="CSHIFT">     -0.10000000</i>
   <i type="logical" name="LSELFENERGY"> F  </i>
   <i type="logical" name="LSPECTRAL"> F  </i>
   <i type="logical" name="LSPECTRALGW"> F  </i>
   <i type="logical" name="LSINGLES"> F  </i>
   <i type="logical" name="LFERMIGW"> F  </i>
   <i type="logical" name="ODDONLYGW"> F  </i>
   <i type="logical" name="EVENONLYGW"> F  </i>
   <i type="int" name="NKREDLFX">     1</i>
   <i type="int" name="NKREDLFY">     1</i>
   <i type="int" name="NKREDLFZ">     1</i>
   <i type="int" name="MAXMEM">  2800</i>
   <i type="int" name="TELESCOPE">     0</i>
   <i type="int" name="NTAUPAR">    -1</i>
   <i type="int" name="NOMEGAPAR">    -1</i>
   <i name="DAMP_NEWTON">      0.80000001</i>
   <i name="LAMBDA">      1.00000000</i>
  </separator>
  <separator name="External order field" >
   <i name="OFIELD_KAPPA">      0.00000000</i>
   <v name="OFIELD_K">      0.00000000      0.00000000      0.00000000</v>
   <i name="OFIELD_Q6_NEAR">      0.00000000</i>
   <i name="OFIELD_Q6_FAR">      0.00000000</i>
   <i name="OFIELD_A">      0.00000000</i>
  </separator>
  <separator name="optional k-points parameters" >
   <i type="int" name="KPOINTS_OPT_MODE">     1</i>
   <i type="logical" name="LKPOINTS_OPT"> F  </i>
  </separator>
 </parameters>
 <atominfo>
  <atoms>       2 </atoms>
  <types>       1 </types>
  <array name="atoms" >
   <dimension dim="1">ion</dimension>
   <field type="string">element</field>
   <field type="int">atomtype</field>
   <set>
    <rc><c>P </c><c>   1</c></rc>
    <rc><c>P </c><c>   1</c></rc>
   </set>
  </array>
  <array name="atomtypes" >
   <dimension dim="1">type</dimension>
   <field type="int">atomspertype</field>
   <field type="string">element</field>
   <field>mass</field>
   <field>valence</field>
   <field type="string">pseudopotential</field>
   <set>
    <rc><c>   2</c><c>P </c><c>     30.97400000</c><c>      5.00000000</c><c>  PAW_PBE P_GW 19Mar2012                </c></rc>
   </set>
  </array>
 </atominfo>
 <structure name="initialpos" >
  <crystal>
   <varray name="basis" >
    <v>       3.28234349       0.00000000       0.00000000 </v>
    <v>      -1.64117175       2.84259285       0.00000000 </v>
    <v>       0.00000000       0.00000000      16.00000000 </v>
   </varray>
   <i name="volume">    149.28585836 </i>
   <varray name="rec_basis" >
    <v>       0.30466038       0.17589575       0.00000000 </v>
    <v>       0.00000000       0.35179150       0.00000000 </v>
    <v>       0.00000000       0.00000000       0.06250000 </v>
   </varray>
  </crystal>
  <varray name="positions" >
   <v>       0.66666667       0.33333333       0.46118284 </v>
   <v>       0.33333333       0.66666667       0.53881716 </v>
  </varray>
 </structure>
 <calculation>
  <scstep>
   <time name="dav">    0.61    0.61</time>
   <time name="total">    0.78    1.00</time>
   <energy>
    <i name="alphaZ">      3.71007814 </i>
    <i name="ewald">    534.42243236 </i>
    <i name="hartreedc">   -833.34816100 </i>
    <i name="XCdc">     -7.57089118 </i>
    <i name="pawpsdc">    293.95507915 </i>
    <i name="pawaedc">   -263.19716017 </i>
    <i name="eentropy">     -0.00013805 </i>
    <i name="bandstr">    -25.57727630 </i>
    <i name="atom">    352.08369776 </i>
    <i name="e_fr_energy">     54.47766071 </i>
    <i name="e_wo_entrp">     54.47779876 </i>
    <i name="e_0_energy">     54.47772973 </i>
   </energy>
  </scstep>
  <scstep>
   <time name="dav">    0.83    0.83</time>
   <time name="total">    0.83    0.83</time>
   <energy>
    <i name="e_fr_energy">     -4.48422693 </i>
    <i name="e_wo_entrp">     -4.48411887 </i>
    <i name="e_0_energy">     -4.48417290 </i>
   </energy>
  </scstep>
  <scstep>
   <time name="dav">    0.74    0.74</time>
   <time name="total">    0.74    0.74</time>
   <energy>
    <i name="e_fr_energy">    -10.59641066 </i>
    <i name="e_wo_entrp">    -10.59641066 </i>
    <i name="e_0_energy">    -10.59641066 </i>
   </energy>
  </scstep>
  <scstep>
   <time name="dav">    0.85    0.85</time>
   <time name="total">    0.85    0.86</time>
   <energy>
    <i name="e_fr_energy">    -10.78468182 </i>
    <i name="e_wo_entrp">    -10.78468182 </i>
    <i name="e_0_energy">    -10.78468182 </i>
   </energy>
  </scstep>
  <scstep>
   <time name="dav">    0.75    0.75</time>
   <time name="total">    0.75    0.76</time>
   <energy>
    <i name="e_fr_energy">    -10.79166019 </i>
    <i name="e_wo_entrp">    -10.79166019 </i>
    <i name="e_0_energy">    -10.79166019 </i>
   </energy>
  </scstep>
  <scstep>
   <time name="dav">    0.82    0.82</time>
   <time name="total">    0.82    0.82</time>
   <energy>
    <i name="e_fr_energy">    -10.79184822 </i>
    <i name="e_wo_entrp">    -10.79184822 </i>
    <i name="e_0_energy">    -10.79184822 </i>
   </energy>
  </scstep>
  <scstep>
   <time name="dav">    0.79    0.79</time>
   <time name="total">    0.79    0.79</time>
   <energy>
    <i name="e_fr_energy">    -10.79185692 </i>
    <i name="e_wo_entrp">    -10.79185692 </i>
    <i name="e_0_energy">    -10.79185692 </i>
   </energy>
  </scstep>
  <scstep>
   <time name="dav">    0.79    0.79</time>
   <time name="total">    0.79    0.79</time>
   <energy>
    <i name="e_fr_energy">    -10.79185717 </i>
    <i name="e_wo_entrp">    -10.79185717 </i>
    <i name="e_0_energy">    -10.79185717 </i>
   </energy>
  </scstep>
  <scstep>
   <time name="dav">    0.65    0.65</time>
   <time name="total">    0.65    0.65</time>
   <energy>
    <i name="e_fr_energy">    -10.79185718 </i>
    <i name="e_wo_entrp">    -10.79185718 </i>
    <i name="e_0_energy">    -10.79185718 </i>
   </energy>
  </scstep>
  <scstep>
   <time name="dav">    0.58    0.58</time>
   <time name="total">    0.58    0.58</time>
   <energy>
    <i name="e_fr_energy">    -10.79185718 </i>
    <i name="e_wo_entrp">    -10.79185718 </i>
    <i name="e_0_energy">    -10.79185718 </i>
   </energy>
  </scstep>
  <scstep>
   <time name="dav">    0.52    0.52</time>
   <time name="total">    0.52    0.52</time>
   <energy>
    <i name="e_fr_energy">    -10.79185718 </i>
    <i name="e_wo_entrp">    -10.79185718 </i>
    <i name="e_0_energy">    -10.79185718 </i>
   </energy>
  </scstep>
  <scstep>
   <time name="dav">    0.54    0.54</time>
   <time name="total">    0.60    0.60</time>
   <energy>
    <i name="e_fr_energy">    -10.79185718 </i>
    <i name="e_wo_entrp">    -10.79185718 </i>
    <i name="e_0_energy">    -10.79185718 </i>
   </energy>
  </scstep>
  <scstep>
   <time name="dav">    0.70    0.70</time>
   <time name="total">    0.91    0.91</time>
   <energy>
    <i name="e_fr_energy">    -10.76588618 </i>
    <i name="e_wo_entrp">    -10.76588618 </i>
    <i name="e_0_energy">    -10.76588618 </i>
   </energy>
  </scstep>
  <scstep>
   <time name="dav">    0.70    0.70</time>
   <time name="total">    0.92    0.92</time>
   <energy>
    <i name="e_fr_energy">    -10.68927584 </i>
    <i name="e_wo_entrp">    -10.68927584 </i>
    <i name="e_0_energy">    -10.68927584 </i>
   </energy>
  </scstep>
  <scstep>
   <time name="dav">    0.69    0.69</time>
   <time name="total">    0.92    0.92</time>
   <energy>
    <i name="e_fr_energy">    -10.68390336 </i>
    <i name="e_wo_entrp">    -10.68390336 </i>
    <i name="e_0_energy">    -10.68390336 </i>
   </energy>
  </scstep>
  <scstep>
   <time name="dav">    0.75    0.75</time>
   <time name="total">    0.99    0.99</time>
   <energy>
    <i name="e_fr_energy">    -10.68416174 </i>
    <i name="e_wo_entrp">    -10.68416174 </i>
    <i name="e_0_energy">    -10.68416174 </i>
   </energy>
  </scstep>
  <scstep>
   <time name="dav">    0.71    0.71</time>
   <time name="total">    0.93    1.03</time>
   <energy>
    <i name="e_fr_energy">    -10.68400124 </i>
    <i name="e_wo_entrp">    -10.68400124 </i>
    <i name="e_0_energy">    -10.68400124 </i>
   </energy>
  </scstep>
  <scstep>
   <time name="dav">    0.86    0.86</time>
   <time name="total">    1.08    1.08</time>
   <energy>
    <i name="e_fr_energy">    -10.68397672 </i>
    <i name="e_wo_entrp">    -10.68397672 </i>
    <i name="e_0_energy">    -10.68397672 </i>
   </energy>
  </scstep>
  <scstep>
   <time name="dav">    0.77    0.77</time>
   <time name="total">    1.00    1.00</time>
   <energy>
    <i name="e_fr_energy">    -10.68397867 </i>
    <i name="e_wo_entrp">    -10.68397867 </i>
    <i name="e_0_energy">    -10.68397867 </i>
   </energy>
  </scstep>
  <scstep>
   <time name="dav">    0.57    0.57</time>
   <time name="total">    0.74    0.74</time>
   <energy>
    <i name="alphaZ">      3.71007814 </i>
    <i name="ewald">    534.42243236 </i>
    <i name="hartreedc">   -838.80629455 </i>
    <i name="XCdc">     -7.06400246 </i>
    <i name="pawpsdc">    349.10176804 </i>
    <i name="pawaedc">   -318.53597880 </i>
    <i name="eentropy">     -0.00000000 </i>
    <i name="bandstr">    -85.59567936 </i>
    <i name="atom">    352.08369776 </i>
    <i name="e_fr_energy">    -10.68397888 </i>
    <i name="e_wo_entrp">    -10.68397888 </i>
    <i name="e_0_energy">    -10.68397888 </i>
   </energy>
  </scstep>
  <structure>
   <crystal>
    <varray name="basis" >
     <v>       3.28234349       0.00000000       0.00000000 </v>
     <v>      -1.64117175       2.84259285       0.00000000 </v>
     <v>       0.00000000       0.00000000      16.00000000 </v>
    </varray>
    <i name="volume">    149.28585836 </i>
    <varray name="rec_basis" >
     <v>       0.30466038       0.17589575       0.00000000 </v>
     <v>       0.00000000       0.35179150       0.00000000 </v>
     <v>       0.00000000       0.00000000       0.06250000 </v>
    </varray>
   </crystal>
   <varray name="positions" >
    <v>       0.66666667       0.33333333       0.46118284 </v>
    <v>       0.33333333       0.66666667       0.53881716 </v>
   </varray>
  </structure>
  <varray name="forces" >
   <v>       0.00000000       0.00000000       0.00696676 </v>
   <v>      -0.00000000       0.00000000      -0.00696676 </v>
  </varray>
  <varray name="stress" >
   <v>      -0.10018991       0.00000000      -0.00000000 </v>
   <v>       0.00000000      -0.10018991       0.00000000 </v>
   <v>       0.00000000      -0.00000000      -0.26661763 </v>
  </varray>
  <energy>
   <i name="e_fr_energy">    -10.68397888 </i>
   <i name="e_wo_entrp">    -10.68397888 </i>
   <i name="e_0_energy">    -10.68397888 </i>
  </energy>
  <time name="totalsc">   17.53   18.45</time>
  <eigenvalues>
   <array>
    <dimension dim="1">band</dimension>
    <dimension dim="2">kpoint</dimension>
    <dimension dim="3">spin</dimension>
    <field>eigene</field>
    <field>occ</field>
    <set>
     <set comment="spin 1">
      <set comment="kpoint 1">
       <r>  -17.4693    1.0000 </r>
       <r>   -9.7579    1.0000 </r>
       <r>   -3.7661    1.0000 </r>
       <r>   -3.4957    1.0000 </r>
       <r>   -3.4957    1.0000 </r>
       <r>    0.3760    0.0000 </r>
       <r>    0.5279    0.0000 </r>
       <r>    0.5279    0.0000 </r>
       <r>    2.0237    0.0000 </r>
       <r>    2.4670    0.0000 </r>
       <r>    3.8284    0.0000 </r>
       <r>    4.4413    0.0000 </r>
      </set>
      <set comment="kpoint 2">
       <r>  -17.3872    1.0000 </r>
       <r>   -9.7032    1.0000 </r>
       <r>   -4.1769    1.0000 </r>
       <r>   -3.7178    1.0000 </r>
       <r>   -3.6819    1.0000 </r>
       <r>    0.2804    0.0000 </r>
       <r>    0.7655    0.0000 </r>
       <r>    1.0539    0.0000 </r>
       <r>    2.1279    0.0000 </r>
       <r>    2.5513    0.0000 </r>
       <r>    3.8890    0.0000 </r>
       <r>    4.5333    0.0000 </r>
      </set>
      <set comment="kpoint 3">
       <r>  -17.1423    1.0000 </r>
       <r>   -9.5619    1.0000 </r>
       <r>   -5.5032    1.0000 </r>
       <r>   -4.1133    1.0000 </r>
       <r>   -3.5887    1.0000 </r>
       <r>   -0.2547    0.0000 </r>
       <r>    1.2956    0.0000 </r>
       <r>    2.0714    0.0000 </r>
       <r>    2.4584    0.0000 </r>
       <r>    2.8302    0.0000 </r>
       <r>    4.0220    0.0000 </r>
       <r>    4.8072    0.0000 </r>
      </set>
      <set comment="kpoint 4">
       <r>  -16.7387    1.0000 </r>
       <r>   -9.4537    1.0000 </r>
       <r>   -6.7875    1.0000 </r>
       <r>   -4.5998    1.0000 </r>
       <r>   -3.4417    1.0000 </r>
       <r>   -0.8632    0.0000 </r>
       <r>    1.7774    0.0000 </r>
       <r>    2.0407    0.0000 </r>
       <r>    2.8231    0.0000 </r>
       <r>    3.3578    0.0000 </r>
       <r>    4.4806    0.0000 </r>
       <r>    5.2149    0.0000 </r>
      </set>
      <set comment="kpoint 5">
       <r>  -16.1857    1.0000 </r>
       <r>   -9.7927    1.0000 </r>
       <r>   -7.4550    1.0000 </r>
       <r>   -5.0334    1.0000 </r>
       <r>   -3.4408    1.0000 </r>
       <r>   -1.3185    0.0000 </r>
       <r>    1.2295    0.0000 </r>
       <r>    2.0027    0.0000 </r>
       <r>    3.4621    0.0000 </r>
       <r>    3.8740    0.0000 </r>
       <r>    4.7327    0.0000 </r>
       <r>    5.6962    0.0000 </r>
      </set>
      <set comment="kpoint 6">
       <r>  -15.5068    1.0000 </r>
       <r>  -10.7531    1.0000 </r>
       <r>   -7.2797    1.0000 </r>
       <r>   -5.3643    1.0000 </r>
       <r>   -3.7918    1.0000 </r>
       <r>   -1.4477    0.0000 </r>
       <r>    0.5592    0.0000 </r>
       <r>    2.0244    0.0000 </r>
       <r>    3.7929    0.0000 </r>
       <r>    4.3176    0.0000 </r>
       <r>    5.0372    0.0000 </r>
       <r>    6.3021    0.0000 </r>
      </set>
      <set comment="kpoint 7">
       <r>  -14.7795    1.0000 </r>
       <r>  -11.7856    1.0000 </r>
       <r>   -6.7916    1.0000 </r>
       <r>   -5.5696    1.0000 </r>
       <r>   -4.3739    1.0000 </r>
       <r>   -1.3940    0.0000 </r>
       <r>    0.2379    0.0000 </r>
       <r>    1.9823    0.0000 </r>
       <r>    3.2970    0.0000 </r>
       <r>    5.3096    0.0000 </r>
       <r>    5.9166    0.0000 </r>
       <r>    6.9636    0.0000 </r>
      </set>
      <set comment="kpoint 8">
       <r>  -14.3591    1.0000 </r>
       <r>  -12.3210    1.0000 </r>
       <r>   -6.4908    1.0000 </r>
       <r>   -5.6390    1.0000 </r>
       <r>   -4.7151    1.0000 </r>
       <r>   -1.3660    0.0000 </r>
       <r>    0.1769    0.0000 </r>
       <r>    1.9601    0.0000 </r>
       <r>    3.0663    0.0000 </r>
       <r>    6.3901    0.0000 </r>
       <r>    6.4018    0.0000 </r>
       <r>    6.8517    0.0000 </r>
      </set>
      <set comment="kpoint 9">
       <r>  -17.2238    1.0000 </r>
       <r>   -9.6043    1.0000 </r>
       <r>   -5.0806    1.0000 </r>
       <r>   -4.0830    1.0000 </r>
       <r>   -3.6288    1.0000 </r>
       <r>    0.3075    0.0000 </r>
       <r>    0.6605    0.0000 </r>
       <r>    1.9780    0.0000 </r>
       <r>    2.3745    0.0000 </r>
       <r>    2.7109    0.0000 </r>
       <r>    3.9662    0.0000 </r>
       <r>    4.7168    0.0000 </r>
      </set>
      <set comment="kpoint 10">
       <r>  -16.8993    1.0000 </r>
       <r>   -9.4671    1.0000 </r>
       <r>   -6.2696    1.0000 </r>
       <r>   -4.6835    1.0000 </r>
       <r>   -3.4860    1.0000 </r>
       <r>   -0.1476    0.0000 </r>
       <r>    1.1558    0.0000 </r>
       <r>    2.4767    0.0000 </r>
       <r>    2.7066    0.0000 </r>
       <r>    3.0958    0.0000 </r>
       <r>    4.0209    0.0000 </r>
       <r>    4.9485    0.0000 </r>
      </set>
      <set comment="kpoint 11">
       <r>  -16.4201    1.0000 </r>
       <r>   -9.5402    1.0000 </r>
       <r>   -7.2199    1.0000 </r>
       <r>   -5.2354    1.0000 </r>
       <r>   -3.3898    1.0000 </r>
       <r>   -0.6778    0.0000 </r>
       <r>    1.5647    0.0000 </r>
       <r>    1.8652    0.0000 </r>
       <r>    3.1886    0.0000 </r>
       <r>    3.6456    0.0000 </r>
       <r>    4.4716    0.0000 </r>
       <r>    5.3940    0.0000 </r>
      </set>
      <set comment="kpoint 12">
       <r>  -15.8005    1.0000 </r>
       <r>  -10.2434    1.0000 </r>
       <r>   -7.3876    1.0000 </r>
       <r>   -5.6601    1.0000 </r>
       <r>   -3.5384    1.0000 </r>
       <r>   -0.9793    0.0000 </r>
       <r>    1.0303    0.0000 </r>
       <r>    1.7027    0.0000 </r>
       <r>    3.8825    0.0000 </r>
       <r>    4.1176    0.0000 </r>
       <r>    4.8164    0.0000 </r>
       <r>    6.0053    0.0000 </r>
      </set>
      <set comment="kpoint 13">
       <r>  -15.0801    1.0000 </r>
       <r>  -11.2889    1.0000 </r>
       <r>   -7.0296    1.0000 </r>
       <r>   -5.9092    1.0000 </r>
       <r>   -4.0295    1.0000 </r>
       <r>   -0.9578    0.0000 </r>
       <r>    0.4398    0.0000 </r>
       <r>    1.7306    0.0000 </r>
       <r>    3.6720    0.0000 </r>
       <r>    4.8717    0.0000 </r>
       <r>    5.5095    0.0000 </r>
       <r>    6.7195    0.0000 </r>
      </set>
      <set comment="kpoint 14">
       <r>  -14.4220    1.0000 </r>
       <r>  -12.1591    1.0000 </r>
       <r>   -6.6885    1.0000 </r>
       <r>   -5.9060    1.0000 </r>
       <r>   -4.5890    1.0000 </r>
       <r>   -0.8260    0.0000 </r>
       <r>    0.1349    0.0000 </r>
       <r>    1.7894    0.0000 </r>
       <r>    3.2086    0.0000 </r>
       <r>    5.9450    0.0000 </r>
       <r>    6.4723    0.0000 </r>
       <r>    7.1203    0.0000 </r>
      </set>
      <set comment="kpoint 15">
       <r>  -16.4987    1.0000 </r>
       <r>   -9.4714    1.0000 </r>
       <r>   -6.9820    1.0000 </r>
       <r>   -5.5433    1.0000 </r>
       <r>   -3.3819    1.0000 </r>
       <r>    0.1204    0.0000 </r>
       <r>    0.9601    0.0000 </r>
       <r>    2.6062    0.0000 </r>
       <r>    3.1005    0.0000 </r>
       <r>    3.1360    0.0000 </r>
       <r>    3.9383    0.0000 </r>
       <r>    5.2026    0.0000 </r>
      </set>
      <set comment="kpoint 16">
       <r>  -15.9498    1.0000 </r>
       <r>   -9.9113    1.0000 </r>
       <r>   -7.2748    1.0000 </r>
       <r>   -6.2505    1.0000 </r>
       <r>   -3.4080    1.0000 </r>
       <r>   -0.1060    0.0000 </r>
       <r>    0.9853    0.0000 </r>
       <r>    2.0591    0.0000 </r>
       <r>    3.5771    0.0000 </r>
       <r>    3.8121    0.0000 </r>
       <r>    4.4774    0.0000 </r>
       <r>    5.7013    0.0000 </r>
      </set>
      <set comment="kpoint 17">
       <r>  -15.2742    1.0000 </r>
       <r>  -10.8100    1.0000 </r>
       <r>   -7.1700    1.0000 </r>
       <r>   -6.5777    1.0000 </r>
       <r>   -3.7222    1.0000 </r>
       <r>   -0.2807    0.0000 </r>
       <r>    0.8153    0.0000 </r>
       <r>    1.6217    0.0000 </r>
       <r>    4.0363    0.0000 </r>
       <r>    4.6398    0.0000 </r>
       <r>    5.2535    0.0000 </r>
       <r>    5.8447    0.0000 </r>
      </set>
      <set comment="kpoint 18">
       <r>  -14.5431    1.0000 </r>
       <r>  -11.7827    1.0000 </r>
       <r>   -7.2521    1.0000 </r>
       <r>   -6.2527    1.0000 </r>
       <r>   -4.2847    1.0000 </r>
       <r>   -0.2622    0.0000 </r>
       <r>    0.5612    0.0000 </r>
       <r>    1.5543    0.0000 </r>
       <r>    3.6393    0.0000 </r>
       <r>    5.6130    0.0000 </r>
       <r>    6.1604    0.0000 </r>
       <r>    6.7869    0.0000 </r>
      </set>
      <set comment="kpoint 19">
       <r>  -14.1068    1.0000 </r>
       <r>  -12.3129    1.0000 </r>
       <r>   -7.3211    1.0000 </r>
       <r>   -5.9188    1.0000 </r>
       <r>   -4.6669    1.0000 </r>
       <r>   -0.2170    0.0000 </r>
       <r>    0.4425    0.0000 </r>
       <r>    1.6104    0.0000 </r>
       <r>    3.3565    0.0000 </r>
       <r>    6.5844    0.0000 </r>
       <r>    6.8635    0.0000 </r>
       <r>    7.0002    0.0000 </r>
      </set>
      <set comment="kpoint 20">
       <r>  -15.3408    1.0000 </r>
       <r>  -10.5916    1.0000 </r>
       <r>   -7.1628    1.0000 </r>
       <r>   -6.9466    1.0000 </r>
       <r>   -3.6037    1.0000 </r>
       <r>    0.2168    0.0000 </r>
       <r>    0.3569    0.0000 </r>
       <r>    2.6602    0.0000 </r>
       <r>    3.5044    0.0000 </r>
       <r>    4.5067    0.0000 </r>
       <r>    5.1001    0.0000 </r>
       <r>    5.4277    0.0000 </r>
      </set>
      <set comment="kpoint 21">
       <r>  -14.6258    1.0000 </r>
       <r>  -11.4453    1.0000 </r>
       <r>   -7.7739    1.0000 </r>
       <r>   -6.4049    1.0000 </r>
       <r>   -4.0302    1.0000 </r>
       <r>   -0.3702    0.0000 </r>
       <r>    0.8169    0.0000 </r>
       <r>    2.4480    0.0000 </r>
       <r>    4.0468    0.0000 </r>
       <r>    5.4070    0.0000 </r>
       <r>    5.4829    0.0000 </r>
       <r>    5.8652    0.0000 </r>
      </set>
      <set comment="kpoint 22">
       <r>  -13.9385    1.0000 </r>
       <r>  -12.2341    1.0000 </r>
       <r>   -8.0713    1.0000 </r>
       <r>   -5.8308    1.0000 </r>
       <r>   -4.5595    1.0000 </r>
       <r>   -0.6766    0.0000 </r>
       <r>    1.3871    0.0000 </r>
       <r>    1.9703    0.0000 </r>
       <r>    3.9099    0.0000 </r>
       <r>    5.9226    0.0000 </r>
       <r>    6.5693    0.0000 </r>
       <r>    6.8123    0.0000 </r>
      </set>
      <set comment="kpoint 23">
       <r>  -13.8985    1.0000 </r>
       <r>  -12.1433    1.0000 </r>
       <r>   -8.3870    1.0000 </r>
       <r>   -5.8147    1.0000 </r>
       <r>   -4.4649    1.0000 </r>
       <r>   -0.8944    0.0000 </r>
       <r>    1.4041    0.0000 </r>
       <r>    2.6400    0.0000 </r>
       <r>    4.6397    0.0000 </r>
       <r>    5.4348    0.0000 </r>
       <r>    5.8760    0.0000 </r>
       <r>    6.4713    0.0000 </r>
      </set>
      <set comment="kpoint 24">
       <r>  -13.3574    1.0000 </r>
       <r>  -12.6726    1.0000 </r>
       <r>   -8.6030    1.0000 </r>
       <r>   -5.3650    1.0000 </r>
       <r>   -4.8494    1.0000 </r>
       <r>   -1.1036    0.0000 </r>
       <r>    1.9221    0.0000 </r>
       <r>    2.2699    0.0000 </r>
       <r>    4.7900    0.0000 </r>
       <r>    5.5709    0.0000 </r>
       <r>    6.7682    0.0000 </r>
       <r>    7.1822    0.0000 </r>
      </set>
      <set comment="kpoint 25">
       <r>  -17.4693    1.0000 </r>
       <r>   -9.7579    1.0000 </r>
       <r>   -3.7661    1.0000 </r>
       <r>   -3.4957    1.0000 </r>
       <r>   -3.4957    1.0000 </r>
       <r>    0.3759    0.0000 </r>
       <r>    0.5279    0.0000 </r>
       <r>    0.5279    0.0000 </r>
       <r>    1.9754    0.0000 </r>
       <r>    2.6287    0.0000 </r>
       <r>    3.4413    0.0000 </r>
       <r>    4.9946    0.0000 </r>
      </set>
      <set comment="kpoint 26">
       <r>  -17.3872    1.0000 </r>
       <r>   -9.7032    1.0000 </r>
       <r>   -4.1769    1.0000 </r>
       <r>   -3.7178    1.0000 </r>
       <r>   -3.6819    1.0000 </r>
       <r>    0.2804    0.0000 </r>
       <r>    0.7655    0.0000 </r>
       <r>    1.0535    0.0000 </r>
       <r>    2.0800    0.0000 </r>
       <r>    2.7069    0.0000 </r>
       <r>    3.5308    0.0000 </r>
       <r>    5.0053    0.0000 </r>
      </set>
      <set comment="kpoint 27">
       <r>  -17.3872    1.0000 </r>
       <r>   -9.7032    1.0000 </r>
       <r>   -4.1769    1.0000 </r>
       <r>   -3.7178    1.0000 </r>
       <r>   -3.6819    1.0000 </r>
       <r>    0.2804    0.0000 </r>
       <r>    0.7655    0.0000 </r>
       <r>    1.0536    0.0000 </r>
       <r>    2.0791    0.0000 </r>
       <r>    2.7091    0.0000 </r>
       <r>    3.5281    0.0000 </r>
       <r>    5.0062    0.0000 </r>
      </set>
      <set comment="kpoint 28">
       <r>  -17.1423    1.0000 </r>
       <r>   -9.5618    1.0000 </r>
       <r>   -5.5032    1.0000 </r>
       <r>   -4.1133    1.0000 </r>
       <r>   -3.5887    1.0000 </r>
       <r>   -0.2547    0.0000 </r>
       <r>    1.2956    0.0000 </r>
       <r>    2.0620    0.0000 </r>
       <r>    2.4302    0.0000 </r>
       <r>    2.9522    0.0000 </r>
       <r>    3.8063    0.0000 </r>
       <r>    4.6947    0.0000 </r>
      </set>
      <set comment="kpoint 29">
       <r>  -17.1423    1.0000 </r>
       <r>   -9.5618    1.0000 </r>
       <r>   -5.5032    1.0000 </r>
       <r>   -4.1133    1.0000 </r>
       <r>   -3.5887    1.0000 </r>
       <r>   -0.2547    0.0000 </r>
       <r>    1.2956    0.0000 </r>
       <r>    2.0677    0.0000 </r>
       <r>    2.4115    0.0000 </r>
       <r>    2.9822    0.0000 </r>
       <r>    3.7674    0.0000 </r>
       <r>    4.7258    0.0000 </r>
      </set>
      <set comment="kpoint 30">
       <r>  -16.7387    1.0000 </r>
       <r>   -9.4537    1.0000 </r>
       <r>   -6.7875    1.0000 </r>
       <r>   -4.5998    1.0000 </r>
       <r>   -3.4417    1.0000 </r>
       <r>   -0.8632    0.0000 </r>
       <r>    1.7774    0.0000 </r>
       <r>    2.0414    0.0000 </r>
       <r>    2.7843    0.0000 </r>
       <r>    3.4881    0.0000 </r>
       <r>    4.2978    0.0000 </r>
       <r>    4.9892    0.0000 </r>
      </set>
      <set comment="kpoint 31">
       <r>  -16.7387    1.0000 </r>
       <r>   -9.4537    1.0000 </r>
       <r>   -6.7875    1.0000 </r>
       <r>   -4.5998    1.0000 </r>
       <r>   -3.4417    1.0000 </r>
       <r>   -0.8632    0.0000 </r>
       <r>    1.7774    0.0000 </r>
       <r>    2.0422    0.0000 </r>
       <r>    2.7767    0.0000 </r>
       <r>    3.5229    0.0000 </r>
       <r>    4.2043    0.0000 </r>
       <r>    5.1165    0.0000 </r>
      </set>
      <set comment="kpoint 32">
       <r>  -16.1857    1.0000 </r>
       <r>   -9.7927    1.0000 </r>
       <r>   -7.4550    1.0000 </r>
       <r>   -5.0334    1.0000 </r>
       <r>   -3.4408    1.0000 </r>
       <r>   -1.3185    0.0000 </r>
       <r>    1.2296    0.0000 </r>
       <r>    2.0027    0.0000 </r>
       <r>    3.4234    0.0000 </r>
       <r>    3.9526    0.0000 </r>
       <r>    4.8826    0.0000 </r>
       <r>    5.1170    0.0000 </r>
      </set>
      <set comment="kpoint 33">
       <r>  -16.1857    1.0000 </r>
       <r>   -9.7927    1.0000 </r>
       <r>   -7.4550    1.0000 </r>
       <r>   -5.0334    1.0000 </r>
       <r>   -3.4408    1.0000 </r>
       <r>   -1.3185    0.0000 </r>
       <r>    1.2296    0.0000 </r>
       <r>    2.0027    0.0000 </r>
       <r>    3.4194    0.0000 </r>
       <r>    3.9819    0.0000 </r>
       <r>    4.6951    0.0000 </r>
       <r>    5.3798    0.0000 </r>
      </set>
      <set comment="kpoint 34">
       <r>  -15.5068    1.0000 </r>
       <r>  -10.7531    1.0000 </r>
       <r>   -7.2797    1.0000 </r>
       <r>   -5.3643    1.0000 </r>
       <r>   -3.7918    1.0000 </r>
       <r>   -1.4477    0.0000 </r>
       <r>    0.5592    0.0000 </r>
       <r>    2.0244    0.0000 </r>
       <r>    3.7973    0.0000 </r>
       <r>    4.2717    0.0000 </r>
       <r>    5.2760    0.0000 </r>
       <r>    5.7653    0.0000 </r>
      </set>
      <set comment="kpoint 35">
       <r>  -15.5068    1.0000 </r>
       <r>  -10.7531    1.0000 </r>
       <r>   -7.2797    1.0000 </r>
       <r>   -5.3643    1.0000 </r>
       <r>   -3.7918    1.0000 </r>
       <r>   -1.4477    0.0000 </r>
       <r>    0.5592    0.0000 </r>
       <r>    2.0244    0.0000 </r>
       <r>    3.7949    0.0000 </r>
       <r>    4.2866    0.0000 </r>
       <r>    5.1804    0.0000 </r>
       <r>    5.9321    0.0000 </r>
      </set>
      <set comment="kpoint 36">
       <r>  -14.7795    1.0000 </r>
       <r>  -11.7856    1.0000 </r>
       <r>   -6.7916    1.0000 </r>
       <r>   -5.5696    1.0000 </r>
       <r>   -4.3739    1.0000 </r>
       <r>   -1.3940    0.0000 </r>
       <r>    0.2379    0.0000 </r>
       <r>    1.9823    0.0000 </r>
       <r>    3.2972    0.0000 </r>
       <r>    5.2692    0.0000 </r>
       <r>    6.0944    0.0000 </r>
       <r>    6.7029    0.0000 </r>
      </set>
      <set comment="kpoint 37">
       <r>  -14.7795    1.0000 </r>
       <r>  -11.7856    1.0000 </r>
       <r>   -6.7916    1.0000 </r>
       <r>   -5.5696    1.0000 </r>
       <r>   -4.3739    1.0000 </r>
       <r>   -1.3940    0.0000 </r>
       <r>    0.2378    0.0000 </r>
       <r>    1.9823    0.0000 </r>
       <r>    3.2972    0.0000 </r>
       <r>    5.2800    0.0000 </r>
       <r>    6.0190    0.0000 </r>
       <r>    6.8732    0.0000 </r>
      </set>
      <set comment="kpoint 38">
       <r>  -14.3591    1.0000 </r>
       <r>  -12.3210    1.0000 </r>
       <r>   -6.4909    1.0000 </r>
       <r>   -5.6390    1.0000 </r>
       <r>   -4.7151    1.0000 </r>
       <r>   -1.3660    0.0000 </r>
       <r>    0.1769    0.0000 </r>
       <r>    1.9601    0.0000 </r>
       <r>    3.0663    0.0000 </r>
       <r>    6.3700    0.0000 </r>
       <r>    6.3921    0.0000 </r>
       <r>    6.8410    0.0000 </r>
      </set>
      <set comment="kpoint 39">
       <r>  -17.2238    1.0000 </r>
       <r>   -9.6043    1.0000 </r>
       <r>   -5.0806    1.0000 </r>
       <r>   -4.0831    1.0000 </r>
       <r>   -3.6288    1.0000 </r>
       <r>    0.3075    0.0000 </r>
       <r>    0.6605    0.0000 </r>
       <r>    1.9710    0.0000 </r>
       <r>    2.3322    0.0000 </r>
       <r>    2.8538    0.0000 </r>
       <r>    3.6986    0.0000 </r>
       <r>    4.7999    0.0000 </r>
      </set>
      <set comment="kpoint 40">
       <r>  -16.8993    1.0000 </r>
       <r>   -9.4671    1.0000 </r>
       <r>   -6.2696    1.0000 </r>
       <r>   -4.6835    1.0000 </r>
       <r>   -3.4860    1.0000 </r>
       <r>   -0.1476    0.0000 </r>
       <r>    1.1557    0.0000 </r>
       <r>    2.4620    0.0000 </r>
       <r>    2.6910    0.0000 </r>
       <r>    3.1831    0.0000 </r>
       <r>    4.0346    0.0000 </r>
       <r>    4.4566    0.0000 </r>
      </set>
      <set comment="kpoint 41">
       <r>  -16.8993    1.0000 </r>
       <r>   -9.4671    1.0000 </r>
       <r>   -6.2696    1.0000 </r>
       <r>   -4.6835    1.0000 </r>
       <r>   -3.4860    1.0000 </r>
       <r>   -0.1476    0.0000 </r>
       <r>    1.1558    0.0000 </r>
       <r>    2.4722    0.0000 </r>
       <r>    2.6659    0.0000 </r>
       <r>    3.2198    0.0000 </r>
       <r>    3.9638    0.0000 </r>
       <r>    4.5164    0.0000 </r>
      </set>
      <set comment="kpoint 42">
       <r>  -16.4201    1.0000 </r>
       <r>   -9.5402    1.0000 </r>
       <r>   -7.2199    1.0000 </r>
       <r>   -5.2354    1.0000 </r>
       <r>   -3.3898    1.0000 </r>
       <r>   -0.6778    0.0000 </r>
       <r>    1.5648    0.0000 </r>
       <r>    1.8654    0.0000 </r>
       <r>    3.1503    0.0000 </r>
       <r>    3.7349    0.0000 </r>
       <r>    4.5903    0.0000 </r>
       <r>    4.8302    0.0000 </r>
      </set>
      <set comment="kpoint 43">
       <r>  -16.4201    1.0000 </r>
       <r>   -9.5402    1.0000 </r>
       <r>   -7.2199    1.0000 </r>
       <r>   -5.2354    1.0000 </r>
       <r>   -3.3898    1.0000 </r>
       <r>   -0.6778    0.0000 </r>
       <r>    1.5648    0.0000 </r>
       <r>    1.8654    0.0000 </r>
       <r>    3.1441    0.0000 </r>
       <r>    3.7699    0.0000 </r>
       <r>    4.4366    0.0000 </r>
       <r>    4.9908    0.0000 </r>
      </set>
      <set comment="kpoint 44">
       <r>  -15.8005    1.0000 </r>
       <r>  -10.2434    1.0000 </r>
       <r>   -7.3876    1.0000 </r>
       <r>   -5.6600    1.0000 </r>
       <r>   -3.5384    1.0000 </r>
       <r>   -0.9793    0.0000 </r>
       <r>    1.0304    0.0000 </r>
       <r>    1.7027    0.0000 </r>
       <r>    3.8617    0.0000 </r>
       <r>    4.1142    0.0000 </r>
       <r>    5.0646    0.0000 </r>
       <r>    5.4196    0.0000 </r>
      </set>
      <set comment="kpoint 45">
       <r>  -15.8005    1.0000 </r>
       <r>  -10.2434    1.0000 </r>
       <r>   -7.3876    1.0000 </r>
       <r>   -5.6600    1.0000 </r>
       <r>   -3.5384    1.0000 </r>
       <r>   -0.9793    0.0000 </r>
       <r>    1.0304    0.0000 </r>
       <r>    1.7027    0.0000 </r>
       <r>    3.8477    0.0000 </r>
       <r>    4.1527    0.0000 </r>
       <r>    4.9218    0.0000 </r>
       <r>    5.6205    0.0000 </r>
      </set>
      <set comment="kpoint 46">
       <r>  -15.0801    1.0000 </r>
       <r>  -11.2889    1.0000 </r>
       <r>   -7.0295    1.0000 </r>
       <r>   -5.9092    1.0000 </r>
       <r>   -4.0295    1.0000 </r>
       <r>   -0.9578    0.0000 </r>
       <r>    0.4398    0.0000 </r>
       <r>    1.7307    0.0000 </r>
       <r>    3.6727    0.0000 </r>
       <r>    4.8279    0.0000 </r>
       <r>    5.7178    0.0000 </r>
       <r>    6.2967    0.0000 </r>
      </set>
      <set comment="kpoint 47">
       <r>  -15.0801    1.0000 </r>
       <r>  -11.2889    1.0000 </r>
       <r>   -7.0296    1.0000 </r>
       <r>   -5.9092    1.0000 </r>
       <r>   -4.0295    1.0000 </r>
       <r>   -0.9578    0.0000 </r>
       <r>    0.4398    0.0000 </r>
       <r>    1.7307    0.0000 </r>
       <r>    3.6724    0.0000 </r>
       <r>    4.8386    0.0000 </r>
       <r>    5.6422    0.0000 </r>
       <r>    6.4481    0.0000 </r>
      </set>
      <set comment="kpoint 48">
       <r>  -14.4220    1.0000 </r>
       <r>  -12.1591    1.0000 </r>
       <r>   -6.6885    1.0000 </r>
       <r>   -5.9060    1.0000 </r>
       <r>   -4.5890    1.0000 </r>
       <r>   -0.8260    0.0000 </r>
       <r>    0.1349    0.0000 </r>
       <r>    1.7894    0.0000 </r>
       <r>    3.2087    0.0000 </r>
       <r>    5.9073    0.0000 </r>
       <r>    6.5919    0.0000 </r>
       <r>    7.1824    0.0000 </r>
      </set>
      <set comment="kpoint 49">
       <r>  -14.4220    1.0000 </r>
       <r>  -12.1591    1.0000 </r>
       <r>   -6.6885    1.0000 </r>
       <r>   -5.9060    1.0000 </r>
       <r>   -4.5890    1.0000 </r>
       <r>   -0.8260    0.0000 </r>
       <r>    0.1349    0.0000 </r>
       <r>    1.7894    0.0000 </r>
       <r>    3.2087    0.0000 </r>
       <r>    5.9191    0.0000 </r>
       <r>    6.5363    0.0000 </r>
       <r>    7.1113    0.0000 </r>
      </set>
      <set comment="kpoint 50">
       <r>  -16.4987    1.0000 </r>
       <r>   -9.4714    1.0000 </r>
       <r>   -6.9820    1.0000 </r>
       <r>   -5.5433    1.0000 </r>
       <r>   -3.3819    1.0000 </r>
       <r>    0.1204    0.0000 </r>
       <r>    0.9601    0.0000 </r>
       <r>    2.6054    0.0000 </r>
       <r>    3.0852    0.0000 </r>
       <r>    3.1290    0.0000 </r>
       <r>    4.1280    0.0000 </r>
       <r>    4.6537    0.0000 </r>
      </set>
      <set comment="kpoint 51">
       <r>  -15.9498    1.0000 </r>
       <r>   -9.9113    1.0000 </r>
       <r>   -7.2748    1.0000 </r>
       <r>   -6.2505    1.0000 </r>
       <r>   -3.4080    1.0000 </r>
       <r>   -0.1060    0.0000 </r>
       <r>    0.9853    0.0000 </r>
       <r>    2.0592    0.0000 </r>
       <r>    3.5823    0.0000 </r>
       <r>    3.7677    0.0000 </r>
       <r>    4.6828    0.0000 </r>
       <r>    5.2432    0.0000 </r>
      </set>
      <set comment="kpoint 52">
       <r>  -15.9498    1.0000 </r>
       <r>   -9.9113    1.0000 </r>
       <r>   -7.2748    1.0000 </r>
       <r>   -6.2505    1.0000 </r>
       <r>   -3.4080    1.0000 </r>
       <r>   -0.1060    0.0000 </r>
       <r>    0.9853    0.0000 </r>
       <r>    2.0592    0.0000 </r>
       <r>    3.5679    0.0000 </r>
       <r>    3.7926    0.0000 </r>
       <r>    4.6470    0.0000 </r>
       <r>    5.2609    0.0000 </r>
      </set>
      <set comment="kpoint 53">
       <r>  -15.2742    1.0000 </r>
       <r>  -10.8100    1.0000 </r>
       <r>   -7.1700    1.0000 </r>
       <r>   -6.5777    1.0000 </r>
       <r>   -3.7222    1.0000 </r>
       <r>   -0.2807    0.0000 </r>
       <r>    0.8153    0.0000 </r>
       <r>    1.6217    0.0000 </r>
       <r>    4.0387    0.0000 </r>
       <r>    4.5915    0.0000 </r>
       <r>    5.4660    0.0000 </r>
       <r>    5.8290    0.0000 </r>
      </set>
      <set comment="kpoint 54">
       <r>  -15.2742    1.0000 </r>
       <r>  -10.8100    1.0000 </r>
       <r>   -7.1700    1.0000 </r>
       <r>   -6.5777    1.0000 </r>
       <r>   -3.7221    1.0000 </r>
       <r>   -0.2807    0.0000 </r>
       <r>    0.8153    0.0000 </r>
       <r>    1.6217    0.0000 </r>
       <r>    4.0359    0.0000 </r>
       <r>    4.6081    0.0000 </r>
       <r>    5.3889    0.0000 </r>
       <r>    5.8504    0.0000 </r>
      </set>
      <set comment="kpoint 55">
       <r>  -14.5431    1.0000 </r>
       <r>  -11.7827    1.0000 </r>
       <r>   -7.2521    1.0000 </r>
       <r>   -6.2527    1.0000 </r>
       <r>   -4.2847    1.0000 </r>
       <r>   -0.2622    0.0000 </r>
       <r>    0.5612    0.0000 </r>
       <r>    1.5543    0.0000 </r>
       <r>    3.6394    0.0000 </r>
       <r>    5.5713    0.0000 </r>
       <r>    6.3184    0.0000 </r>
       <r>    6.7820    0.0000 </r>
      </set>
      <set comment="kpoint 56">
       <r>  -14.5431    1.0000 </r>
       <r>  -11.7827    1.0000 </r>
       <r>   -7.2521    1.0000 </r>
       <r>   -6.2527    1.0000 </r>
       <r>   -4.2847    1.0000 </r>
       <r>   -0.2622    0.0000 </r>
       <r>    0.5612    0.0000 </r>
       <r>    1.5543    0.0000 </r>
       <r>    3.6394    0.0000 </r>
       <r>    5.5810    0.0000 </r>
       <r>    6.2596    0.0000 </r>
       <r>    6.7842    0.0000 </r>
      </set>
      <set comment="kpoint 57">
       <r>  -14.1068    1.0000 </r>
       <r>  -12.3129    1.0000 </r>
       <r>   -7.3211    1.0000 </r>
       <r>   -5.9188    1.0000 </r>
       <r>   -4.6669    1.0000 </r>
       <r>   -0.2171    0.0000 </r>
       <r>    0.4425    0.0000 </r>
       <r>    1.6104    0.0000 </r>
       <r>    3.3565    0.0000 </r>
       <r>    6.5701    0.0000 </r>
       <r>    6.8397    0.0000 </r>
       <r>    6.9975    0.0000 </r>
      </set>
      <set comment="kpoint 58">
       <r>  -15.3408    1.0000 </r>
       <r>  -10.5916    1.0000 </r>
       <r>   -7.1628    1.0000 </r>
       <r>   -6.9466    1.0000 </r>
       <r>   -3.6037    1.0000 </r>
       <r>    0.2168    0.0000 </r>
       <r>    0.3569    0.0000 </r>
       <r>    2.6601    0.0000 </r>
       <r>    3.5051    0.0000 </r>
       <r>    4.4673    0.0000 </r>
       <r>    5.2580    0.0000 </r>
       <r>    5.4165    0.0000 </r>
      </set>
      <set comment="kpoint 59">
       <r>  -14.6258    1.0000 </r>
       <r>  -11.4453    1.0000 </r>
       <r>   -7.7739    1.0000 </r>
       <r>   -6.4049    1.0000 </r>
       <r>   -4.0302    1.0000 </r>
       <r>   -0.3702    0.0000 </r>
       <r>    0.8169    0.0000 </r>
       <r>    2.4480    0.0000 </r>
       <r>    4.0471    0.0000 </r>
       <r>    5.3904    0.0000 </r>
       <r>    5.4543    0.0000 </r>
       <r>    5.9660    0.0000 </r>
      </set>
      <set comment="kpoint 60">
       <r>  -14.6258    1.0000 </r>
       <r>  -11.4453    1.0000 </r>
       <r>   -7.7739    1.0000 </r>
       <r>   -6.4049    1.0000 </r>
       <r>   -4.0302    1.0000 </r>
       <r>   -0.3702    0.0000 </r>
       <r>    0.8169    0.0000 </r>
       <r>    2.4480    0.0000 </r>
       <r>    4.0470    0.0000 </r>
       <r>    5.3938    0.0000 </r>
       <r>    5.4593    0.0000 </r>
       <r>    5.9358    0.0000 </r>
      </set>
      <set comment="kpoint 61">
       <r>  -13.9385    1.0000 </r>
       <r>  -12.2341    1.0000 </r>
       <r>   -8.0713    1.0000 </r>
       <r>   -5.8308    1.0000 </r>
       <r>   -4.5595    1.0000 </r>
       <r>   -0.6766    0.0000 </r>
       <r>    1.3871    0.0000 </r>
       <r>    1.9703    0.0000 </r>
       <r>    3.9100    0.0000 </r>
       <r>    5.9230    0.0000 </r>
       <r>    6.5322    0.0000 </r>
       <r>    6.8459    0.0000 </r>
      </set>
      <set comment="kpoint 62">
       <r>  -13.9385    1.0000 </r>
       <r>  -12.2341    1.0000 </r>
       <r>   -8.0713    1.0000 </r>
       <r>   -5.8308    1.0000 </r>
       <r>   -4.5595    1.0000 </r>
       <r>   -0.6766    0.0000 </r>
       <r>    1.3871    0.0000 </r>
       <r>    1.9703    0.0000 </r>
       <r>    3.9099    0.0000 </r>
       <r>    5.9243    0.0000 </r>
       <r>    6.5308    0.0000 </r>
       <r>    6.8373    0.0000 </r>
      </set>
      <set comment="kpoint 63">
       <r>  -13.8985    1.0000 </r>
       <r>  -12.1433    1.0000 </r>
       <r>   -8.3870    1.0000 </r>
       <r>   -5.8147    1.0000 </r>
       <r>   -4.4649    1.0000 </r>
       <r>   -0.8944    0.0000 </r>
       <r>    1.4042    0.0000 </r>
       <r>    2.6400    0.0000 </r>
       <r>    4.6397    0.0000 </r>
       <r>    5.4349    0.0000 </r>
       <r>    5.8797    0.0000 </r>
       <r>    6.4330    0.0000 </r>
      </set>
      <set comment="kpoint 64">
       <r>  -13.3574    1.0000 </r>
       <r>  -12.6725    1.0000 </r>
       <r>   -8.6030    1.0000 </r>
       <r>   -5.3650    1.0000 </r>
       <r>   -4.8494    1.0000 </r>
       <r>   -1.1036    0.0000 </r>
       <r>    1.9221    0.0000 </r>
       <r>    2.2699    0.0000 </r>
       <r>    4.7900    0.0000 </r>
       <r>    5.5711    0.0000 </r>
       <r>    6.7692    0.0000 </r>
       <r>    7.1828    0.0000 </r>
      </set>
     </set>
    </set>
   </array>
  </eigenvalues>
  <separator name="orbital magnetization" >
   <v name="MAGDIPOLOUT">      0.00000000      0.00000000      0.00000000</v>
  </separator>
  <dos>
   <i name="efermi">     -3.33990027 </i>
   <total>
    <array>
     <dimension dim="1">gridpoints</dimension>
     <dimension dim="2">spin</dimension>
     <field>energy</field>
     <field>total</field>
     <field>integrated</field>
     <set>
      <set comment="spin 1">
       <r>   -18.7019     0.0000     0.0000 </r>
       <r>   -18.6973     0.0000     0.0000 </r>
       <r>   -18.6928     0.0000     0.0000 </r>
       <r>   -18.6883     0.0000     0.0000 </r>
       <r>   -18.6838     0.0000     0.0000 </r>
       <r>   -18.6793     0.0000     0.0000 </r>
       <r>   -18.6747     0.0000     0.0000 </r>
       <r>   -18.6702     0.0000     0.0000 </r>
       <r>   -18.6657     0.0000     0.0000 </r>
       <r>   -18.6612     0.0000     0.0000 </r>
       <r>   -18.6567     0.0000     0.0000 </r>
       <r>   -18.6522     0.0000     0.0000 </r>
       <r>   -18.6476     0.0000     0.0000 </r>
       <r>   -18.6431     0.0000     0.0000 </r>
       <r>   -18.6386     0.0000     0.0000 </r>
       <r>   -18.6341     0.0000     0.0000 </r>
       <r>   -18.6296     0.0000     0.0000 </r>
       <r>   -18.6250     0.0000     0.0000 </r>
       <r>   -18.6205     0.0000     0.0000 </r>
       <r>   -18.6160     0.0000     0.0000 </r>
       <r>   -18.6115     0.0000     0.0000 </r>
       <r>   -18.6070     0.0000     0.0000 </r>
       <r>   -18.6024     0.0000     0.0000 </r>
       <r>   -18.5979     0.0000     0.0000 </r>
       <r>   -18.5934     0.0000     0.0000 </r>
       <r>   -18.5889     0.0000     0.0000 </r>
       <r>   -18.5844     0.0000     0.0000 </r>
       <r>   -18.5798     0.0000     0.0000 </r>
       <r>   -18.5753     0.0000     0.0000 </r>
       <r>   -18.5708     0.0000     0.0000 </r>
       <r>   -18.5663     0.0000     0.0000 </r>
       <r>   -18.5618     0.0000     0.0000 </r>
       <r>   -18.5572     0.0000     0.0000 </r>
       <r>   -18.5527     0.0000     0.0000 </r>
       <r>   -18.5482     0.0000     0.0000 </r>
       <r>   -18.5437     0.0000     0.0000 </r>
       <r>   -18.5392     0.0000     0.0000 </r>
       <r>   -18.5346     0.0000     0.0000 </r>
       <r>   -18.5301     0.0000     0.0000 </r>
       <r>   -18.5256     0.0000     0.0000 </r>
       <r>   -18.5211     0.0000     0.0000 </r>
       <r>   -18.5166     0.0000     0.0000 </r>
       <r>   -18.5120     0.0000     0.0000 </r>
       <r>   -18.5075     0.0000     0.0000 </r>
       <r>   -18.5030     0.0000     0.0000 </r>
       <r>   -18.4985     0.0000     0.0000 </r>
       <r>   -18.4940     0.0000     0.0000 </r>
       <r>   -18.4894     0.0000     0.0000 </r>
       <r>   -18.4849     0.0000     0.0000 </r>
       <r>   -18.4804     0.0000     0.0000 </r>
       <r>   -18.4759     0.0000     0.0000 </r>
       <r>   -18.4714     0.0000     0.0000 </r>
       <r>   -18.4668     0.0000     0.0000 </r>
       <r>   -18.4623     0.0000     0.0000 </r>
       <r>   -18.4578     0.0000     0.0000 </r>
       <r>   -18.4533     0.0000     0.0000 </r>
       <r>   -18.4488     0.0000     0.0000 </r>
       <r>   -18.4443     0.0000     0.0000 </r>
       <r>   -18.4397     0.0000     0.0000 </r>
       <r>   -18.4352     0.0000     0.0000 </r>
       <r>   -18.4307     0.0000     0.0000 </r>
       <r>   -18.4262     0.0000     0.0000 </r>
       <r>   -18.4217     0.0000     0.0000 </r>
       <r>   -18.4171     0.0000     0.0000 </r>
       <r>   -18.4126     0.0000     0.0000 </r>
       <r>   -18.4081     0.0000     0.0000 </r>
       <r>   -18.4036     0.0000     0.0000 </r>
       <r>   -18.3991     0.0000     0.0000 </r>
       <r>   -18.3945     0.0000     0.0000 </r>
       <r>   -18.3900     0.0000     0.0000 </r>
       <r>   -18.3855     0.0000     0.0000 </r>
       <r>   -18.3810     0.0000     0.0000 </r>
       <r>   -18.3765     0.0000     0.0000 </r>
       <r>   -18.3719     0.0000     0.0000 </r>
       <r>   -18.3674     0.0000     0.0000 </r>
       <r>   -18.3629     0.0000     0.0000 </r>
       <r>   -18.3584     0.0000     0.0000 </r>
       <r>   -18.3539     0.0000     0.0000 </r>
       <r>   -18.3493     0.0000     0.0000 </r>
       <r>   -18.3448     0.0000     0.0000 </r>
       <r>   -18.3403     0.0000     0.0000 </r>
       <r>   -18.3358     0.0000     0.0000 </r>
       <r>   -18.3313     0.0000     0.0000 </r>
       <r>   -18.3267     0.0000     0.0000 </r>
       <r>   -18.3222     0.0000     0.0000 </r>
       <r>   -18.3177     0.0000     0.0000 </r>
       <r>   -18.3132     0.0000     0.0000 </r>
       <r>   -18.3087     0.0000     0.0000 </r>
       <r>   -18.3041     0.0000     0.0000 </r>
       <r>   -18.2996     0.0000     0.0000 </r>
       <r>   -18.2951     0.0000     0.0000 </r>
       <r>   -18.2906     0.0000     0.0000 </r>
       <r>   -18.2861     0.0000     0.0000 </r>
       <r>   -18.2815     0.0000     0.0000 </r>
       <r>   -18.2770     0.0000     0.0000 </r>
       <r>   -18.2725     0.0000     0.0000 </r>
       <r>   -18.2680     0.0000     0.0000 </r>
       <r>   -18.2635     0.0000     0.0000 </r>
       <r>   -18.2590     0.0000     0.0000 </r>
       <r>   -18.2544     0.0000     0.0000 </r>
       <r>   -18.2499     0.0000     0.0000 </r>
       <r>   -18.2454     0.0000     0.0000 </r>
       <r>   -18.2409     0.0000     0.0000 </r>
       <r>   -18.2364     0.0000     0.0000 </r>
       <r>   -18.2318     0.0000     0.0000 </r>
       <r>   -18.2273     0.0000     0.0000 </r>
       <r>   -18.2228     0.0000     0.0000 </r>
       <r>   -18.2183     0.0000     0.0000 </r>
       <r>   -18.2138     0.0000     0.0000 </r>
       <r>   -18.2092     0.0000     0.0000 </r>
       <r>   -18.2047     0.0000     0.0000 </r>
       <r>   -18.2002     0.0000     0.0000 </r>
       <r>   -18.1957     0.0000     0.0000 </r>
       <r>   -18.1912     0.0000     0.0000 </r>
       <r>   -18.1866     0.0000     0.0000 </r>
       <r>   -18.1821     0.0000     0.0000 </r>
       <r>   -18.1776     0.0000     0.0000 </r>
       <r>   -18.1731     0.0000     0.0000 </r>
       <r>   -18.1686     0.0000     0.0000 </r>
       <r>   -18.1640     0.0000     0.0000 </r>
       <r>   -18.1595     0.0000     0.0000 </r>
       <r>   -18.1550     0.0000     0.0000 </r>
       <r>   -18.1505     0.0000     0.0000 </r>
       <r>   -18.1460     0.0000     0.0000 </r>
       <r>   -18.1414     0.0000     0.0000 </r>
       <r>   -18.1369     0.0000     0.0000 </r>
       <r>   -18.1324     0.0000     0.0000 </r>
       <r>   -18.1279     0.0000     0.0000 </r>
       <r>   -18.1234     0.0000     0.0000 </r>
       <r>   -18.1188     0.0000     0.0000 </r>
       <r>   -18.1143     0.0000     0.0000 </r>
       <r>   -18.1098     0.0000     0.0000 </r>
       <r>   -18.1053     0.0000     0.0000 </r>
       <r>   -18.1008     0.0000     0.0000 </r>
       <r>   -18.0962     0.0000     0.0000 </r>
       <r>   -18.0917     0.0000     0.0000 </r>
       <r>   -18.0872     0.0000     0.0000 </r>
       <r>   -18.0827     0.0000     0.0000 </r>
       <r>   -18.0782     0.0000     0.0000 </r>
       <r>   -18.0736     0.0000     0.0000 </r>
       <r>   -18.0691     0.0000     0.0000 </r>
       <r>   -18.0646     0.0000     0.0000 </r>
       <r>   -18.0601     0.0000     0.0000 </r>
       <r>   -18.0556     0.0000     0.0000 </r>
       <r>   -18.0511     0.0000     0.0000 </r>
       <r>   -18.0465     0.0000     0.0000 </r>
       <r>   -18.0420     0.0000     0.0000 </r>
       <r>   -18.0375     0.0000     0.0000 </r>
       <r>   -18.0330     0.0000     0.0000 </r>
       <r>   -18.0285     0.0000     0.0000 </r>
       <r>   -18.0239     0.0000     0.0000 </r>
       <r>   -18.0194     0.0000     0.0000 </r>
       <r>   -18.0149     0.0000     0.0000 </r>
       <r>   -18.0104     0.0000     0.0000 </r>
       <r>   -18.0059     0.0000     0.0000 </r>
       <r>   -18.0013     0.0000     0.0000 </r>
       <r>   -17.9968     0.0000     0.0000 </r>
       <r>   -17.9923     0.0000     0.0000 </r>
       <r>   -17.9878     0.0000     0.0000 </r>
       <r>   -17.9833     0.0000     0.0000 </r>
       <r>   -17.9787     0.0000     0.0000 </r>
       <r>   -17.9742     0.0000     0.0000 </r>
       <r>   -17.9697     0.0000     0.0000 </r>
       <r>   -17.9652     0.0000     0.0000 </r>
       <r>   -17.9607     0.0000     0.0000 </r>
       <r>   -17.9561     0.0000     0.0000 </r>
       <r>   -17.9516     0.0000     0.0000 </r>
       <r>   -17.9471     0.0000     0.0000 </r>
       <r>   -17.9426     0.0000     0.0000 </r>
       <r>   -17.9381     0.0000     0.0000 </r>
       <r>   -17.9335     0.0000     0.0000 </r>
       <r>   -17.9290     0.0000     0.0000 </r>
       <r>   -17.9245     0.0000     0.0000 </r>
       <r>   -17.9200     0.0000     0.0000 </r>
       <r>   -17.9155     0.0000     0.0000 </r>
       <r>   -17.9109     0.0000     0.0000 </r>
       <r>   -17.9064     0.0000     0.0000 </r>
       <r>   -17.9019     0.0000     0.0000 </r>
       <r>   -17.8974     0.0000     0.0000 </r>
       <r>   -17.8929     0.0000     0.0000 </r>
       <r>   -17.8883     0.0000     0.0000 </r>
       <r>   -17.8838     0.0000     0.0000 </r>
       <r>   -17.8793     0.0000     0.0000 </r>
       <r>   -17.8748     0.0000     0.0000 </r>
       <r>   -17.8703     0.0000     0.0000 </r>
       <r>   -17.8657     0.0000     0.0000 </r>
       <r>   -17.8612     0.0000     0.0000 </r>
       <r>   -17.8567     0.0000     0.0000 </r>
       <r>   -17.8522     0.0000     0.0000 </r>
       <r>   -17.8477     0.0000     0.0000 </r>
       <r>   -17.8432     0.0000     0.0000 </r>
       <r>   -17.8386     0.0000     0.0000 </r>
       <r>   -17.8341     0.0000     0.0000 </r>
       <r>   -17.8296     0.0000     0.0000 </r>
       <r>   -17.8251     0.0000     0.0000 </r>
       <r>   -17.8206     0.0000     0.0000 </r>
       <r>   -17.8160     0.0000     0.0000 </r>
       <r>   -17.8115     0.0000     0.0000 </r>
       <r>   -17.8070     0.0000     0.0000 </r>
       <r>   -17.8025     0.0000     0.0000 </r>
       <r>   -17.7980     0.0000     0.0000 </r>
       <r>   -17.7934     0.0000     0.0000 </r>
       <r>   -17.7889     0.0000     0.0000 </r>
       <r>   -17.7844     0.0000     0.0000 </r>
       <r>   -17.7799     0.0000     0.0000 </r>
       <r>   -17.7754     0.0000     0.0000 </r>
       <r>   -17.7708     0.0000     0.0000 </r>
       <r>   -17.7663     0.0000     0.0000 </r>
       <r>   -17.7618     0.0000     0.0000 </r>
       <r>   -17.7573     0.0000     0.0000 </r>
       <r>   -17.7528     0.0000     0.0000 </r>
       <r>   -17.7482     0.0000     0.0000 </r>
       <r>   -17.7437     0.0000     0.0000 </r>
       <r>   -17.7392     0.0000     0.0000 </r>
       <r>   -17.7347     0.0000     0.0000 </r>
       <r>   -17.7302     0.0000     0.0000 </r>
       <r>   -17.7256     0.0000     0.0000 </r>
       <r>   -17.7211     0.0000     0.0000 </r>
       <r>   -17.7166     0.0000     0.0000 </r>
       <r>   -17.7121     0.0000     0.0000 </r>
       <r>   -17.7076     0.0000     0.0000 </r>
       <r>   -17.7030     0.0000     0.0000 </r>
       <r>   -17.6985     0.0000     0.0000 </r>
       <r>   -17.6940     0.0000     0.0000 </r>
       <r>   -17.6895     0.0000     0.0000 </r>
       <r>   -17.6850     0.0000     0.0000 </r>
       <r>   -17.6804     0.0000     0.0000 </r>
       <r>   -17.6759     0.0000     0.0000 </r>
       <r>   -17.6714     0.0000     0.0000 </r>
       <r>   -17.6669     0.0000     0.0000 </r>
       <r>   -17.6624     0.0000     0.0000 </r>
       <r>   -17.6578     0.0000     0.0000 </r>
       <r>   -17.6533     0.0000     0.0000 </r>
       <r>   -17.6488     0.0000     0.0000 </r>
       <r>   -17.6443     0.0000     0.0000 </r>
       <r>   -17.6398     0.0000     0.0000 </r>
       <r>   -17.6353     0.0000     0.0000 </r>
       <r>   -17.6307     0.0000     0.0000 </r>
       <r>   -17.6262     0.0000     0.0000 </r>
       <r>   -17.6217     0.0000     0.0000 </r>
       <r>   -17.6172     0.0000     0.0000 </r>
       <r>   -17.6127     0.0000     0.0000 </r>
       <r>   -17.6081     0.0000     0.0000 </r>
       <r>   -17.6036     0.0000     0.0000 </r>
       <r>   -17.5991     0.0000     0.0000 </r>
       <r>   -17.5946     0.0000     0.0000 </r>
       <r>   -17.5901     0.0000     0.0000 </r>
       <r>   -17.5855     0.0000     0.0000 </r>
       <r>   -17.5810     0.0000     0.0000 </r>
       <r>   -17.5765     0.0000     0.0000 </r>
       <r>   -17.5720     0.0000     0.0000 </r>
       <r>   -17.5675     0.0000     0.0000 </r>
       <r>   -17.5629     0.0000     0.0000 </r>
       <r>   -17.5584     0.0000     0.0000 </r>
       <r>   -17.5539     0.0000     0.0000 </r>
       <r>   -17.5494     0.0000     0.0000 </r>
       <r>   -17.5449     0.0000     0.0000 </r>
       <r>   -17.5403     0.0000     0.0000 </r>
       <r>   -17.5358     0.0000     0.0000 </r>
       <r>   -17.5313     0.0000     0.0000 </r>
       <r>   -17.5268     0.0000     0.0000 </r>
       <r>   -17.5223     0.0000     0.0000 </r>
       <r>   -17.5177     0.0000     0.0000 </r>
       <r>   -17.5132     0.0000     0.0000 </r>
       <r>   -17.5087     0.0000     0.0000 </r>
       <r>   -17.5042     0.0000     0.0000 </r>
       <r>   -17.4997     0.0000     0.0000 </r>
       <r>   -17.4951     0.0003     0.0000 </r>
       <r>   -17.4906     0.0026     0.0000 </r>
       <r>   -17.4861     0.0166     0.0001 </r>
       <r>   -17.4816     0.0723     0.0004 </r>
       <r>   -17.4771     0.2125     0.0014 </r>
       <r>   -17.4725     0.4204     0.0033 </r>
       <r>   -17.4680     0.5603     0.0058 </r>
       <r>   -17.4635     0.5032     0.0081 </r>
       <r>   -17.4590     0.3045     0.0095 </r>
       <r>   -17.4545     0.1241     0.0100 </r>
       <r>   -17.4500     0.0340     0.0102 </r>
       <r>   -17.4454     0.0063     0.0102 </r>
       <r>   -17.4409     0.0008     0.0102 </r>
       <r>   -17.4364     0.0001     0.0102 </r>
       <r>   -17.4319     0.0000     0.0102 </r>
       <r>   -17.4274     0.0000     0.0102 </r>
       <r>   -17.4228     0.0000     0.0102 </r>
       <r>   -17.4183     0.0001     0.0102 </r>
       <r>   -17.4138     0.0011     0.0102 </r>
       <r>   -17.4093     0.0112     0.0103 </r>
       <r>   -17.4048     0.0771     0.0106 </r>
       <r>   -17.4002     0.3570     0.0122 </r>
       <r>   -17.3957     1.1128     0.0173 </r>
       <r>   -17.3912     2.3356     0.0278 </r>
       <r>   -17.3867     3.3023     0.0427 </r>
       <r>   -17.3822     3.1459     0.0570 </r>
       <r>   -17.3776     2.0193     0.0661 </r>
       <r>   -17.3731     0.8731     0.0700 </r>
       <r>   -17.3686     0.2542     0.0712 </r>
       <r>   -17.3641     0.0498     0.0714 </r>
       <r>   -17.3596     0.0066     0.0714 </r>
       <r>   -17.3550     0.0006     0.0714 </r>
       <r>   -17.3505     0.0000     0.0714 </r>
       <r>   -17.3460     0.0000     0.0714 </r>
       <r>   -17.3415     0.0000     0.0714 </r>
       <r>   -17.3370     0.0000     0.0714 </r>
       <r>   -17.3324     0.0000     0.0714 </r>
       <r>   -17.3279     0.0000     0.0714 </r>
       <r>   -17.3234     0.0000     0.0714 </r>
       <r>   -17.3189     0.0000     0.0714 </r>
       <r>   -17.3144     0.0000     0.0714 </r>
       <r>   -17.3098     0.0000     0.0714 </r>
       <r>   -17.3053     0.0000     0.0714 </r>
       <r>   -17.3008     0.0000     0.0714 </r>
       <r>   -17.2963     0.0000     0.0714 </r>
       <r>   -17.2918     0.0000     0.0714 </r>
       <r>   -17.2872     0.0000     0.0714 </r>
       <r>   -17.2827     0.0000     0.0714 </r>
       <r>   -17.2782     0.0000     0.0714 </r>
       <r>   -17.2737     0.0000     0.0714 </r>
       <r>   -17.2692     0.0000     0.0714 </r>
       <r>   -17.2646     0.0000     0.0714 </r>
       <r>   -17.2601     0.0000     0.0714 </r>
       <r>   -17.2556     0.0000     0.0714 </r>
       <r>   -17.2511     0.0007     0.0714 </r>
       <r>   -17.2466     0.0077     0.0715 </r>
       <r>   -17.2421     0.0570     0.0717 </r>
       <r>   -17.2375     0.2826     0.0730 </r>
       <r>   -17.2330     0.9423     0.0773 </r>
       <r>   -17.2285     2.1160     0.0868 </r>
       <r>   -17.2240     3.2008     0.1013 </r>
       <r>   -17.2195     3.2621     0.1160 </r>
       <r>   -17.2149     2.2401     0.1262 </r>
       <r>   -17.2104     1.0362     0.1308 </r>
       <r>   -17.2059     0.3228     0.1323 </r>
       <r>   -17.2014     0.0677     0.1326 </r>
       <r>   -17.1969     0.0095     0.1326 </r>
       <r>   -17.1923     0.0009     0.1327 </r>
       <r>   -17.1878     0.0001     0.1327 </r>
       <r>   -17.1833     0.0000     0.1327 </r>
       <r>   -17.1788     0.0000     0.1327 </r>
       <r>   -17.1743     0.0000     0.1327 </r>
       <r>   -17.1697     0.0007     0.1327 </r>
       <r>   -17.1652     0.0075     0.1327 </r>
       <r>   -17.1607     0.0557     0.1329 </r>
       <r>   -17.1562     0.2774     0.1342 </r>
       <r>   -17.1517     0.9299     0.1384 </r>
       <r>   -17.1471     2.0990     0.1479 </r>
       <r>   -17.1426     3.1915     0.1623 </r>
       <r>   -17.1381     3.2697     0.1771 </r>
       <r>   -17.1336     2.2570     0.1873 </r>
       <r>   -17.1291     1.0495     0.1920 </r>
[...]
        <r>  0.0182  0.0738  0.0623 </r>
       </set>
       <set comment="band 10">
        <r>  0.0004  0.0375  0.0409 </r>
        <r>  0.0004  0.0375  0.0409 </r>
       </set>
       <set comment="band 11">
        <r>  0.0027  0.0178  0.0266 </r>
        <r>  0.0027  0.0178  0.0266 </r>
       </set>
       <set comment="band 12">
        <r>  0.0010  0.0077  0.0369 </r>
        <r>  0.0010  0.0077  0.0369 </r>
       </set>
      </set>
      <set comment="kpoint 53">
       <set comment="band 1">
        <r>  0.2564  0.0370  0.0038 </r>
        <r>  0.2564  0.0370  0.0038 </r>
       </set>
       <set comment="band 2">
        <r>  0.2605  0.0659  0.0116 </r>
        <r>  0.2605  0.0659  0.0116 </r>
       </set>
       <set comment="band 3">
        <r>  0.0559  0.1818  0.0088 </r>
        <r>  0.0559  0.1818  0.0088 </r>
       </set>
       <set comment="band 4">
        <r>  0.0093  0.2277  0.0167 </r>
        <r>  0.0093  0.2277  0.0167 </r>
       </set>
       <set comment="band 5">
        <r>  0.0442  0.2358  0.0022 </r>
        <r>  0.0442  0.2358  0.0022 </r>
       </set>
       <set comment="band 6">
        <r>  0.0277  0.1743  0.0353 </r>
        <r>  0.0277  0.1743  0.0353 </r>
       </set>
       <set comment="band 7">
        <r>  0.0117  0.2092  0.0418 </r>
        <r>  0.0117  0.2092  0.0418 </r>
       </set>
       <set comment="band 8">
        <r>  0.0298  0.1436  0.0698 </r>
        <r>  0.0298  0.1436  0.0698 </r>
       </set>
       <set comment="band 9">
        <r>  0.0076  0.1141  0.0807 </r>
        <r>  0.0076  0.1141  0.0807 </r>
       </set>
       <set comment="band 10">
        <r>  0.0054  0.0175  0.0126 </r>
        <r>  0.0054  0.0175  0.0126 </r>
       </set>
       <set comment="band 11">
        <r>  0.0002  0.0264  0.0188 </r>
        <r>  0.0002  0.0264  0.0188 </r>
       </set>
       <set comment="band 12">
        <r>  0.0047  0.0433  0.1468 </r>
        <r>  0.0047  0.0433  0.1468 </r>
       </set>
      </set>
      <set comment="kpoint 54">
       <set comment="band 1">
        <r>  0.2564  0.0370  0.0038 </r>
        <r>  0.2564  0.0370  0.0038 </r>
       </set>
       <set comment="band 2">
        <r>  0.2605  0.0659  0.0116 </r>
        <r>  0.2605  0.0659  0.0116 </r>
       </set>
       <set comment="band 3">
        <r>  0.0559  0.1818  0.0088 </r>
        <r>  0.0559  0.1818  0.0088 </r>
       </set>
       <set comment="band 4">
        <r>  0.0093  0.2277  0.0167 </r>
        <r>  0.0093  0.2277  0.0167 </r>
       </set>
       <set comment="band 5">
        <r>  0.0442  0.2358  0.0022 </r>
        <r>  0.0442  0.2358  0.0022 </r>
       </set>
       <set comment="band 6">
        <r>  0.0277  0.1743  0.0353 </r>
        <r>  0.0277  0.1743  0.0353 </r>
       </set>
       <set comment="band 7">
        <r>  0.0117  0.2092  0.0418 </r>
        <r>  0.0117  0.2092  0.0418 </r>
       </set>
       <set comment="band 8">
        <r>  0.0298  0.1436  0.0698 </r>
        <r>  0.0298  0.1436  0.0698 </r>
       </set>
       <set comment="band 9">
        <r>  0.0077  0.1129  0.0799 </r>
        <r>  0.0077  0.1129  0.0799 </r>
       </set>
       <set comment="band 10">
        <r>  0.0052  0.0201  0.0136 </r>
        <r>  0.0052  0.0201  0.0136 </r>
       </set>
       <set comment="band 11">
        <r>  0.0008  0.0209  0.0204 </r>
        <r>  0.0008  0.0209  0.0204 </r>
       </set>
       <set comment="band 12">
        <r>  0.0081  0.0498  0.1532 </r>
        <r>  0.0081  0.0498  0.1532 </r>
       </set>
      </set>
      <set comment="kpoint 55">
       <set comment="band 1">
        <r>  0.2614  0.0407  0.0055 </r>
        <r>  0.2614  0.0407  0.0055 </r>
       </set>
       <set comment="band 2">
        <r>  0.2359  0.0735  0.0095 </r>
        <r>  0.2359  0.0735  0.0095 </r>
       </set>
       <set comment="band 3">
        <r>  0.0533  0.1974  0.0135 </r>
        <r>  0.0533  0.1974  0.0135 </r>
       </set>
       <set comment="band 4">
        <r>  0.0396  0.2027  0.0091 </r>
        <r>  0.0396  0.2027  0.0091 </r>
       </set>
       <set comment="band 5">
        <r>  0.0517  0.2173  0.0034 </r>
        <r>  0.0517  0.2173  0.0034 </r>
       </set>
       <set comment="band 6">
        <r>  0.0108  0.1820  0.0364 </r>
        <r>  0.0108  0.1820  0.0364 </r>
       </set>
       <set comment="band 7">
        <r>  0.0306  0.1791  0.0588 </r>
        <r>  0.0306  0.1791  0.0588 </r>
       </set>
       <set comment="band 8">
        <r>  0.0181  0.1764  0.0493 </r>
        <r>  0.0181  0.1764  0.0493 </r>
       </set>
       <set comment="band 9">
        <r>  0.0007  0.0625  0.0995 </r>
        <r>  0.0007  0.0625  0.0995 </r>
       </set>
       <set comment="band 10">
        <r>  0.0093  0.0103  0.0132 </r>
        <r>  0.0093  0.0103  0.0132 </r>
       </set>
       <set comment="band 11">
        <r>  0.0004  0.0392  0.0141 </r>
        <r>  0.0004  0.0392  0.0141 </r>
       </set>
       <set comment="band 12">
        <r>  0.0071  0.0913  0.1197 </r>
        <r>  0.0071  0.0913  0.1197 </r>
       </set>
      </set>
      <set comment="kpoint 56">
       <set comment="band 1">
        <r>  0.2614  0.0407  0.0055 </r>
        <r>  0.2614  0.0407  0.0055 </r>
       </set>
       <set comment="band 2">
        <r>  0.2359  0.0735  0.0095 </r>
        <r>  0.2359  0.0735  0.0095 </r>
       </set>
       <set comment="band 3">
        <r>  0.0533  0.1974  0.0135 </r>
        <r>  0.0533  0.1974  0.0135 </r>
       </set>
       <set comment="band 4">
        <r>  0.0396  0.2027  0.0091 </r>
        <r>  0.0396  0.2027  0.0091 </r>
       </set>
       <set comment="band 5">
        <r>  0.0517  0.2173  0.0034 </r>
        <r>  0.0517  0.2173  0.0034 </r>
       </set>
       <set comment="band 6">
        <r>  0.0108  0.1820  0.0364 </r>
        <r>  0.0108  0.1820  0.0364 </r>
       </set>
       <set comment="band 7">
        <r>  0.0306  0.1791  0.0588 </r>
        <r>  0.0306  0.1791  0.0588 </r>
       </set>
       <set comment="band 8">
        <r>  0.0181  0.1764  0.0493 </r>
        <r>  0.0181  0.1764  0.0493 </r>
       </set>
       <set comment="band 9">
        <r>  0.0007  0.0625  0.0995 </r>
        <r>  0.0007  0.0625  0.0995 </r>
       </set>
       <set comment="band 10">
        <r>  0.0095  0.0102  0.0128 </r>
        <r>  0.0095  0.0102  0.0128 </r>
       </set>
       <set comment="band 11">
        <r>  0.0008  0.0358  0.0167 </r>
        <r>  0.0008  0.0358  0.0167 </r>
       </set>
       <set comment="band 12">
        <r>  0.0066  0.0943  0.1211 </r>
        <r>  0.0066  0.0943  0.1211 </r>
       </set>
      </set>
      <set comment="kpoint 57">
       <set comment="band 1">
        <r>  0.2706  0.0399  0.0068 </r>
        <r>  0.2706  0.0399  0.0068 </r>
       </set>
       <set comment="band 2">
        <r>  0.2210  0.0771  0.0079 </r>
        <r>  0.2210  0.0771  0.0079 </r>
       </set>
       <set comment="band 3">
        <r>  0.0507  0.2008  0.0141 </r>
        <r>  0.0507  0.2008  0.0141 </r>
       </set>
       <set comment="band 4">
        <r>  0.0539  0.2020  0.0074 </r>
        <r>  0.0539  0.2020  0.0074 </r>
       </set>
       <set comment="band 5">
        <r>  0.0505  0.2045  0.0043 </r>
        <r>  0.0505  0.2045  0.0043 </r>
       </set>
       <set comment="band 6">
        <r>  0.0002  0.1892  0.0355 </r>
        <r>  0.0002  0.1892  0.0355 </r>
       </set>
       <set comment="band 7">
        <r>  0.0436  0.1674  0.0658 </r>
        <r>  0.0436  0.1674  0.0658 </r>
       </set>
       <set comment="band 8">
        <r>  0.0131  0.2014  0.0378 </r>
        <r>  0.0131  0.2014  0.0378 </r>
       </set>
       <set comment="band 9">
        <r>  0.0000  0.0300  0.1067 </r>
        <r>  0.0000  0.0300  0.1067 </r>
       </set>
       <set comment="band 10">
        <r>  0.0132  0.0224  0.0413 </r>
        <r>  0.0132  0.0224  0.0413 </r>
       </set>
       <set comment="band 11">
        <r>  0.0079  0.0247  0.0132 </r>
        <r>  0.0079  0.0247  0.0132 </r>
       </set>
       <set comment="band 12">
        <r>  0.0001  0.0558  0.0568 </r>
        <r>  0.0001  0.0559  0.0568 </r>
       </set>
      </set>
      <set comment="kpoint 58">
       <set comment="band 1">
        <r>  0.2557  0.0368  0.0036 </r>
        <r>  0.2557  0.0368  0.0036 </r>
       </set>
       <set comment="band 2">
        <r>  0.2776  0.0586  0.0120 </r>
        <r>  0.2776  0.0586  0.0120 </r>
       </set>
       <set comment="band 3">
        <r>  0.0128  0.2219  0.0188 </r>
        <r>  0.0128  0.2219  0.0188 </r>
       </set>
       <set comment="band 4">
        <r>  0.0372  0.1877  0.0070 </r>
        <r>  0.0372  0.1877  0.0070 </r>
       </set>
       <set comment="band 5">
        <r>  0.0416  0.2407  0.0021 </r>
        <r>  0.0416  0.2407  0.0021 </r>
       </set>
       <set comment="band 6">
        <r>  0.0069  0.2079  0.0321 </r>
        <r>  0.0069  0.2079  0.0321 </r>
       </set>
       <set comment="band 7">
        <r>  0.0301  0.1676  0.0344 </r>
        <r>  0.0301  0.1676  0.0344 </r>
       </set>
       <set comment="band 8">
        <r>  0.0503  0.2406  0.0407 </r>
        <r>  0.0503  0.2406  0.0407 </r>
       </set>
       <set comment="band 9">
        <r>  0.0003  0.0524  0.1361 </r>
        <r>  0.0003  0.0524  0.1361 </r>
       </set>
       <set comment="band 10">
        <r>  0.0050  0.0045  0.0247 </r>
        <r>  0.0050  0.0045  0.0247 </r>
       </set>
       <set comment="band 11">
        <r>  0.0003  0.0234  0.0253 </r>
        <r>  0.0003  0.0234  0.0253 </r>
       </set>
       <set comment="band 12">
        <r>  0.0020  0.0366  0.1254 </r>
        <r>  0.0020  0.0366  0.1254 </r>
       </set>
      </set>
      <set comment="kpoint 59">
       <set comment="band 1">
        <r>  0.2577  0.0419  0.0051 </r>
        <r>  0.2577  0.0419  0.0051 </r>
       </set>
       <set comment="band 2">
        <r>  0.2615  0.0640  0.0108 </r>
        <r>  0.2615  0.0640  0.0108 </r>
       </set>
       <set comment="band 3">
        <r>  0.0170  0.2114  0.0161 </r>
        <r>  0.0170  0.2114  0.0161 </r>
       </set>
       <set comment="band 4">
        <r>  0.0542  0.1850  0.0060 </r>
        <r>  0.0542  0.1850  0.0060 </r>
       </set>
       <set comment="band 5">
        <r>  0.0527  0.2285  0.0029 </r>
        <r>  0.0527  0.2285  0.0029 </r>
       </set>
       <set comment="band 6">
        <r>  0.0039  0.1880  0.0328 </r>
        <r>  0.0039  0.1880  0.0328 </r>
       </set>
       <set comment="band 7">
        <r>  0.0234  0.1678  0.0386 </r>
        <r>  0.0234  0.1678  0.0386 </r>
       </set>
       <set comment="band 8">
        <r>  0.0368  0.2125  0.0520 </r>
        <r>  0.0368  0.2125  0.0520 </r>
       </set>
       <set comment="band 9">
        <r>  0.0020  0.0776  0.1229 </r>
        <r>  0.0020  0.0776  0.1229 </r>
       </set>
       <set comment="band 10">
        <r>  0.0001  0.0227  0.0845 </r>
        <r>  0.0001  0.0227  0.0845 </r>
       </set>
       <set comment="band 11">
        <r>  0.0143  0.0393  0.0756 </r>
        <r>  0.0143  0.0393  0.0756 </r>
       </set>
       <set comment="band 12">
        <r>  0.0003  0.0490  0.0300 </r>
        <r>  0.0003  0.0490  0.0300 </r>
       </set>
      </set>
      <set comment="kpoint 60">
       <set comment="band 1">
        <r>  0.2577  0.0419  0.0051 </r>
        <r>  0.2577  0.0419  0.0051 </r>
       </set>
       <set comment="band 2">
        <r>  0.2615  0.0640  0.0108 </r>
        <r>  0.2615  0.0640  0.0108 </r>
       </set>
       <set comment="band 3">
        <r>  0.0170  0.2114  0.0161 </r>
        <r>  0.0170  0.2114  0.0161 </r>
       </set>
       <set comment="band 4">
        <r>  0.0542  0.1850  0.0060 </r>
        <r>  0.0542  0.1850  0.0060 </r>
       </set>
       <set comment="band 5">
        <r>  0.0527  0.2285  0.0029 </r>
        <r>  0.0527  0.2285  0.0029 </r>
       </set>
       <set comment="band 6">
        <r>  0.0039  0.1880  0.0328 </r>
        <r>  0.0039  0.1880  0.0328 </r>
       </set>
       <set comment="band 7">
        <r>  0.0234  0.1678  0.0386 </r>
        <r>  0.0234  0.1678  0.0386 </r>
       </set>
       <set comment="band 8">
        <r>  0.0368  0.2125  0.0520 </r>
        <r>  0.0368  0.2125  0.0520 </r>
       </set>
       <set comment="band 9">
        <r>  0.0020  0.0776  0.1229 </r>
        <r>  0.0020  0.0776  0.1229 </r>
       </set>
       <set comment="band 10">
        <r>  0.0000  0.0251  0.0933 </r>
        <r>  0.0000  0.0251  0.0933 </r>
       </set>
       <set comment="band 11">
        <r>  0.0145  0.0370  0.0662 </r>
        <r>  0.0145  0.0370  0.0662 </r>
       </set>
       <set comment="band 12">
        <r>  0.0001  0.0463  0.0309 </r>
        <r>  0.0001  0.0463  0.0309 </r>
       </set>
      </set>
      <set comment="kpoint 61">
       <set comment="band 1">
        <r>  0.2650  0.0441  0.0068 </r>
        <r>  0.2650  0.0441  0.0068 </r>
       </set>
       <set comment="band 2">
        <r>  0.2461  0.0664  0.0090 </r>
        <r>  0.2461  0.0664  0.0090 </r>
       </set>
       <set comment="band 3">
        <r>  0.0209  0.2061  0.0148 </r>
        <r>  0.0209  0.2061  0.0148 </r>
       </set>
       <set comment="band 4">
        <r>  0.0637  0.1915  0.0054 </r>
        <r>  0.0637  0.1915  0.0054 </r>
       </set>
       <set comment="band 5">
        <r>  0.0568  0.2115  0.0039 </r>
        <r>  0.0568  0.2115  0.0039 </r>
       </set>
       <set comment="band 6">
        <r>  0.0014  0.1827  0.0325 </r>
        <r>  0.0014  0.1827  0.0325 </r>
       </set>
       <set comment="band 7">
        <r>  0.0230  0.1803  0.0426 </r>
        <r>  0.0230  0.1803  0.0426 </r>
       </set>
       <set comment="band 8">
        <r>  0.0295  0.1991  0.0489 </r>
        <r>  0.0295  0.1991  0.0489 </r>
       </set>
       <set comment="band 9">
        <r>  0.0009  0.0369  0.1298 </r>
        <r>  0.0009  0.0369  0.1298 </r>
       </set>
       <set comment="band 10">
        <r>  0.0066  0.0608  0.0981 </r>
        <r>  0.0066  0.0608  0.0981 </r>
       </set>
       <set comment="band 11">
        <r>  0.0046  0.0127  0.0197 </r>
        <r>  0.0046  0.0127  0.0197 </r>
       </set>
       <set comment="band 12">
        <r>  0.0031  0.1079  0.0684 </r>
        <r>  0.0031  0.1079  0.0684 </r>
       </set>
      </set>
      <set comment="kpoint 62">
       <set comment="band 1">
        <r>  0.2650  0.0441  0.0068 </r>
        <r>  0.2650  0.0441  0.0068 </r>
       </set>
       <set comment="band 2">
        <r>  0.2461  0.0664  0.0090 </r>
        <r>  0.2461  0.0664  0.0090 </r>
       </set>
       <set comment="band 3">
        <r>  0.0209  0.2061  0.0148 </r>
        <r>  0.0209  0.2061  0.0148 </r>
       </set>
       <set comment="band 4">
        <r>  0.0637  0.1915  0.0054 </r>
        <r>  0.0637  0.1915  0.0054 </r>
       </set>
       <set comment="band 5">
        <r>  0.0568  0.2115  0.0039 </r>
        <r>  0.0568  0.2115  0.0039 </r>
       </set>
       <set comment="band 6">
        <r>  0.0014  0.1827  0.0325 </r>
        <r>  0.0014  0.1827  0.0325 </r>
       </set>
       <set comment="band 7">
        <r>  0.0230  0.1803  0.0426 </r>
        <r>  0.0230  0.1803  0.0426 </r>
       </set>
       <set comment="band 8">
        <r>  0.0295  0.1991  0.0489 </r>
        <r>  0.0295  0.1991  0.0489 </r>
       </set>
       <set comment="band 9">
        <r>  0.0009  0.0369  0.1298 </r>
        <r>  0.0009  0.0369  0.1298 </r>
       </set>
       <set comment="band 10">
        <r>  0.0066  0.0610  0.0987 </r>
        <r>  0.0066  0.0610  0.0987 </r>
       </set>
       <set comment="band 11">
        <r>  0.0054  0.0119  0.0158 </r>
        <r>  0.0054  0.0119  0.0158 </r>
       </set>
       <set comment="band 12">
        <r>  0.0018  0.1064  0.0731 </r>
        <r>  0.0018  0.1064  0.0731 </r>
       </set>
      </set>
      <set comment="kpoint 63">
       <set comment="band 1">
        <r>  0.2609  0.0466  0.0066 </r>
        <r>  0.2609  0.0466  0.0066 </r>
       </set>
       <set comment="band 2">
        <r>  0.2632  0.0593  0.0098 </r>
        <r>  0.2632  0.0593  0.0098 </r>
       </set>
       <set comment="band 3">
        <r>  0.0062  0.2091  0.0143 </r>
        <r>  0.0062  0.2091  0.0143 </r>
       </set>
       <set comment="band 4">
        <r>  0.0645  0.1890  0.0050 </r>
        <r>  0.0645  0.1890  0.0050 </r>
       </set>
       <set comment="band 5">
        <r>  0.0605  0.2171  0.0036 </r>
        <r>  0.0605  0.2171  0.0036 </r>
       </set>
       <set comment="band 6">
        <r>  0.0015  0.1758  0.0317 </r>
        <r>  0.0015  0.1758  0.0317 </r>
       </set>
       <set comment="band 7">
        <r>  0.0192  0.1675  0.0412 </r>
        <r>  0.0192  0.1675  0.0412 </r>
       </set>
       <set comment="band 8">
        <r>  0.0289  0.2265  0.0342 </r>
        <r>  0.0289  0.2265  0.0342 </r>
       </set>
       <set comment="band 9">
        <r>  0.0014  0.0596  0.1622 </r>
        <r>  0.0014  0.0596  0.1622 </r>
       </set>
       <set comment="band 10">
        <r>  0.0122  0.0724  0.1350 </r>
        <r>  0.0122  0.0724  0.1350 </r>
       </set>
       <set comment="band 11">
        <r>  0.0014  0.0583  0.0664 </r>
        <r>  0.0014  0.0583  0.0664 </r>
       </set>
       <set comment="band 12">
        <r>  0.0066  0.0108  0.0124 </r>
        <r>  0.0066  0.0108  0.0124 </r>
       </set>
      </set>
      <set comment="kpoint 64">
       <set comment="band 1">
        <r>  0.2660  0.0487  0.0078 </r>
        <r>  0.2660  0.0487  0.0078 </r>
       </set>
       <set comment="band 2">
        <r>  0.2599  0.0570  0.0087 </r>
        <r>  0.2599  0.0570  0.0087 </r>
       </set>
       <set comment="band 3">
        <r>  0.0033  0.2079  0.0135 </r>
        <r>  0.0033  0.2079  0.0135 </r>
       </set>
       <set comment="band 4">
        <r>  0.0673  0.1974  0.0046 </r>
        <r>  0.0673  0.1974  0.0046 </r>
       </set>
       <set comment="band 5">
        <r>  0.0633  0.2069  0.0041 </r>
        <r>  0.0633  0.2069  0.0041 </r>
       </set>
       <set comment="band 6">
        <r>  0.0004  0.1707  0.0313 </r>
        <r>  0.0004  0.1707  0.0313 </r>
       </set>
       <set comment="band 7">
        <r>  0.0180  0.1795  0.0413 </r>
        <r>  0.0180  0.1795  0.0413 </r>
       </set>
       <set comment="band 8">
        <r>  0.0241  0.2002  0.0395 </r>
        <r>  0.0241  0.2002  0.0395 </r>
       </set>
       <set comment="band 9">
        <r>  0.0017  0.0486  0.1581 </r>
        <r>  0.0017  0.0486  0.1581 </r>
       </set>
       <set comment="band 10">
        <r>  0.0082  0.0658  0.0936 </r>
        <r>  0.0082  0.0658  0.0936 </r>
       </set>
       <set comment="band 11">
        <r>  0.0081  0.1484  0.0992 </r>
        <r>  0.0081  0.1484  0.0992 </r>
       </set>
       <set comment="band 12">
        <r>  0.0041  0.0651  0.1343 </r>
        <r>  0.0041  0.0651  0.1343 </r>
       </set>
      </set>
     </set>
    </set>
   </array>
  </projected>
 </calculation>
 <structure name="finalpos" >
  <crystal>
   <varray name="basis" >
    <v>       3.28234349       0.00000000       0.00000000 </v>
    <v>      -1.64117175       2.84259285       0.00000000 </v>
    <v>       0.00000000       0.00000000      16.00000000 </v>
   </varray>
   <i name="volume">    149.28585836 </i>
   <varray name="rec_basis" >
    <v>       0.30466038       0.17589575       0.00000000 </v>
    <v>       0.00000000       0.35179150       0.00000000 </v>
    <v>       0.00000000       0.00000000       0.06250000 </v>
   </varray>
  </crystal>
  <varray name="positions" >
   <v>       0.66666667       0.33333333       0.46118284 </v>
   <v>       0.33333333       0.66666667       0.53881716 </v>
  </varray>
 </structure>
</modeling>
