   2   2   1   0
  0.7464293E+02  0.3282344E-09  0.3282344E-09  0.1600000E-08  0.5000000E-15
  1.000000000000000E-004
  CAR 
 unknown system                          
     11.24908617    -18.84089782 6001     -3.33952148      1.00000000
    -18.841  0.0000E+00  0.0000E+00
    -18.836  0.0000E+00  0.0000E+00
    -18.831  0.0000E+00  0.0000E+00
    -18.826  0.0000E+00  0.0000E+00
    -18.821  0.0000E+00  0.0000E+00
    -18.816  0.0000E+00  0.0000E+00
    -18.811  0.0000E+00  0.0000E+00
    -18.806  0.0000E+00  0.0000E+00
    -18.801  0.0000E+00  0.0000E+00
    -18.796  0.0000E+00  0.0000E+00
    -18.791  0.0000E+00  0.0000E+00
    -18.786  0.0000E+00  0.0000E+00
    -18.781  0.0000E+00  0.0000E+00
    -18.776  0.0000E+00  0.0000E+00
    -18.771  0.0000E+00  0.0000E+00
    -18.766  0.0000E+00  0.0000E+00
    -18.761  0.0000E+00  0.0000E+00
    -18.756  0.0000E+00  0.0000E+00
    -18.751  0.0000E+00  0.0000E+00
    -18.746  0.0000E+00  0.0000E+00
    -18.741  0.0000E+00  0.0000E+00
    -18.736  0.0000E+00  0.0000E+00
    -18.731  0.0000E+00  0.0000E+00
    -18.726  0.0000E+00  0.0000E+00
    -18.721  0.0000E+00  0.0000E+00
    -18.716  0.0000E+00  0.0000E+00
    -18.711  0.0000E+00  0.0000E+00
    -18.705  0.0000E+00  0.0000E+00
    -18.700  0.0000E+00  0.0000E+00
    -18.695  0.0000E+00  0.0000E+00
    -18.690  0.0000E+00  0.0000E+00
    -18.685  0.0000E+00  0.0000E+00
    -18.680  0.0000E+00  0.0000E+00
    -18.675  0.0000E+00  0.0000E+00
    -18.670  0.0000E+00  0.0000E+00
    -18.665  0.0000E+00  0.0000E+00
    -18.660  0.0000E+00  0.0000E+00
    -18.655  0.0000E+00  0.0000E+00
    -18.650  0.0000E+00  0.0000E+00
    -18.645  0.0000E+00  0.0000E+00
    -18.640  0.0000E+00  0.0000E+00
    -18.635  0.0000E+00  0.0000E+00
    -18.630  0.0000E+00  0.0000E+00
    -18.625  0.0000E+00  0.0000E+00
    -18.620  0.0000E+00  0.0000E+00
    -18.615  0.0000E+00  0.0000E+00
    -18.610  0.0000E+00  0.0000E+00
    -18.605  0.0000E+00  0.0000E+00
    -18.600  0.0000E+00  0.0000E+00
    -18.595  0.0000E+00  0.0000E+00
    -18.590  0.0000E+00  0.0000E+00
    -18.585  0.0000E+00  0.0000E+00
    -18.580  0.0000E+00  0.0000E+00
    -18.575  0.0000E+00  0.0000E+00
    -18.570  0.0000E+00  0.0000E+00
    -18.565  0.0000E+00  0.0000E+00
    -18.560  0.0000E+00  0.0000E+00
    -18.555  0.0000E+00  0.0000E+00
    -18.550  0.0000E+00  0.0000E+00
    -18.545  0.0000E+00  0.0000E+00
    -18.540  0.0000E+00  0.0000E+00
    -18.535  0.0000E+00  0.0000E+00
    -18.530  0.0000E+00  0.0000E+00
    -18.525  0.0000E+00  0.0000E+00
    -18.520  0.0000E+00  0.0000E+00
    -18.515  0.0000E+00  0.0000E+00
    -18.510  0.0000E+00  0.0000E+00
    -18.505  0.0000E+00  0.0000E+00
    -18.500  0.0000E+00  0.0000E+00
    -18.495  0.0000E+00  0.0000E+00
    -18.490  0.0000E+00  0.0000E+00
    -18.485  0.0000E+00  0.0000E+00
    -18.480  0.0000E+00  0.0000E+00
    -18.475  0.0000E+00  0.0000E+00
    -18.470  0.0000E+00  0.0000E+00
    -18.465  0.0000E+00  0.0000E+00
    -18.460  0.0000E+00  0.0000E+00
    -18.455  0.0000E+00  0.0000E+00
    -18.450  0.0000E+00  0.0000E+00
    -18.445  0.0000E+00  0.0000E+00
    -18.440  0.0000E+00  0.0000E+00
    -18.435  0.0000E+00  0.0000E+00
    -18.430  0.0000E+00  0.0000E+00
    -18.425  0.0000E+00  0.0000E+00
    -18.420  0.0000E+00  0.0000E+00
    -18.415  0.0000E+00  0.0000E+00
    -18.410  0.0000E+00  0.0000E+00
    -18.405  0.0000E+00  0.0000E+00
    -18.400  0.0000E+00  0.0000E+00
    -18.395  0.0000E+00  0.0000E+00
    -18.390  0.0000E+00  0.0000E+00
    -18.385  0.0000E+00  0.0000E+00
    -18.380  0.0000E+00  0.0000E+00
    -18.375  0.0000E+00  0.0000E+00
    -18.369  0.0000E+00  0.0000E+00
    -18.364  0.0000E+00  0.0000E+00
    -18.359  0.0000E+00  0.0000E+00
    -18.354  0.0000E+00  0.0000E+00
    -18.349  0.0000E+00  0.0000E+00
    -18.344  0.0000E+00  0.0000E+00
    -18.339  0.0000E+00  0.0000E+00
    -18.334  0.0000E+00  0.0000E+00
    -18.329  0.0000E+00  0.0000E+00
    -18.324  0.0000E+00  0.0000E+00
    -18.319  0.0000E+00  0.0000E+00
    -18.314  0.0000E+00  0.0000E+00
    -18.309  0.0000E+00  0.0000E+00
    -18.304  0.0000E+00  0.0000E+00
    -18.299  0.0000E+00  0.0000E+00
    -18.294  0.0000E+00  0.0000E+00
    -18.289  0.0000E+00  0.0000E+00
    -18.284  0.0000E+00  0.0000E+00
    -18.279  0.0000E+00  0.0000E+00
    -18.274  0.0000E+00  0.0000E+00
    -18.269  0.0000E+00  0.0000E+00
    -18.264  0.0000E+00  0.0000E+00
    -18.259  0.0000E+00  0.0000E+00
    -18.254  0.0000E+00  0.0000E+00
    -18.249  0.0000E+00  0.0000E+00
    -18.244  0.0000E+00  0.0000E+00
    -18.239  0.0000E+00  0.0000E+00
    -18.234  0.0000E+00  0.0000E+00
    -18.229  0.0000E+00  0.0000E+00
    -18.224  0.0000E+00  0.0000E+00
    -18.219  0.0000E+00  0.0000E+00
    -18.214  0.0000E+00  0.0000E+00
    -18.209  0.0000E+00  0.0000E+00
    -18.204  0.0000E+00  0.0000E+00
    -18.199  0.0000E+00  0.0000E+00
    -18.194  0.0000E+00  0.0000E+00
    -18.189  0.0000E+00  0.0000E+00
    -18.184  0.0000E+00  0.0000E+00
    -18.179  0.0000E+00  0.0000E+00
    -18.174  0.0000E+00  0.0000E+00
    -18.169  0.0000E+00  0.0000E+00
    -18.164  0.0000E+00  0.0000E+00
    -18.159  0.0000E+00  0.0000E+00
    -18.154  0.0000E+00  0.0000E+00
    -18.149  0.0000E+00  0.0000E+00
    -18.144  0.0000E+00  0.0000E+00
    -18.139  0.0000E+00  0.0000E+00
    -18.134  0.0000E+00  0.0000E+00
    -18.129  0.0000E+00  0.0000E+00
    -18.124  0.0000E+00  0.0000E+00
    -18.119  0.0000E+00  0.0000E+00
    -18.114  0.0000E+00  0.0000E+00
    -18.109  0.0000E+00  0.0000E+00
    -18.104  0.0000E+00  0.0000E+00
    -18.099  0.0000E+00  0.0000E+00
    -18.094  0.0000E+00  0.0000E+00
    -18.089  0.0000E+00  0.0000E+00
    -18.084  0.0000E+00  0.0000E+00
    -18.079  0.0000E+00  0.0000E+00
    -18.074  0.0000E+00  0.0000E+00
    -18.069  0.0000E+00  0.0000E+00
    -18.064  0.0000E+00  0.0000E+00
    -18.059  0.0000E+00  0.0000E+00
    -18.054  0.0000E+00  0.0000E+00
    -18.049  0.0000E+00  0.0000E+00
    -18.044  0.0000E+00  0.0000E+00
    -18.038  0.0000E+00  0.0000E+00
    -18.033  0.0000E+00  0.0000E+00
    -18.028  0.0000E+00  0.0000E+00
    -18.023  0.0000E+00  0.0000E+00
    -18.018  0.0000E+00  0.0000E+00
    -18.013  0.0000E+00  0.0000E+00
    -18.008  0.0000E+00  0.0000E+00
    -18.003  0.0000E+00  0.0000E+00
    -17.998  0.0000E+00  0.0000E+00
    -17.993  0.0000E+00  0.0000E+00
    -17.988  0.0000E+00  0.0000E+00
    -17.983  0.0000E+00  0.0000E+00
    -17.978  0.0000E+00  0.0000E+00
    -17.973  0.0000E+00  0.0000E+00
    -17.968  0.0000E+00  0.0000E+00
    -17.963  0.0000E+00  0.0000E+00
    -17.958  0.0000E+00  0.0000E+00
    -17.953  0.0000E+00  0.0000E+00
    -17.948  0.0000E+00  0.0000E+00
    -17.943  0.0000E+00  0.0000E+00
    -17.938  0.0000E+00  0.0000E+00
    -17.933  0.0000E+00  0.0000E+00
    -17.928  0.0000E+00  0.0000E+00
    -17.923  0.0000E+00  0.0000E+00
    -17.918  0.0000E+00  0.0000E+00
    -17.913  0.0000E+00  0.0000E+00
    -17.908  0.0000E+00  0.0000E+00
    -17.903  0.0000E+00  0.0000E+00
    -17.898  0.0000E+00  0.0000E+00
    -17.893  0.0000E+00  0.0000E+00
    -17.888  0.0000E+00  0.0000E+00
    -17.883  0.0000E+00  0.0000E+00
    -17.878  0.0000E+00  0.0000E+00
    -17.873  0.0000E+00  0.0000E+00
    -17.868  0.0000E+00  0.0000E+00
    -17.863  0.0000E+00  0.0000E+00
    -17.858  0.0000E+00  0.0000E+00
    -17.853  0.0000E+00  0.0000E+00
    -17.848  0.0000E+00  0.0000E+00
    -17.843  0.0000E+00  0.0000E+00
    -17.838  0.0000E+00  0.0000E+00
    -17.833  0.0000E+00  0.0000E+00
    -17.828  0.0000E+00  0.0000E+00
    -17.823  0.0000E+00  0.0000E+00
    -17.818  0.0000E+00  0.0000E+00
    -17.813  0.0000E+00  0.0000E+00
    -17.808  0.0000E+00  0.0000E+00
    -17.803  0.0000E+00  0.0000E+00
    -17.798  0.0000E+00  0.0000E+00
    -17.793  0.0000E+00  0.0000E+00
    -17.788  0.0000E+00  0.0000E+00
    -17.783  0.0000E+00  0.0000E+00
    -17.778  0.0000E+00  0.0000E+00
    -17.773  0.0000E+00  0.0000E+00
    -17.768  0.0000E+00  0.0000E+00
    -17.763  0.0000E+00  0.0000E+00
    -17.758  0.0000E+00  0.0000E+00
    -17.753  0.0000E+00  0.0000E+00
    -17.748  0.0000E+00  0.0000E+00
    -17.743  0.0000E+00  0.0000E+00
    -17.738  0.0000E+00  0.0000E+00
    -17.733  0.0000E+00  0.0000E+00
    -17.728  0.0000E+00  0.0000E+00
    -17.723  0.0000E+00  0.0000E+00
    -17.718  0.0000E+00  0.0000E+00
    -17.713  0.0000E+00  0.0000E+00
    -17.708  0.0000E+00  0.0000E+00
    -17.702  0.0000E+00  0.0000E+00
    -17.697  0.0000E+00  0.0000E+00
    -17.692  0.0000E+00  0.0000E+00
    -17.687  0.0000E+00  0.0000E+00
    -17.682  0.0000E+00  0.0000E+00
    -17.677  0.0000E+00  0.0000E+00
    -17.672  0.0000E+00  0.0000E+00
    -17.667  0.0000E+00  0.0000E+00
    -17.662  0.0000E+00  0.0000E+00
    -17.657  0.0000E+00  0.0000E+00
    -17.652  0.0000E+00  0.0000E+00
    -17.647  0.0000E+00  0.0000E+00
    -17.642  0.0000E+00  0.0000E+00
    -17.637  0.0000E+00  0.0000E+00
    -17.632  0.0000E+00  0.0000E+00
    -17.627  0.0000E+00  0.0000E+00
    -17.622  0.0000E+00  0.0000E+00
    -17.617  0.0000E+00  0.0000E+00
    -17.612  0.0000E+00  0.0000E+00
    -17.607  0.0000E+00  0.0000E+00
    -17.602  0.0000E+00  0.0000E+00
    -17.597  0.0000E+00  0.0000E+00
    -17.592  0.0000E+00  0.0000E+00
    -17.587  0.0000E+00  0.0000E+00
    -17.582  0.0000E+00  0.0000E+00
    -17.577  0.0000E+00  0.0000E+00
    -17.572  0.0000E+00  0.0000E+00
    -17.567  0.0000E+00  0.0000E+00
    -17.562  0.0000E+00  0.0000E+00
    -17.557  0.0000E+00  0.0000E+00
    -17.552  0.0000E+00  0.0000E+00
    -17.547  0.0000E+00  0.0000E+00
    -17.542  0.0000E+00  0.0000E+00
    -17.537  0.0000E+00  0.0000E+00
    -17.532  0.1129E-15  0.5664E-18
    -17.527  0.2824E-13  0.1422E-15
    -17.522  0.5305E-11  0.2675E-13
    -17.517  0.6082E-09  0.3077E-11
    -17.512  0.4256E-07  0.2165E-09
    -17.507  0.1820E-05  0.9345E-08
    -17.502  0.4765E-04  0.2483E-06
    -17.497  0.7646E-03  0.4083E-05
    -17.492  0.7534E-02  0.4187E-04
    -17.487  0.4565E-01  0.2708E-03
    -17.482  0.1704E+00  0.1125E-02
    -17.477  0.3921E+00  0.3092E-02
    -17.472  0.5569E+00  0.5885E-02
    -17.467  0.4882E+00  0.8333E-02
    -17.462  0.2642E+00  0.9658E-02
    -17.457  0.8821E-01  0.1010E-01
    -17.452  0.1815E-01  0.1019E-01
    -17.447  0.2298E-02  0.1020E-01
    -17.442  0.1788E-03  0.1020E-01
    -17.437  0.8532E-05  0.1020E-01
    -17.432  0.3089E-06  0.1020E-01
    -17.427  0.3035E-05  0.1020E-01
    -17.422  0.9437E-04  0.1020E-01
    -17.417  0.1801E-02  0.1021E-01
    -17.412  0.2111E-01  0.1032E-01
    -17.407  0.1521E+00  0.1108E-01
    -17.402  0.6745E+00  0.1446E-01
    -17.397  0.1845E+01  0.2372E-01
    -17.392  0.3114E+01  0.3933E-01
    -17.387  0.3245E+01  0.5561E-01
    -17.382  0.2089E+01  0.6608E-01
    -17.377  0.8296E+00  0.7024E-01
    -17.372  0.2032E+00  0.7126E-01
    -17.366  0.3066E-01  0.7141E-01
    -17.361  0.2844E-02  0.7143E-01
    -17.356  0.1620E-03  0.7143E-01
    -17.351  0.5658E-05  0.7143E-01
    -17.346  0.1209E-06  0.7143E-01
    -17.341  0.1580E-08  0.7143E-01
    -17.336  0.1260E-10  0.7143E-01
    -17.331  0.6144E-13  0.7143E-01
    -17.326  0.0000E+00  0.7143E-01
    -17.321  0.0000E+00  0.7143E-01
    -17.316  0.0000E+00  0.7143E-01
    -17.311  0.0000E+00  0.7143E-01
    -17.306  0.0000E+00  0.7143E-01
    -17.301  0.0000E+00  0.7143E-01
    -17.296  0.0000E+00  0.7143E-01
    -17.291  0.0000E+00  0.7143E-01
    -17.286  0.6777E-15  0.7143E-01
    -17.281  0.2498E-12  0.7143E-01
    -17.276  0.4484E-10  0.7143E-01
    -17.271  0.4921E-08  0.7143E-01
    -17.266  0.3303E-06  0.7143E-01
    -17.261  0.1357E-04  0.7143E-01
    -17.256  0.3421E-03  0.7143E-01
    -17.251  0.5299E-02  0.7146E-01
    -17.246  0.5050E-01  0.7171E-01
    -17.241  0.2967E+00  0.7320E-01
    -17.236  0.1076E+01  0.7860E-01
    -17.231  0.2413E+01  0.9070E-01
    -17.226  0.3348E+01  0.1075E+00
    -17.221  0.2874E+01  0.1219E+00
    -17.216  0.1527E+01  0.1296E+00
    -17.211  0.5018E+00  0.1321E+00
    -17.206  0.1019E+00  0.1326E+00
    -17.201  0.1277E-01  0.1326E+00
    -17.196  0.9857E-03  0.1327E+00
    -17.191  0.4682E-04  0.1327E+00
    -17.186  0.1509E-05  0.1327E+00
    -17.181  0.6451E-05  0.1327E+00
    -17.176  0.1777E-03  0.1327E+00
    -17.171  0.3029E-02  0.1327E+00
    -17.166  0.3187E-01  0.1328E+00
    -17.161  0.2073E+00  0.1339E+00
    -17.156  0.8350E+00  0.1381E+00
    -17.151  0.2085E+01  0.1485E+00
    -17.146  0.3229E+01  0.1647E+00
    -17.141  0.3103E+01  0.1803E+00
    -17.136  0.1850E+01  0.1895E+00
    -17.131  0.6837E+00  0.1930E+00
    -17.126  0.1565E+00  0.1938E+00
    -17.121  0.2214E-01  0.1939E+00
    -17.116  0.1933E-02  0.1939E+00
    -17.111  0.1040E-03  0.1939E+00
    -17.106  0.3440E-05  0.1939E+00
    -17.101  0.6983E-07  0.1939E+00
    -17.096  0.8687E-09  0.1939E+00
    -17.091  0.6611E-11  0.1939E+00
    -17.086  0.3163E-13  0.1939E+00
    -17.081  0.0000E+00  0.1939E+00
    -17.076  0.0000E+00  0.1939E+00
    -17.071  0.0000E+00  0.1939E+00
    -17.066  0.0000E+00  0.1939E+00
    -17.061  0.0000E+00  0.1939E+00
    -17.056  0.0000E+00  0.1939E+00
    -17.051  0.0000E+00  0.1939E+00
    -17.046  0.0000E+00  0.1939E+00
    -17.041  0.0000E+00  0.1939E+00
    -17.035  0.0000E+00  0.1939E+00
    -17.030  0.0000E+00  0.1939E+00
    -17.025  0.0000E+00  0.1939E+00
    -17.020  0.0000E+00  0.1939E+00
    -17.015  0.0000E+00  0.1939E+00
    -17.010  0.0000E+00  0.1939E+00
    -17.005  0.0000E+00  0.1939E+00
    -17.000  0.0000E+00  0.1939E+00
    -16.995  0.0000E+00  0.1939E+00
    -16.990  0.0000E+00  0.1939E+00
    -16.985  0.0000E+00  0.1939E+00
    -16.980  0.0000E+00  0.1939E+00
    -16.975  0.0000E+00  0.1939E+00
    -16.970  0.0000E+00  0.1939E+00
    -16.965  0.0000E+00  0.1939E+00
    -16.960  0.2101E-13  0.1939E+00
    -16.955  0.4724E-11  0.1939E+00
    -16.950  0.6648E-09  0.1939E+00
    -16.945  0.5742E-07  0.1939E+00
    -16.940  0.3050E-05  0.1939E+00
    -16.935  0.9989E-04  0.1939E+00
    -16.930  0.2022E-02  0.1939E+00
    -16.925  0.2537E-01  0.1940E+00
    -16.920  0.1979E+00  0.1950E+00
    -16.915  0.9621E+00  0.1998E+00
    -16.910  0.2923E+01  0.2145E+00
    -16.905  0.5559E+01  0.2424E+00
    -16.900  0.6630E+01  0.2756E+00
    -16.895  0.4961E+01  0.3005E+00
    -16.890  0.2329E+01  0.3122E+00
    -16.885  0.6850E+00  0.3156E+00
    -16.880  0.1261E+00  0.3162E+00
    -16.875  0.1448E-01  0.3163E+00
    -16.870  0.1036E-02  0.3163E+00
    -16.865  0.4597E-04  0.3163E+00
    -16.860  0.1263E-05  0.3163E+00
    -16.855  0.2142E-07  0.3163E+00
    -16.850  0.2236E-09  0.3163E+00
    -16.845  0.1434E-11  0.3163E+00
    -16.840  0.4970E-14  0.3163E+00
    -16.835  0.0000E+00  0.3163E+00
    -16.830  0.0000E+00  0.3163E+00
    -16.825  0.0000E+00  0.3163E+00
    -16.820  0.0000E+00  0.3163E+00
    -16.815  0.0000E+00  0.3163E+00
    -16.810  0.0000E+00  0.3163E+00
    -16.805  0.0000E+00  0.3163E+00
    -16.800  0.2462E-13  0.3163E+00
    -16.795  0.5029E-11  0.3163E+00
    -16.790  0.6333E-09  0.3163E+00
    -16.785  0.4899E-07  0.3163E+00
    -16.780  0.2337E-05  0.3163E+00
    -16.775  0.6903E-04  0.3163E+00
    -16.770  0.1270E-02  0.3163E+00
    -16.765  0.1465E-01  0.3164E+00
    -16.760  0.1065E+00  0.3169E+00
    -16.755  0.4916E+00  0.3194E+00
    -16.750  0.1446E+01  0.3267E+00
    -16.745  0.2717E+01  0.3403E+00
    -16.740  0.3263E+01  0.3566E+00
    -16.735  0.2499E+01  0.3692E+00
    -16.730  0.1215E+01  0.3753E+00
    -16.725  0.3731E+00  0.3771E+00
    -16.720  0.7199E-01  0.3775E+00
    -16.715  0.8680E-02  0.3775E+00
    -16.710  0.6509E-03  0.3776E+00
    -16.705  0.3023E-04  0.3776E+00
    -16.699  0.8662E-06  0.3776E+00
    -16.694  0.1527E-07  0.3776E+00
    -16.689  0.1652E-09  0.3776E+00
    -16.684  0.1095E-11  0.3776E+00
    -16.679  0.4518E-14  0.3776E+00
    -16.674  0.0000E+00  0.3776E+00
    -16.669  0.0000E+00  0.3776E+00
    -16.664  0.0000E+00  0.3776E+00
    -16.659  0.0000E+00  0.3776E+00
    -16.654  0.0000E+00  0.3776E+00
    -16.649  0.0000E+00  0.3776E+00
    -16.644  0.0000E+00  0.3776E+00
    -16.639  0.0000E+00  0.3776E+00
    -16.634  0.0000E+00  0.3776E+00
    -16.629  0.0000E+00  0.3776E+00
    -16.624  0.0000E+00  0.3776E+00
    -16.619  0.0000E+00  0.3776E+00
    -16.614  0.0000E+00  0.3776E+00
    -16.609  0.0000E+00  0.3776E+00
    -16.604  0.0000E+00  0.3776E+00
    -16.599  0.0000E+00  0.3776E+00
    -16.594  0.0000E+00  0.3776E+00
    -16.589  0.0000E+00  0.3776E+00
    -16.584  0.0000E+00  0.3776E+00
    -16.579  0.0000E+00  0.3776E+00
    -16.574  0.0000E+00  0.3776E+00
    -16.569  0.0000E+00  0.3776E+00
    -16.564  0.2259E-15  0.3776E+00
    -16.559  0.5015E-13  0.3776E+00
    -16.554  0.9929E-11  0.3776E+00
    -16.549  0.1204E-08  0.3776E+00
    -16.544  0.8951E-07  0.3776E+00
    -16.539  0.4089E-05  0.3776E+00
    -16.534  0.1150E-03  0.3776E+00
    -16.529  0.2001E-02  0.3776E+00
    -16.524  0.2161E-01  0.3777E+00
    -16.519  0.1457E+00  0.3784E+00
    -16.514  0.6173E+00  0.3815E+00
    -16.509  0.1658E+01  0.3898E+00
    -16.504  0.2848E+01  0.4041E+00
    -16.499  0.3160E+01  0.4199E+00
    -16.494  0.2280E+01  0.4314E+00
    -16.489  0.1073E+01  0.4368E+00
    -16.484  0.3285E+00  0.4384E+00
    -16.479  0.6491E-01  0.4387E+00
    -16.474  0.8195E-02  0.4388E+00
    -16.469  0.6540E-03  0.4388E+00
    -16.464  0.3404E-04  0.4388E+00
    -16.459  0.4723E-04  0.4388E+00
    -16.454  0.9660E-03  0.4388E+00
    -16.449  0.1261E-01  0.4388E+00
    -16.444  0.1037E+00  0.4394E+00
    -16.439  0.5441E+00  0.4421E+00
    -16.434  0.1844E+01  0.4513E+00
    -16.429  0.4094E+01  0.4719E+00
    -16.424  0.6017E+01  0.5020E+00
    -16.419  0.5875E+01  0.5315E+00
    -16.414  0.3795E+01  0.5505E+00
    -16.409  0.1605E+01  0.5586E+00
    -16.404  0.4391E+00  0.5608E+00
    -16.399  0.7671E-01  0.5612E+00
    -16.394  0.8471E-02  0.5612E+00
    -16.389  0.5864E-03  0.5612E+00
    -16.384  0.2529E-04  0.5612E+00
    -16.379  0.6763E-06  0.5612E+00
    -16.374  0.1117E-07  0.5612E+00
    -16.369  0.1135E-09  0.5612E+00
    -16.363  0.7089E-12  0.5612E+00
    -16.358  0.2259E-14  0.5612E+00
    -16.353  0.0000E+00  0.5612E+00
    -16.348  0.0000E+00  0.5612E+00
    -16.343  0.0000E+00  0.5612E+00
    -16.338  0.0000E+00  0.5612E+00
    -16.333  0.0000E+00  0.5612E+00
    -16.328  0.0000E+00  0.5612E+00
    -16.323  0.0000E+00  0.5612E+00
    -16.318  0.0000E+00  0.5612E+00
    -16.313  0.0000E+00  0.5612E+00
    -16.308  0.0000E+00  0.5612E+00
    -16.303  0.0000E+00  0.5612E+00
    -16.298  0.0000E+00  0.5612E+00
    -16.293  0.0000E+00  0.5612E+00
    -16.288  0.0000E+00  0.5612E+00
    -16.283  0.0000E+00  0.5612E+00
    -16.278  0.0000E+00  0.5612E+00
    -16.273  0.0000E+00  0.5612E+00
    -16.268  0.0000E+00  0.5612E+00
    -16.263  0.0000E+00  0.5612E+00
    -16.258  0.0000E+00  0.5612E+00
    -16.253  0.4518E-15  0.5612E+00
    -16.248  0.1500E-12  0.5612E+00
    -16.243  0.2582E-10  0.5612E+00
    -16.238  0.2710E-08  0.5612E+00
    -16.233  0.1738E-06  0.5612E+00
    -16.228  0.6823E-05  0.5612E+00
    -16.223  0.1644E-03  0.5612E+00
    -16.218  0.2445E-02  0.5612E+00
    -16.213  0.2260E-01  0.5614E+00
    -16.208  0.1317E+00  0.5620E+00
    -16.203  0.4964E+00  0.5645E+00
    -16.198  0.1256E+01  0.5708E+00
    -16.193  0.2234E+01  0.5820E+00
    -16.188  0.2869E+01  0.5964E+00
    -16.183  0.2631E+01  0.6096E+00
    -16.178  0.1657E+01  0.6179E+00
    -16.173  0.6892E+00  0.6214E+00
    -16.168  0.1840E+00  0.6223E+00
    -16.163  0.3105E-01  0.6224E+00
    -16.158  0.3279E-02  0.6224E+00
    -16.153  0.2154E-03  0.6224E+00
    -16.148  0.8762E-05  0.6224E+00
    -16.143  0.2200E-06  0.6224E+00
    -16.138  0.3399E-08  0.6224E+00
    -16.133  0.3223E-10  0.6224E+00
    -16.128  0.1866E-12  0.6224E+00
    -16.123  0.9036E-15  0.6224E+00
    -16.118  0.0000E+00  0.6224E+00
    -16.113  0.0000E+00  0.6224E+00
    -16.108  0.0000E+00  0.6224E+00
    -16.103  0.0000E+00  0.6224E+00
    -16.098  0.0000E+00  0.6224E+00
    -16.093  0.0000E+00  0.6224E+00
    -16.088  0.0000E+00  0.6224E+00
    -16.083  0.0000E+00  0.6224E+00
    -16.078  0.0000E+00  0.6224E+00
    -16.073  0.0000E+00  0.6224E+00
    -16.068  0.0000E+00  0.6224E+00
    -16.063  0.0000E+00  0.6224E+00
    -16.058  0.0000E+00  0.6224E+00
    -16.053  0.0000E+00  0.6224E+00
    -16.048  0.0000E+00  0.6224E+00
    -16.043  0.0000E+00  0.6224E+00
    -16.038  0.0000E+00  0.6224E+00
    -16.032  0.0000E+00  0.6224E+00
    -16.027  0.0000E+00  0.6224E+00
    -16.022  0.0000E+00  0.6224E+00
    -16.017  0.2259E-15  0.6224E+00
    -16.012  0.1066E-12  0.6224E+00
    -16.007  0.1977E-10  0.6224E+00
    -16.002  0.2259E-08  0.6224E+00
    -15.997  0.1590E-06  0.6224E+00
    -15.992  0.6911E-05  0.6224E+00
    -15.987  0.1863E-03  0.6224E+00
    -15.982  0.3128E-02  0.6225E+00
    -15.977  0.3286E-01  0.6226E+00
    -15.972  0.2176E+00  0.6237E+00
    -15.967  0.9174E+00  0.6283E+00
    -15.962  0.2503E+01  0.6409E+00
    -15.957  0.4538E+01  0.6636E+00
    -15.952  0.5677E+01  0.6921E+00
    -15.947  0.5089E+01  0.7176E+00
    -15.942  0.3313E+01  0.7342E+00
    -15.937  0.1531E+01  0.7419E+00
    -15.932  0.4809E+00  0.7443E+00
    -15.927  0.9875E-01  0.7448E+00
    -15.922  0.1290E-01  0.7449E+00
    -15.917  0.1056E-02  0.7449E+00
    -15.912  0.5359E-04  0.7449E+00
    -15.907  0.1678E-05  0.7449E+00
    -15.902  0.3228E-07  0.7449E+00
    -15.897  0.3807E-09  0.7449E+00
    -15.892  0.2747E-11  0.7449E+00
    -15.887  0.1175E-13  0.7449E+00
    -15.882  0.0000E+00  0.7449E+00
    -15.877  0.0000E+00  0.7449E+00
    -15.872  0.0000E+00  0.7449E+00
    -15.867  0.3998E-13  0.7449E+00
    -15.862  0.8156E-11  0.7449E+00
    -15.857  0.1015E-08  0.7449E+00
    -15.852  0.7724E-07  0.7449E+00
    -15.847  0.3602E-05  0.7449E+00
    -15.842  0.1031E-03  0.7449E+00
    -15.837  0.1816E-02  0.7449E+00
    -15.832  0.1975E-01  0.7450E+00
    -15.827  0.1335E+00  0.7457E+00
    -15.822  0.5683E+00  0.7485E+00
    -15.817  0.1566E+01  0.7564E+00
    -15.812  0.2967E+01  0.7713E+00
    -15.807  0.4252E+01  0.7926E+00
    -15.802  0.4985E+01  0.8176E+00
    -15.797  0.4673E+01  0.8410E+00
    -15.792  0.3202E+01  0.8571E+00
    -15.787  0.1492E+01  0.8646E+00
    -15.782  0.4548E+00  0.8668E+00
    -15.777  0.8904E-01  0.8673E+00
    -15.772  0.1107E-01  0.8673E+00
    -15.767  0.8677E-03  0.8673E+00
    -15.762  0.4260E-04  0.8673E+00
    -15.757  0.1302E-05  0.8673E+00
    -15.752  0.2469E-07  0.8673E+00
    -15.747  0.2889E-09  0.8673E+00
    -15.742  0.2080E-11  0.8673E+00
    -15.737  0.8584E-14  0.8673E+00
    -15.732  0.0000E+00  0.8673E+00
    -15.727  0.0000E+00  0.8673E+00
    -15.722  0.0000E+00  0.8673E+00
    -15.717  0.0000E+00  0.8673E+00
    -15.712  0.0000E+00  0.8673E+00
    -15.707  0.0000E+00  0.8673E+00
    -15.702  0.0000E+00  0.8673E+00
    -15.696  0.0000E+00  0.8673E+00
    -15.691  0.0000E+00  0.8673E+00
    -15.686  0.0000E+00  0.8673E+00
    -15.681  0.0000E+00  0.8673E+00
    -15.676  0.0000E+00  0.8673E+00
    -15.671  0.0000E+00  0.8673E+00
    -15.666  0.0000E+00  0.8673E+00
    -15.661  0.0000E+00  0.8673E+00
    -15.656  0.0000E+00  0.8673E+00
    -15.651  0.0000E+00  0.8673E+00
    -15.646  0.0000E+00  0.8673E+00
    -15.641  0.0000E+00  0.8673E+00
    -15.636  0.0000E+00  0.8673E+00
    -15.631  0.0000E+00  0.8673E+00
    -15.626  0.0000E+00  0.8673E+00
    -15.621  0.0000E+00  0.8673E+00
    -15.616  0.0000E+00  0.8673E+00
    -15.611  0.0000E+00  0.8673E+00
    -15.606  0.0000E+00  0.8673E+00
    -15.601  0.0000E+00  0.8673E+00
    -15.596  0.0000E+00  0.8673E+00
    -15.591  0.0000E+00  0.8673E+00
    -15.586  0.0000E+00  0.8673E+00
    -15.581  0.2259E-15  0.8673E+00
    -15.576  0.5670E-13  0.8673E+00
    -15.571  0.1067E-10  0.8673E+00
    -15.566  0.1223E-08  0.8673E+00
    -15.561  0.8552E-07  0.8673E+00
    -15.556  0.3655E-05  0.8673E+00
    -15.551  0.9563E-04  0.8673E+00
    -15.546  0.1534E-02  0.8674E+00
    -15.541  0.1511E-01  0.8674E+00
    -15.536  0.9158E-01  0.8679E+00
    -15.531  0.3429E+00  0.8696E+00
    -15.526  0.8022E+00  0.8736E+00
    -15.521  0.1223E+01  0.8798E+00
    -15.516  0.1413E+01  0.8869E+00
    -15.511  0.1650E+01  0.8951E+00
    -15.506  0.2056E+01  0.9054E+00
    -15.501  0.2109E+01  0.9160E+00
    -15.496  0.1513E+01  0.9236E+00
    -15.491  0.7196E+00  0.9272E+00
    -15.486  0.2222E+00  0.9283E+00
    -15.481  0.4382E-01  0.9285E+00
    -15.476  0.5451E-02  0.9286E+00
    -15.471  0.4233E-03  0.9286E+00
    -15.466  0.2037E-04  0.9286E+00
    -15.461  0.6039E-06  0.9286E+00
    -15.456  0.1099E-07  0.9286E+00
    -15.451  0.1225E-09  0.9286E+00
    -15.446  0.8331E-12  0.9286E+00
    -15.441  0.3614E-14  0.9286E+00
    -15.436  0.0000E+00  0.9286E+00
    -15.431  0.0000E+00  0.9286E+00
    -15.426  0.0000E+00  0.9286E+00
    -15.421  0.0000E+00  0.9286E+00
    -15.416  0.0000E+00  0.9286E+00
    -15.411  0.0000E+00  0.9286E+00
    -15.406  0.3524E-13  0.9286E+00
    -15.401  0.6929E-11  0.9286E+00
    -15.396  0.8347E-09  0.9286E+00
    -15.391  0.6156E-07  0.9286E+00
    -15.386  0.2787E-05  0.9286E+00
    -15.381  0.7775E-04  0.9286E+00
    -15.376  0.1342E-02  0.9286E+00
    -15.371  0.1442E-01  0.9287E+00
    -15.366  0.9707E-01  0.9291E+00
    -15.360  0.4127E+00  0.9312E+00
    -15.355  0.1120E+01  0.9368E+00
    -15.350  0.1978E+01  0.9467E+00
    -15.345  0.2378E+01  0.9587E+00
    -15.340  0.2173E+01  0.9696E+00
    -15.335  0.1755E+01  0.9784E+00
    -15.330  0.1264E+01  0.9847E+00
    -15.325  0.6926E+00  0.9882E+00
    -15.320  0.2539E+00  0.9895E+00
    -15.315  0.5952E-01  0.9898E+00
    -15.310  0.1639E-01  0.9898E+00
    -15.305  0.6377E-01  0.9902E+00
    -15.300  0.3163E+00  0.9917E+00
    -15.295  0.1014E+01  0.9968E+00
    -15.290  0.2143E+01  0.1008E+01
    -15.285  0.3168E+01  0.1023E+01
    -15.280  0.3684E+01  0.1042E+01
    -15.275  0.3882E+01  0.1061E+01
    -15.270  0.3839E+01  0.1081E+01
    -15.265  0.3196E+01  0.1097E+01
    -15.260  0.1977E+01  0.1107E+01
    -15.255  0.8415E+00  0.1111E+01
    -15.250  0.2364E+00  0.1112E+01
    -15.245  0.4274E-01  0.1112E+01
    -15.240  0.4900E-02  0.1112E+01
    -15.235  0.3524E-03  0.1112E+01
    -15.230  0.1577E-04  0.1112E+01
    -15.225  0.4369E-06  0.1112E+01
    -15.220  0.7458E-08  0.1112E+01
    -15.215  0.7816E-10  0.1112E+01
    -15.210  0.5019E-12  0.1112E+01
    -15.205  0.1807E-14  0.1112E+01
    -15.200  0.0000E+00  0.1112E+01
    -15.195  0.0000E+00  0.1112E+01
    -15.190  0.0000E+00  0.1112E+01
    -15.185  0.0000E+00  0.1112E+01
    -15.180  0.0000E+00  0.1112E+01
    -15.175  0.0000E+00  0.1112E+01
    -15.170  0.0000E+00  0.1112E+01
    -15.165  0.0000E+00  0.1112E+01
    -15.160  0.2259E-15  0.1112E+01
    -15.155  0.9736E-13  0.1112E+01
    -15.150  0.1822E-10  0.1112E+01
    -15.145  0.2086E-08  0.1112E+01
    -15.140  0.1463E-06  0.1112E+01
    -15.135  0.6286E-05  0.1112E+01
    -15.130  0.1659E-03  0.1112E+01
    -15.125  0.2694E-02  0.1112E+01
    -15.120  0.2696E-01  0.1112E+01
    -15.115  0.1665E+00  0.1113E+01
    -15.110  0.6358E+00  0.1116E+01
    -15.105  0.1505E+01  0.1124E+01
    -15.100  0.2224E+01  0.1135E+01
    -15.095  0.2146E+01  0.1146E+01
    -15.090  0.1709E+01  0.1154E+01
    -15.085  0.1930E+01  0.1164E+01
    -15.080  0.2901E+01  0.1179E+01
    -15.075  0.3714E+01  0.1197E+01
    -15.070  0.3525E+01  0.1215E+01
    -15.065  0.2387E+01  0.1227E+01
    -15.060  0.1114E+01  0.1233E+01
    -15.055  0.3479E+00  0.1234E+01
    -15.050  0.7080E-01  0.1235E+01
    -15.045  0.9218E-02  0.1235E+01
    -15.040  0.7575E-03  0.1235E+01
    -15.035  0.3889E-04  0.1235E+01
    -15.029  0.1239E-05  0.1235E+01
    -15.024  0.2433E-07  0.1235E+01
    -15.019  0.2937E-09  0.1235E+01
    -15.014  0.2172E-11  0.1235E+01
    -15.009  0.9940E-14  0.1235E+01
    -15.004  0.0000E+00  0.1235E+01
    -14.999  0.0000E+00  0.1235E+01
    -14.994  0.0000E+00  0.1235E+01
    -14.989  0.0000E+00  0.1235E+01
    -14.984  0.0000E+00  0.1235E+01
    -14.979  0.0000E+00  0.1235E+01
    -14.974  0.0000E+00  0.1235E+01
    -14.969  0.0000E+00  0.1235E+01
    -14.964  0.0000E+00  0.1235E+01
    -14.959  0.0000E+00  0.1235E+01
    -14.954  0.0000E+00  0.1235E+01
    -14.949  0.0000E+00  0.1235E+01
    -14.944  0.0000E+00  0.1235E+01
    -14.939  0.0000E+00  0.1235E+01
    -14.934  0.0000E+00  0.1235E+01
    -14.929  0.0000E+00  0.1235E+01
    -14.924  0.0000E+00  0.1235E+01
    -14.919  0.0000E+00  0.1235E+01
    -14.914  0.0000E+00  0.1235E+01
    -14.909  0.0000E+00  0.1235E+01
    -14.904  0.0000E+00  0.1235E+01
    -14.899  0.0000E+00  0.1235E+01
    -14.894  0.0000E+00  0.1235E+01
    -14.889  0.0000E+00  0.1235E+01
    -14.884  0.0000E+00  0.1235E+01
    -14.879  0.0000E+00  0.1235E+01
    -14.874  0.0000E+00  0.1235E+01
    -14.869  0.0000E+00  0.1235E+01
    -14.864  0.1039E-13  0.1235E+01
    -14.859  0.2285E-11  0.1235E+01
    -14.854  0.3043E-09  0.1235E+01
    -14.849  0.2473E-07  0.1235E+01
    -14.844  0.1228E-05  0.1235E+01
    -14.839  0.3729E-04  0.1235E+01
    -14.834  0.6940E-03  0.1235E+01
    -14.829  0.7927E-02  0.1235E+01
    -14.824  0.5566E-01  0.1235E+01
    -14.819  0.2406E+00  0.1236E+01
    -14.814  0.6410E+00  0.1239E+01
    -14.809  0.1054E+01  0.1245E+01
    -14.804  0.1070E+01  0.1250E+01
    -14.799  0.6731E+00  0.1253E+01
    -14.794  0.2860E+00  0.1255E+01
    -14.789  0.2047E+00  0.1256E+01
    -14.784  0.4807E+00  0.1258E+01
    -14.779  0.9980E+00  0.1263E+01
    -14.774  0.1444E+01  0.1271E+01
    -14.769  0.1611E+01  0.1279E+01
    -14.764  0.1507E+01  0.1286E+01
    -14.759  0.1115E+01  0.1292E+01
    -14.754  0.5785E+00  0.1295E+01
    -14.749  0.1944E+00  0.1296E+01
    -14.744  0.4092E-01  0.1296E+01
    -14.739  0.5332E-02  0.1296E+01
    -14.734  0.4277E-03  0.1296E+01
    -14.729  0.2106E-04  0.1296E+01
    -14.724  0.6354E-06  0.1296E+01
    -14.719  0.1172E-07  0.1296E+01
    -14.714  0.1321E-09  0.1296E+01
    -14.709  0.9090E-12  0.1296E+01
    -14.704  0.3840E-14  0.1296E+01