    2    2    1    1
  0.7464293E+02  0.3282343E-09  0.3282343E-09  0.1600000E-08  0.5000000E-15
  1.000000000000000E-004
  CAR 
 unknown system                          
     10    100     16
 
  0.0000000E+00  0.0000000E+00  0.0000000E+00  0.5102041E-02
      1        -17.473171   1.000000
      2         -9.759214   1.000000
      3         -3.768698   1.000000
      4         -3.555346   1.000000
      5         -3.435135   1.000000
      6          0.367753   0.000000
      7          0.468688   0.000000
      8          0.591588   0.000000
      9          2.024452   0.000000
     10          2.462088   0.000000
     11          3.813969   0.000000
     12          4.439329   0.000000
     13          6.441615   0.000000
     14          6.516039   0.000000
     15          6.916154   0.000000
     16          7.565590   0.000000
 
  0.7142857E-01  0.0000000E+00  0.0000000E+00  0.1020408E-01
      1        -17.391070   1.000000
      2         -9.704588   1.000000
      3         -4.195988   1.000000
      4         -3.727220   1.000000
      5         -3.654386   1.000000
      6          0.278996   0.000000
      7          0.759377   0.000000
      8          1.058091   0.000000
      9          2.128815   0.000000
     10          2.546557   0.000000
     11          3.874530   0.000000
     12          4.531429   0.000000
     13          5.793296   0.000000
     14          6.353071   0.000000
     15          7.125198   0.000000
     16          7.518744   0.000000
 
  0.0000000E+00  0.7142857E-01  0.0000000E+00  0.1020408E-01
      1        -17.390962   1.000000
      2         -9.704710   1.000000
      3         -4.215640   1.000000
      4         -3.722336   1.000000
      5         -3.638301   1.000000
      6          0.296906   0.000000
      7          0.730082   0.000000
      8          1.069909   0.000000
      9          2.129191   0.000000
     10          2.546471   0.000000
     11          3.874117   0.000000
     12          4.531447   0.000000
     13          5.778637   0.000000
     14          6.364520   0.000000
     15          7.124662   0.000000
     16          7.519026   0.000000
 
 -0.7142857E-01  0.7142857E-01  0.0000000E+00  0.1020408E-01
      1        -17.391369   1.000000
      2         -9.704249   1.000000
      3         -4.131539   1.000000
      4         -3.735268   1.000000
      5         -3.715094   1.000000
      6          0.245971   0.000000
      7          0.819951   0.000000
      8          1.030059   0.000000
      9          2.127858   0.000000
     10          2.546801   0.000000
     11          3.875687   0.000000
     12          4.531378   0.000000
     13          5.838620   0.000000
     14          6.315664   0.000000
     15          7.126351   0.000000
     16          7.517721   0.000000
 
  0.1428571E+00  0.0000000E+00  0.0000000E+00  0.1020408E-01
      1        -17.145973   1.000000
      2         -9.563653   1.000000
      3         -5.516732   1.000000
      4         -4.102029   1.000000
      5         -3.588742   1.000000
      6         -0.250036   0.000000
      7          1.286708   0.000000
      8          2.075925   0.000000
      9          2.461668   0.000000
     10          2.825635   0.000000
     11          4.006990   0.000000
     12          4.805362   0.000000
     13          5.030912   0.000000
     14          6.212636   0.000000
     15          6.864537   0.000000
     16          7.635207   0.000000
 
  0.0000000E+00  0.1428571E+00  0.0000000E+00  0.1020408E-01
      1        -17.145508   1.000000
      2         -9.564397   1.000000
      3         -5.533286   1.000000
      4         -4.083820   1.000000
      5         -3.589636   1.000000
      6         -0.234821   0.000000
      7          1.266870   0.000000
      8          2.086721   0.000000
      9          2.467240   0.000000
     10          2.825277   0.000000
     11          4.001360   0.000000
     12          4.805609   0.000000
     13          5.014041   0.000000
     14          6.218747   0.000000
     15          6.867235   0.000000
     16          7.631993   0.000000
 
 -0.1428571E+00  0.1428571E+00  0.0000000E+00  0.1020408E-01
      1        -17.147264   1.000000
      2         -9.561588   1.000000
      3         -5.467795   1.000000
      4         -4.154959   1.000000
      5         -3.588122   1.000000
      6         -0.285930   0.000000
      7          1.335362   0.000000
      8          2.046568   0.000000
      9          2.448322   0.000000
     10          2.826610   0.000000
     11          4.021384   0.000000
     12          4.804757   0.000000
     13          5.078758   0.000000
     14          6.192979   0.000000
     15          6.857010   0.000000
     16          7.644241   0.000000
 
  0.2142857E+00 -0.1387779E-16  0.0000000E+00  0.1020408E-01
      1        -16.741915   1.000000
      2         -9.457363   1.000000
      3         -6.797637   1.000000
      4         -4.591851   1.000000
      5         -3.443010   1.000000
      6         -0.859012   0.000000
      7          1.766219   0.000000
      8          2.053462   0.000000
      9          2.823901   0.000000
     10          3.354466   0.000000
     11          4.468129   0.000000
     12          5.209760   0.000000
     13          5.387091   0.000000
     14          6.232646   0.000000
     15          6.457492   0.000000
     16          8.043641   0.000000
 
  0.0000000E+00  0.2142857E+00  0.0000000E+00  0.1020408E-01
      1        -16.740727   1.000000
      2         -9.460819   1.000000
      3         -6.809664   1.000000
      4         -4.577350   1.000000
      5         -3.444567   1.000000
      6         -0.846421   0.000000
      7          1.756491   0.000000
      8          2.065139   0.000000
      9          2.824171   0.000000
     10          3.357437   0.000000
     11          4.465468   0.000000
     12          5.205722   0.000000
     13          5.372680   0.000000
     14          6.230344   0.000000
     15          6.457684   0.000000
     16          8.041131   0.000000
 
 -0.2142857E+00  0.2142857E+00  0.0000000E+00  0.1020408E-01
      1        -16.745212   1.000000
      2         -9.447799   1.000000
      3         -6.762736   1.000000
      4         -4.634256   1.000000
      5         -3.439526   1.000000
      6         -0.890066   0.000000
      7          1.801339   0.000000
      8          2.010238   0.000000
      9          2.822983   0.000000
     10          3.346787   0.000000
     11          4.474712   0.000000
     12          5.218091   0.000000
     13          5.431565   0.000000
     14          6.240329   0.000000
     15          6.453185   0.000000
     16          8.050716   0.000000
 
  0.2857143E+00  0.0000000E+00  0.0000000E+00  0.1020408E-01
      1        -16.188117   1.000000
      2         -9.801535   1.000000
      3         -7.458994   1.000000
      4         -5.027147   1.000000
      5         -3.443542   1.000000
      6         -1.314599   0.000000
      7          1.234411   0.000000
      8          2.003189   0.000000
      9          3.462728   0.000000
     10          3.872952   0.000000
     11          4.723967   0.000000
     12          5.687162   0.000000
     13          6.056907   0.000000
     14          6.834097   0.000000
     15          7.269451   0.000000
     16          8.453587   0.000000
 
  0.0000000E+00  0.2857143E+00  0.0000000E+00  0.1020408E-01
      1        -16.185543   1.000000
      2         -9.812807   1.000000
      3         -7.462365   1.000000
      4         -5.015037   1.000000
      5         -3.447040   1.000000
      6         -1.303824   0.000000
      7          1.249151   0.000000
      8          1.994950   0.000000
      9          3.462790   0.000000
     10          3.875967   0.000000
     11          4.721212   0.000000
     12          5.683142   0.000000
     13          6.054237   0.000000
     14          6.821287   0.000000
     15          7.264885   0.000000
     16          8.451731   0.000000
 
 -0.2857143E+00  0.2857143E+00  0.0000000E+00  0.1020408E-01
      1        -16.195248   1.000000
      2         -9.770041   1.000000
      3         -7.448928   1.000000
      4         -5.062690   1.000000
      5         -3.434334   1.000000
      6         -1.341519   0.000000
      7          1.201211   0.000000
      8          2.015667   0.000000
      9          3.462464   0.000000
     10          3.864876   0.000000
     11          4.731288   0.000000
     12          5.698028   0.000000
     13          6.064573   0.000000
     14          6.875478   0.000000
     15          7.275731   0.000000
     16          8.459229   0.000000
 
  0.3571429E+00  0.0000000E+00  0.0000000E+00  0.1020408E-01
      1        -15.507446   1.000000
      2        -10.766119   1.000000
      3         -7.279429   1.000000
      4         -5.359179   1.000000
      5         -3.796600   1.000000
      6         -1.444111   0.000000
      7          0.567237   0.000000
      8          2.025229   0.000000
      9          3.792186   0.000000
     10          4.318241   0.000000
     11          5.028883   0.000000
     12          6.289964   0.000000
     13          6.810309   0.000000
     14          7.896484   0.000000
     15          8.514427   0.000000
     16          8.905148   0.000000
 
  0.0000000E+00  0.3571429E+00  0.0000000E+00  0.1020408E-01
      1        -15.502040   1.000000
      2        -10.783831   1.000000
      3         -7.276561   1.000000
      4         -5.348506   1.000000
      5         -3.803348   1.000000
      6         -1.434140   0.000000
      7          0.583290   0.000000
      8          2.020803   0.000000
      9          3.788278   0.000000
     10          4.318280   0.000000
     11          5.025798   0.000000
     12          6.288103   0.000000
     13          6.809913   0.000000
     14          7.889974   0.000000
     15          8.511043   0.000000
     16          8.905394   0.000000
 
 -0.3571429E+00  0.3571429E+00  0.0000000E+00  0.1020408E-01
      1        -15.522343   1.000000
      2        -10.716494   1.000000
      3         -7.287283   1.000000
      4         -5.390560   1.000000
      5         -3.778162   1.000000
      6         -1.468759   0.000000
      7          0.526515   0.000000
      8          2.030931   0.000000
      9          3.802812   0.000000
     10          4.318070   0.000000
     11          5.037465   0.000000
     12          6.295208   0.000000
     13          6.811384   0.000000
     14          7.915487   0.000000
     15          8.527246   0.000000
     16          8.898838   0.000000
 
  0.4285714E+00 -0.2775558E-16  0.0000000E+00  0.1020408E-01
      1        -14.776585   1.000000
      2        -11.802523   1.000000
      3         -6.788339   1.000000
      4         -5.565029   1.000000
      5         -4.381298   1.000000
      6         -1.391037   0.000000
      7          0.248801   0.000000
      8          1.983344   0.000000
      9          3.292996   0.000000
     10          5.310403   0.000000
     11          5.911577   0.000000
     12          6.954796   0.000000
     13          7.695220   0.000000
     14          7.843835   0.000000
     15          8.110311   0.000000
     16          8.806900   0.000000
 
  0.0000000E+00  0.4285714E+00  0.0000000E+00  0.1020408E-01
      1        -14.764750   1.000000
      2        -11.827297   1.000000
      3         -6.780614   1.000000
      4         -5.555096   1.000000
      5         -4.392906   1.000000
      6         -1.381085   0.000000
      7          0.267458   0.000000
      8          1.980575   0.000000
      9          3.282236   0.000000
     10          5.310553   0.000000
     11          5.910567   0.000000
     12          6.954909   0.000000
     13          7.697086   0.000000
     14          7.841012   0.000000
     15          8.111269   0.000000
     16          8.806805   0.000000
 
 -0.4285714E+00  0.4285714E+00  0.0000000E+00  0.1020408E-01
      1        -14.808687   1.000000
      2        -11.733910   1.000000
      3         -6.809655   1.000000
      4         -5.594132   1.000000
      5         -4.349558   1.000000
      6         -1.414711   0.000000
      7          0.198726   0.000000
      8          1.986066   0.000000
      9          3.322271   0.000000
     10          5.309908   0.000000
     11          5.914417   0.000000
     12          6.954801   0.000000
     13          7.689803   0.000000
     14          7.851895   0.000000
     15          8.108279   0.000000
     16          8.808669   0.000000
 
  0.5000000E+00 -0.5551115E-16  0.0000000E+00  0.5102041E-02
      1        -14.351526   1.000000
      2        -12.342772   1.000000
      3         -6.485095   1.000000
      4         -5.634846   1.000000
      5         -4.725015   1.000000
      6         -1.363649   0.000000
      7          0.189285   0.000000
      8          1.960929   0.000000
      9          3.060679   0.000000
     10          6.389781   0.000000
     11          6.404372   0.000000
     12          6.851769   0.000000
     13          7.217253   0.000000
     14          7.711271   0.000000
     15          8.487092   0.000000
     16          8.943292   0.000000
 
  0.0000000E+00  0.5000000E+00  0.0000000E+00  0.5102041E-02
      1        -14.331109   1.000000
      2        -12.376200   1.000000
      3         -6.472911   1.000000
      4         -5.625102   1.000000
      5         -4.741290   1.000000
      6         -1.353531   0.000000
      7          0.209406   0.000000
      8          1.958666   0.000000
      9          3.047256   0.000000
     10          6.388327   0.000000
     11          6.406965   0.000000
     12          6.853141   0.000000
     13          7.215356   0.000000
     14          7.711713   0.000000
     15          8.485422   0.000000
     16          8.943946   0.000000
 
  0.5000000E+00  0.5000000E+00  0.0000000E+00  0.5102041E-02
      1        -14.405319   1.000000
      2        -12.252279   1.000000
      3         -6.518285   1.000000
      4         -5.663152   1.000000
      5         -4.681073   1.000000
      6         -1.387213   0.000000
      7          0.134272   0.000000
      8          1.962942   0.000000
      9          3.096990   0.000000
     10          6.393771   0.000000
     11          6.397181   0.000000
     12          6.848096   0.000000
     13          7.222739   0.000000
     14          7.710267   0.000000
     15          8.491975   0.000000
     16          8.941520   0.000000
 
  0.7142857E-01  0.7142857E-01  0.0000000E+00  0.1020408E-01
      1        -17.226943   1.000000
      2         -9.606676   1.000000
      3         -5.129579   1.000000
      4         -4.031260   1.000000
      5         -3.629114   1.000000
      6          0.364209   0.000000
      7          0.592990   0.000000
      8          1.988847   0.000000
      9          2.383505   0.000000
     10          2.706297   0.000000
     11          3.949354   0.000000
     12          4.715079   0.000000
     13          5.166939   0.000000
     14          6.065989   0.000000
     15          7.366031   0.000000
     16          7.402704   0.000000
 
 -0.7142857E-01  0.1428571E+00  0.0000000E+00  0.1020408E-01
      1        -17.227858   1.000000
      2         -9.605349   1.000000
      3         -5.071370   1.000000
      4         -4.097302   1.000000
      5         -3.628893   1.000000
      6          0.288531   0.000000
      7          0.679160   0.000000
      8          1.974113   0.000000
      9          2.372587   0.000000
     10          2.706891   0.000000
     11          3.954358   0.000000
     12          4.714825   0.000000
     13          5.199909   0.000000
     14          6.062639   0.000000
     15          7.367886   0.000000
     16          7.397138   0.000000
 
 -0.1428571E+00  0.7142857E-01  0.0000000E+00  0.1020408E-01
      1        -17.228187   1.000000
      2         -9.604874   1.000000
      3         -5.048542   1.000000
      4         -4.123304   1.000000
      5         -3.628127   1.000000
      6          0.263131   0.000000
      7          0.709161   0.000000
      8          1.967587   0.000000
      9          2.368601   0.000000
     10          2.707070   0.000000
     11          3.956063   0.000000
     12          4.714744   0.000000
     13          5.212056   0.000000
     14          6.062011   0.000000
     15          7.370050   0.000000
     16          7.393523   0.000000
 
  0.1428571E+00  0.7142857E-01  0.0000000E+00  0.1020408E-01
      1        -16.901744   1.000000
      2         -9.472082   1.000000
      3         -6.303605   1.000000
      4         -4.646346   1.000000
      5         -3.486986   1.000000
      6         -0.132136   0.000000
      7          1.120685   0.000000
      8          2.497561   0.000000
      9          2.717027   0.000000
     10          3.102054   0.000000
     11          4.010736   0.000000
     12          4.936264   0.000000
     13          5.080772   0.000000
     14          6.168435   0.000000
     15          7.020160   0.000000
     16          7.780857   0.000000
 
 -0.7142857E-01  0.2142857E+00  0.0000000E+00  0.1020408E-01
      1        -16.902929   1.000000
      2         -9.469154   1.000000
      3         -6.277077   1.000000
      4         -4.681122   1.000000
      5         -3.487447   1.000000
      6         -0.136570   0.000000
      7          1.153459   0.000000
      8          2.476376   0.000000
      9          2.710647   0.000000
     10          3.089616   0.000000
     11          3.999560   0.000000
     12          4.934557   0.000000
     13          5.078669   0.000000
     14          6.204719   0.000000
     15          7.029439   0.000000
     16          7.778407   0.000000
 
 -0.2142857E+00  0.1428571E+00  0.0000000E+00  0.1020408E-01
      1        -16.904959   1.000000
      2         -9.464496   1.000000
      3         -6.235924   1.000000
      4         -4.726585   1.000000
      5         -3.485231   1.000000
      6         -0.180020   0.000000
      7          1.193700   0.000000
      8          2.451587   0.000000
      9          2.695187   0.000000
     10          3.086257   0.000000
     11          4.028891   0.000000
     12          4.955913   0.000000
     13          5.080345   0.000000
     14          6.208966   0.000000
     15          7.028873   0.000000
     16          7.786931   0.000000
 
 -0.1428571E+00  0.2142857E+00  0.0000000E+00  0.1020408E-01
      1        -16.904393   1.000000
      2         -9.465852   1.000000
      3         -6.248897   1.000000
      4         -4.710622   1.000000
      5         -3.485425   1.000000
      6         -0.173734   0.000000
      7          1.177581   0.000000
      8          2.462701   0.000000
      9          2.698082   0.000000
     10          3.090128   0.000000
     11          4.030027   0.000000
     12          4.954632   0.000000
     13          5.081022   0.000000
     14          6.196498   0.000000
     15          7.025590   0.000000
     16          7.787037   0.000000
 
  0.7142857E-01  0.1428571E+00  0.0000000E+00  0.1020408E-01
      1        -16.901356   1.000000
      2         -9.472962   1.000000
      3         -6.310524   1.000000
      4         -4.639132   1.000000
      5         -3.487623   1.000000
      6         -0.121158   0.000000
      7          1.113458   0.000000
      8          2.500537   0.000000
      9          2.720930   0.000000
     10          3.102330   0.000000
     11          4.002075   0.000000
     12          4.930809   0.000000
     13          5.080160   0.000000
     14          6.170862   0.000000
     15          7.020915   0.000000
     16          7.778652   0.000000
 
  0.2142857E+00 -0.7142857E-01  0.0000000E+00  0.1020408E-01
      1        -16.903882   1.000000
      2         -9.466919   1.000000
      3         -6.257246   1.000000
      4         -4.704237   1.000000
      5         -3.486618   1.000000
      6         -0.153809   0.000000
      7          1.176768   0.000000
      8          2.462274   0.000000
      9          2.703824   0.000000
     10          3.085544   0.000000
     11          4.007057   0.000000
     12          4.941287   0.000000
     13          5.078619   0.000000
     14          6.214750   0.000000
     15          7.031975   0.000000
     16          7.780502   0.000000
 
  0.2142857E+00  0.7142857E-01  0.0000000E+00  0.1020408E-01
      1        -16.421469   1.000000
      2         -9.553089   1.000000
      3         -7.235085   1.000000
      4         -5.211953   1.000000
      5         -3.390996   1.000000
      6         -0.672599   0.000000
      7          1.521169   0.000000
      8          1.909220   0.000000
      9          3.188749   0.000000
     10          3.646108   0.000000
     11          4.472966   0.000000
     12          5.389127   0.000000
     13          5.611068   0.000000
     14          6.241039   0.000000
     15          7.497174   0.000000
     16          8.226832   0.000000
 
 -0.7142857E-01  0.2857143E+00  0.0000000E+00  0.1020408E-01
      1        -16.422527   1.000000
      2         -9.547892   1.000000
      3         -7.228970   1.000000
      4         -5.226861   1.000000
      5         -3.394178   1.000000
      6         -0.663808   0.000000
      7          1.580511   0.000000
      8          1.860851   0.000000
      9          3.189900   0.000000
     10          3.643281   0.000000
     11          4.447831   0.000000
     12          5.374523   0.000000
     13          5.601502   0.000000
     14          6.224209   0.000000
     15          7.562189   0.000000
     16          8.231499   0.000000
 
 -0.2857143E+00  0.2142857E+00  0.0000000E+00  0.1020408E-01
      1        -16.428016   1.000000
      2         -9.525447   1.000000
      3         -7.201744   1.000000
      4         -5.271568   1.000000
      5         -3.386729   1.000000
      6         -0.700241   0.000000
      7          1.586726   0.000000
      8          1.832835   0.000000
      9          3.189028   0.000000
     10          3.637121   0.000000
     11          4.474711   0.000000
     12          5.394389   0.000000
     13          5.607123   0.000000
     14          6.242616   0.000000
     15          7.573653   0.000000
     16          8.236700   0.000000
 
 -0.2142857E+00  0.2857143E+00  0.0000000E+00  0.1020408E-01
      1        -16.427194   1.000000
      2         -9.529093   1.000000
      3         -7.206293   1.000000
      4         -5.262753   1.000000
      5         -3.386347   1.000000
      6         -0.699443   0.000000
      7          1.563491   0.000000
      8          1.853962   0.000000
      9          3.188719   0.000000
     10          3.638510   0.000000
     11          4.480284   0.000000
     12          5.397641   0.000000
     13          5.609940   0.000000
     14          6.246724   0.000000
     15          7.550924   0.000000
     16          8.234649   0.000000
 
  0.7142857E-01  0.2142857E+00  0.0000000E+00  0.1020408E-01
      1        -16.420231   1.000000
      2         -9.558068   1.000000
      3         -7.240715   1.000000
      4         -5.202961   1.000000
      5         -3.393172   1.000000
      6         -0.662516   0.000000
      7          1.527233   0.000000
      8          1.908831   0.000000
      9          3.189034   0.000000
     10          3.647574   0.000000
     11          4.464390   0.000000
     12          5.382938   0.000000
     13          5.608696   0.000000
     14          6.234892   0.000000
     15          7.500214   0.000000
     16          8.226163   0.000000
 
  0.2857143E+00 -0.7142857E-01  0.0000000E+00  0.1020408E-01
      1        -16.424587   1.000000
      2         -9.539266   1.000000
      3         -7.218809   1.000000
      4         -5.244651   1.000000
      5         -3.392388   1.000000
      6         -0.674686   0.000000
      7          1.596693   0.000000
      8          1.841100   0.000000
      9          3.189925   0.000000
     10          3.640426   0.000000
     11          4.450839   0.000000
     12          5.377448   0.000000
     13          5.601068   0.000000
     14          6.226243   0.000000
     15          7.581890   0.000000
     16          8.234209   0.000000
 
  0.2857143E+00  0.7142857E-01  0.0000000E+00  0.1020408E-01
      1        -15.800139   1.000000
      2        -10.263661   1.000000
      3         -7.388010   1.000000
      4         -5.646894   1.000000
      5         -3.540013   1.000000
      6         -0.981445   0.000000
      7          1.052207   0.000000
      8          1.687631   0.000000
      9          3.884385   0.000000
     10          4.118644   0.000000
     11          4.808807   0.000000
     12          5.994080   0.000000
     13          6.418623   0.000000
     14          6.525826   0.000000
     15          8.517478   0.000000
     16          9.011040   0.000000
 
 -0.7142857E-01  0.3571429E+00  0.0000000E+00  0.1020408E-01
      1        -15.800193   1.000000
      2        -10.262261   1.000000
      3         -7.389552   1.000000
      4         -5.648480   1.000000
      5         -3.548113   1.000000
      6         -0.961985   0.000000
      7          1.039362   0.000000
      8          1.711701   0.000000
      9          3.882242   0.000000
     10          4.116876   0.000000
     11          4.800409   0.000000
     12          5.991140   0.000000
     13          6.385055   0.000000
     14          6.505072   0.000000
     15          8.544318   0.000000
     16          9.061135   0.000000
 
 -0.3571429E+00  0.2857143E+00  0.0000000E+00  0.1020408E-01
      1        -15.812660   1.000000
      2        -10.211223   1.000000
      3         -7.389737   1.000000
      4         -5.689486   1.000000
      5         -3.529934   1.000000
      6         -0.997353   0.000000
      7          0.995162   0.000000
      8          1.716059   0.000000
      9          3.883251   0.000000
     10          4.117046   0.000000
     11          4.820674   0.000000
     12          6.001791   0.000000
     13          6.413444   0.000000
     14          6.521364   0.000000
     15          8.532974   0.000000
     16          9.057194   0.000000
 
 -0.2857143E+00  0.3571429E+00  0.0000000E+00  0.1020408E-01
      1        -15.811564   1.000000
      2        -10.216150   1.000000
      3         -7.389156   1.000000
      4         -5.685561   1.000000
      5         -3.528769   1.000000
      6         -1.000467   0.000000
      7          1.003747   0.000000
      8          1.707024   0.000000
      9          3.883858   0.000000
     10          4.117537   0.000000
     11          4.821660   0.000000
     12          6.001835   0.000000
     13          6.421059   0.000000
     14          6.527788   0.000000
     15          8.525094   0.000000
     16          9.042390   0.000000
 
  0.7142857E-01  0.2857143E+00  0.0000000E+00  0.1020408E-01
      1        -15.797114   1.000000
      2        -10.275743   1.000000
      3         -7.388028   1.000000
      4         -5.637474   1.000000
      5         -3.545234   1.000000
      6         -0.970657   0.000000
      7          1.064168   0.000000
      8          1.685769   0.000000
      9          3.883956   0.000000
     10          4.118479   0.000000
     11          4.803127   0.000000
     12          5.991267   0.000000
     13          6.410155   0.000000
     14          6.518618   0.000000
     15          8.522856   0.000000
     16          9.015135   0.000000
 
  0.3571429E+00 -0.7142857E-01  0.0000000E+00  0.1020408E-01
      1        -15.804315   1.000000
      2        -10.245254   1.000000
      3         -7.390114   1.000000
      4         -5.661822   1.000000
      5         -3.544058   1.000000
      6         -0.969660   0.000000
      7          1.019095   0.000000
      8          1.722322   0.000000
      9          3.882064   0.000000
     10          4.116554   0.000000
     11          4.805100   0.000000
     12          5.993911   0.000000
     13          6.385916   0.000000
     14          6.505843   0.000000
     15          8.546832   0.000000
     16          9.071897   0.000000
 
  0.3571429E+00  0.7142857E-01  0.0000000E+00  0.1020408E-01
      1        -15.076943   1.000000
      2        -11.310523   1.000000
      3         -7.023135   1.000000
      4         -5.904800   1.000000
      5         -4.032830   1.000000
      6         -0.965144   0.000000
      7          0.470069   0.000000
      8          1.713865   0.000000
      9          3.674082   0.000000
     10          4.871955   0.000000
     11          5.502831   0.000000
     12          6.706987   0.000000
     13          7.350394   0.000000
     14          7.481924   0.000000
     15          8.634442   0.000000
     16          8.698914   0.000000
 
 -0.7142857E-01  0.4285714E+00  0.0000000E+00  0.1020408E-01
      1        -15.073579   1.000000
      2        -11.318697   1.000000
      3         -7.024609   1.000000
      4         -5.895829   1.000000
      5         -4.045686   1.000000
      6         -0.937438   0.000000
      7          0.449678   0.000000
      8          1.742371   0.000000
      9          3.658407   0.000000
     10          4.872798   0.000000
     11          5.501387   0.000000
     12          6.708322   0.000000
     13          7.350474   0.000000
     14          7.445292   0.000000
     15          8.618976   0.000000
     16          8.736554   0.000000
 
 -0.4285714E+00  0.3571429E+00  0.0000000E+00  0.1020408E-01
      1        -15.101382   1.000000
      2        -11.244615   1.000000
      3         -7.045095   1.000000
      4         -5.932003   1.000000
      5         -4.012732   1.000000
      6         -0.974485   0.000000
      7          0.399262   0.000000