 running   16 mpi-ranks, on    1 nodes
 distrk:  each k-point on   16 cores,    1 groups
 distr:  one band on    1 cores,   16 groups
 vasp.6.4.2 20Jul23 (build Nov 14 2023 12:59:38) complex                        
  
 POSCAR found type information on POSCAR P 
 POSCAR found :  1 types and       2 ions
 Reading from existing POTCAR
 scaLAPACK will be used
 -----------------------------------------------------------------------------
|                                                                             |
|           W    W    AA    RRRRR   N    N  II  N    N   GGGG   !!!           |
|           W    W   A  A   R    R  NN   N  II  NN   N  G    G  !!!           |
|           W    W  A    A  R    R  N N  N  II  N N  N  G       !!!           |
|           W WW W  AAAAAA  RRRRR   N  N N  II  N  N N  G  GGG   !            |
|           WW  WW  A    A  R   R   N   NN  II  N   NN  G    G                |
|           W    W  A    A  R    R  N    N  II  N    N   GGGG   !!!           |
|                                                                             |
|     For optimal performance we recommend to set                             |
|       NCORE = 2 up to number-of-cores-per-socket                            |
|     NCORE specifies how many cores store one orbital (NPAR=cpu/NCORE).      |
|     This setting can greatly improve the performance of VASP for DFT.       |
|     The default, NCORE=1 might be grossly inefficient on modern             |
|     multi-core architectures or massively parallel machines. Do your        |
|     own testing! More info at https://www.vasp.at/wiki/index.php/NCORE      |
|     Unfortunately you need to use the default for GW and RPA                |
|     calculations (for HF NCORE is supported but not extensively tested      |
|     yet).                                                                   |
|                                                                             |
 -----------------------------------------------------------------------------

 Reading from existing POTCAR
 LDA part: xc-table for Pade appr. of Perdew
 POSCAR, INCAR and KPOINTS ok, starting setup
 FFT: planning ... GRIDC
 FFT: planning ... GRID_SOFT
 FFT: planning ... GRID
 WAVECAR not read
 entering main loop
       N       E                     dE             d eps       ncg     rms          rms(c)
DAV:   1     0.248239827022E+02    0.24824E+02   -0.29434E+03  3200   0.277E+02
DAV:   2    -0.992301475268E+01   -0.34747E+02   -0.34392E+02  4960   0.666E+01
DAV:   3    -0.107727472895E+02   -0.84973E+00   -0.84973E+00  4528   0.138E+01
DAV:   4    -0.107848745077E+02   -0.12127E-01   -0.12127E-01  5472   0.138E+00
DAV:   5    -0.107849397790E+02   -0.65271E-04   -0.65271E-04  4480   0.866E-02
DAV:   6    -0.107849403416E+02   -0.56260E-06   -0.56281E-06  5520   0.677E-03
DAV:   7    -0.107849403443E+02   -0.26412E-08   -0.27274E-08  4656   0.418E-04
DAV:   8    -0.107849403443E+02   -0.15461E-10   -0.27804E-10  5536   0.339E-05
DAV:   9    -0.107849403443E+02    0.34674E-11   -0.10036E-12  4528   0.197E-06
DAV:  10    -0.107849403443E+02    0.32401E-11    0.45043E-14  4144   0.339E-07
DAV:  11    -0.107849403443E+02    0.79581E-12    0.12084E-12  3232   0.177E-07
DAV:  12    -0.107849403443E+02    0.34106E-12    0.55865E-13  3280   0.117E-07    0.249E+00
DAV:  13    -0.107588017432E+02    0.26139E-01   -0.53658E-03  4720   0.229E-01    0.221E+00
DAV:  14    -0.106830375721E+02    0.75764E-01   -0.28639E-01  5472   0.167E+00    0.303E-01
DAV:  15    -0.106773862459E+02    0.56513E-02   -0.32466E-02  5648   0.596E-01    0.115E-01
DAV:  16    -0.106775184989E+02   -0.13225E-03   -0.85860E-04  4496   0.134E-01    0.690E-02
DAV:  17    -0.106773550285E+02    0.16347E-03   -0.11070E-03  5392   0.103E-01    0.375E-02
DAV:  18    -0.106773341124E+02    0.20916E-04   -0.14968E-04  4832   0.427E-02    0.733E-03
DAV:  19    -0.106773345741E+02   -0.46174E-06   -0.10217E-05  4544   0.133E-02    0.628E-03
DAV:  20    -0.106773355909E+02   -0.10168E-05   -0.34910E-06  5536   0.744E-03    0.130E-03
DAV:  21    -0.106773354764E+02    0.11457E-06   -0.99993E-08  3568   0.129E-03
   1 F= -.10677335E+02 E0= -.10677335E+02  d E =-.225910E-11
 Linear response reoptimize wavefunctions to high precision
DAV:   1    -0.106773354004E+02    0.75994E-07   -0.10709E-07  3296   0.139E-03
DAV:   2    -0.106773354009E+02   -0.55797E-09   -0.55789E-09  6240   0.349E-04
DAV:   3    -0.106773354009E+02   -0.79581E-12   -0.88376E-12  3472   0.922E-06
 Linear response G [H, r] |phi>, progress :
  Direction:   1
       N       E                     dE             d eps       ncg     rms
RMM:   1    -0.376245150173E+02   -0.37625E+02    0.30229E+01  8154   0.499E+01
RMM:   2    -0.349837472619E+02    0.26408E+01   -0.68543E+00  6294   0.116E+01
RMM:   3    -0.351936712080E+02   -0.20992E+00   -0.52238E-01  6271   0.302E+00
RMM:   4    -0.352059510952E+02   -0.12280E-01   -0.26619E-02  6431   0.728E-01
RMM:   5    -0.352067091231E+02   -0.75803E-03   -0.29365E-03  6566   0.241E-01
RMM:   6    -0.352068323368E+02   -0.12321E-03   -0.23368E-04  6666   0.658E-02
RMM:   7    -0.352068395396E+02   -0.72028E-05   -0.32688E-05  6711   0.221E-02
RMM:   8    -0.352068403515E+02   -0.81193E-06   -0.29871E-06  6663   0.638E-03
 Linear response G [H, r] |phi>, progress :
  Direction:   2
       N       E                     dE             d eps       ncg     rms
RMM:   1    -0.386641852434E+02   -0.38664E+02    0.17128E+01  8165   0.498E+01
RMM:   2    -0.349538852623E+02    0.37103E+01   -0.66041E+00  6278   0.116E+01
RMM:   3    -0.351935133521E+02   -0.23963E+00   -0.57371E-01  6318   0.306E+00
RMM:   4    -0.352036024370E+02   -0.10089E-01   -0.24240E-02  6458   0.713E-01
RMM:   5    -0.352044722496E+02   -0.86981E-03   -0.28733E-03  6600   0.235E-01
RMM:   6    -0.352045712253E+02   -0.98976E-04   -0.21084E-04  6660   0.617E-02
RMM:   7    -0.352045771473E+02   -0.59220E-05   -0.27898E-05  6710   0.204E-02
RMM:   8    -0.352045777598E+02   -0.61245E-06   -0.25432E-06  6694   0.566E-03
 Linear response G [H, r] |phi>, progress :
  Direction:   3
       N       E                     dE             d eps       ncg     rms
RMM:   1    -0.253512406695E+02   -0.25351E+02    0.25611E+02  7687   0.595E+01
RMM:   2    -0.351023662072E+02   -0.97511E+01   -0.75046E+00  6385   0.132E+01
RMM:   3    -0.352356921268E+02   -0.13333E+00   -0.66101E-01  6462   0.320E+00
RMM:   4    -0.352412160860E+02   -0.55240E-02   -0.37583E-02  6586   0.836E-01
RMM:   5    -0.352422518057E+02   -0.10357E-02   -0.45560E-03  6743   0.274E-01
RMM:   6    -0.352423921423E+02   -0.14034E-03   -0.44688E-04  6897   0.877E-02
RMM:   7    -0.352424085190E+02   -0.16377E-04   -0.65583E-05  6924   0.294E-02
RMM:   8    -0.352424106741E+02   -0.21550E-05   -0.68794E-06  7001   0.968E-03
RMM:   9    -0.352424109316E+02   -0.25750E-06   -0.10244E-06  6840   0.318E-03
 Linear response to external field (no local field effect), progress :
  Direction:   1
       N       E                     dE             d eps       ncg     rms          rms(c)
RMM:   1    -0.131117616373E+01   -0.13112E+01   -0.71604E+00  8030   0.329E+00
RMM:   2    -0.137566669205E+01   -0.64491E-01   -0.22295E-02  5779   0.597E-01
RMM:   3    -0.137645441942E+01   -0.78773E-03   -0.12515E-03  6123   0.128E-01
RMM:   4    -0.137652173840E+01   -0.67319E-04   -0.98752E-05  6422   0.374E-02
RMM:   5    -0.137652609152E+01   -0.43531E-05   -0.11890E-05  6420   0.115E-02
RMM:   6    -0.137652660805E+01   -0.51653E-06   -0.75756E-07  6355   0.340E-03
 change of polarisation eV/A/(eV/A) component  1 :     2.753    -0.011    -0.010
 dielectric tensor                  component  1 :     4.337    -0.013    -0.013
 Linear response to external field (no local field effect), progress :
  Direction:   2
       N       E                     dE             d eps       ncg     rms          rms(c)
RMM:   1    -0.130231096073E+01   -0.13023E+01   -0.70847E+00  8001   0.324E+00
RMM:   2    -0.136541192724E+01   -0.63101E-01   -0.23390E-02  5803   0.599E-01
RMM:   3    -0.136622591547E+01   -0.81399E-03   -0.12510E-03  6124   0.125E-01
RMM:   4    -0.136629326899E+01   -0.67354E-04   -0.10309E-04  6420   0.374E-02
RMM:   5    -0.136629790313E+01   -0.46341E-05   -0.12359E-05  6448   0.114E-02
RMM:   6    -0.136629844379E+01   -0.54066E-06   -0.82428E-07  6343   0.348E-03
 change of polarisation eV/A/(eV/A) component  2 :    -0.011     2.733     0.010
 dielectric tensor                  component  2 :    -0.013     4.312     0.012
 Linear response to external field (no local field effect), progress :
  Direction:   3
       N       E                     dE             d eps       ncg     rms          rms(c)
RMM:   1    -0.505455667111E+00   -0.50546E+00   -0.12162E+00  7839   0.280E+00
RMM:   2    -0.556671786309E+00   -0.51216E-01   -0.16373E-02  5919   0.573E-01
RMM:   3    -0.557057774819E+00   -0.38599E-03   -0.68281E-04  6273   0.101E-01
RMM:   4    -0.557079731159E+00   -0.21956E-04   -0.44890E-05  6476   0.254E-02
RMM:   5    -0.557081131789E+00   -0.14006E-05   -0.41229E-06  6417   0.706E-03
RMM:   6    -0.557081311166E+00   -0.17938E-06   -0.41131E-07  6087   0.222E-03
 change of polarisation eV/A/(eV/A) component  3 :    -0.010     0.010     1.114
 dielectric tensor                  component  3 :    -0.013     0.012     2.351
 Linear response to external field, progress :
  Direction:   1
       N       E                     dE             d eps       ncg     rms          rms(c)
RMM:   1    -0.131117616373E+01   -0.13112E+01   -0.71604E+00  8030   0.329E+00
RMM:   2    -0.137566669205E+01   -0.64491E-01   -0.22295E-02  5779   0.597E-01    0.202E+00
RMM:   3    -0.134736705204E+01    0.28300E-01   -0.45014E-03  5849   0.257E-01    0.174E+00
RMM:   4    -0.135988478561E+01   -0.12518E-01   -0.11434E-01  5648   0.121E+00    0.364E-01
RMM:   5    -0.137175837152E+01   -0.11874E-01   -0.16633E-03  5682   0.240E-01    0.219E-01
RMM:   6    -0.137941260547E+01   -0.76542E-02   -0.12184E-03  5820   0.138E-01    0.466E-02
RMM:   7    -0.138351834668E+01   -0.41057E-02   -0.48209E-05  5962   0.345E-02    0.205E-02
RMM:   8    -0.138448233731E+01   -0.96399E-03   -0.13009E-05  5600   0.178E-02    0.566E-03
RMM:   9    -0.138508565898E+01   -0.60332E-03   -0.32698E-06  6237   0.744E-03    0.218E-03
RMM:  10    -0.138512253327E+01   -0.36874E-04   -0.59576E-07  5976   0.330E-03    0.112E-03
RMM:  11    -0.138522721595E+01   -0.10468E-03   -0.10899E-07  6027   0.134E-03    0.486E-04
RMM:  12    -0.138524513340E+01   -0.17917E-04   -0.24732E-08  5654   0.697E-04    0.172E-04
RMM:  13    -0.138525478454E+01   -0.96511E-05   -0.13435E-09  4268   0.266E-04    0.956E-05
RMM:  14    -0.138525899461E+01   -0.42101E-05   -0.92202E-10  3534   0.264E-04    0.866E-05
RMM:  15    -0.138525840505E+01    0.58956E-06   -0.17568E-12  2393   0.183E-04    0.712E-06
 change of polarisation eV/A/(eV/A) component  1 :     2.540    -0.010    -0.001
 dielectric tensor                  component  1 :     4.079    -0.012    -0.001
 Linear response to external field, progress :
  Direction:   2
       N       E                     dE             d eps       ncg     rms          rms(c)
RMM:   1    -0.130231096073E+01   -0.13023E+01   -0.70847E+00  8001   0.324E+00
RMM:   2    -0.136541192724E+01   -0.63101E-01   -0.23390E-02  5803   0.599E-01    0.200E+00
RMM:   3    -0.133728317939E+01    0.28129E-01   -0.45028E-03  5869   0.256E-01    0.173E+00
RMM:   4    -0.134917689726E+01   -0.11894E-01   -0.11446E-01  5638   0.121E+00    0.360E-01
RMM:   5    -0.136046308213E+01   -0.11286E-01   -0.16316E-03  5702   0.238E-01    0.219E-01
RMM:   6    -0.136845499493E+01   -0.79919E-02   -0.11581E-03  5809   0.135E-01    0.470E-02
RMM:   7    -0.137244854770E+01   -0.39936E-02   -0.51167E-05  5983   0.348E-02    0.202E-02
RMM:   8    -0.137339312489E+01   -0.94458E-03   -0.12590E-05  5607   0.172E-02    0.552E-03
RMM:   9    -0.137399026440E+01   -0.59714E-03   -0.30453E-06  6280   0.726E-03    0.220E-03
RMM:  10    -0.137403602632E+01   -0.45762E-04   -0.59352E-07  6059   0.326E-03    0.106E-03
RMM:  11    -0.137413070953E+01   -0.94683E-04   -0.92386E-08  6170   0.124E-03    0.494E-04
RMM:  12    -0.137415026068E+01   -0.19551E-04   -0.22882E-08  5537   0.681E-04    0.197E-04
RMM:  13    -0.137416138442E+01   -0.11124E-04   -0.15159E-09  4404   0.280E-04    0.947E-05
RMM:  14    -0.137416574191E+01   -0.43575E-05   -0.90863E-10  3624   0.260E-04    0.822E-05
RMM:  15    -0.137416529285E+01    0.44907E-06    0.00000E+00  2254   0.180E-04    0.903E-06
 change of polarisation eV/A/(eV/A) component  2 :    -0.010     2.521     0.001
 dielectric tensor                  component  2 :    -0.012     4.056     0.001
 Linear response to external field, progress :
  Direction:   3
       N       E                     dE             d eps       ncg     rms          rms(c)
RMM:   1    -0.505455667111E+00   -0.50546E+00   -0.12162E+00  7839   0.280E+00
RMM:   2    -0.556671786309E+00   -0.51216E-01   -0.16373E-02  5919   0.573E-01    0.164E+00
RMM:   3    -0.206390160999E+00    0.35028E+00   -0.37133E-02  5566   0.622E-01    0.587E-01
RMM:   4    -0.137064195123E+00    0.69326E-01   -0.17370E-02  5844   0.418E-01    0.261E-01
RMM:   5    -0.133735873655E+00    0.33283E-02   -0.97242E-03  5423   0.342E-01    0.593E-02
RMM:   6    -0.133860261895E+00   -0.12439E-03   -0.18834E-04  5883   0.628E-02    0.535E-02
RMM:   7    -0.134478238620E+00   -0.61798E-03   -0.26203E-04  5910   0.622E-02    0.230E-02
RMM:   8    -0.134687397254E+00   -0.20916E-03   -0.95494E-05  6073   0.350E-02    0.132E-02
RMM:   9    -0.134702490401E+00   -0.15093E-04   -0.30583E-06  5948   0.843E-03    0.449E-03
RMM:  10    -0.134733299532E+00   -0.30809E-04   -0.81402E-07  5805   0.404E-03    0.108E-03
RMM:  11    -0.134733698814E+00   -0.39928E-06   -0.92017E-08  6028   0.122E-03    0.474E-04
 change of polarisation eV/A/(eV/A) component  3 :    -0.001     0.001     0.252
 dielectric tensor                  component  3 :    -0.001     0.001     1.306
 Born effective charges drift removed
IPL WARN> IPL_init_numa_nodes: can not define numa node num
