 vasp.6.4.2 20Jul23 (build Nov 14 2023 12:59:38) complex                        
  
 executed on             LinuxIFC date 2023.12.29  16:11:22
 running   16 mpi-ranks, on    1 nodes
 distrk:  each k-point on   16 cores,    1 groups
 distr:  one band on NCORE=   1 cores,   16 groups


--------------------------------------------------------------------------------------------------------


 INCAR:
   ENCUT = 286.920000
   ALGO = Normal
   NELM = 200
   NELMIN = 6
   NELMDL = -12
   EDIFF = 1.0E-6
   AMIX = 0.1
   BMIX = 0.0001
   PREC = Accurate
   IVDW = 0
   ISPIN = 1
   ADDGRID = .TRUE.
   LASPH = .TRUE.
   LREAL = .FALSE.
   LEPSILON = .TRUE.
   ISMEAR = 0
   SIGMA = 0.01
   LORBIT = 10
   NEDOS = 6001
   NWRITE = 3
   LWAVE = .FALSE.
   LCHARG = .FALSE.
   ICHARG = 2
   LELF = .FALSE.
   LVTOT = .FALSE.
   LPLANE = .TRUE.

 POTCAR:    PAW_PBE P_GW 19Mar2012                
 -----------------------------------------------------------------------------
|                                                                             |
|           W    W    AA    RRRRR   N    N  II  N    N   GGGG   !!!           |
|           W    W   A  A   R    R  NN   N  II  NN   N  G    G  !!!           |
|           W    W  A    A  R    R  N N  N  II  N N  N  G       !!!           |
|           W WW W  AAAAAA  RRRRR   N  N N  II  N  N N  G  GGG   !            |
|           WW  WW  A    A  R   R   N   NN  II  N   NN  G    G                |
|           W    W  A    A  R    R  N    N  II  N    N   GGGG   !!!           |
|                                                                             |
|     For optimal performance we recommend to set                             |
|       NCORE = 2 up to number-of-cores-per-socket                            |
|     NCORE specifies how many cores store one orbital (NPAR=cpu/NCORE).      |
|     This setting can greatly improve the performance of VASP for DFT.       |
|     The default, NCORE=1 might be grossly inefficient on modern             |
|     multi-core architectures or massively parallel machines. Do your        |
|     own testing! More info at https://www.vasp.at/wiki/index.php/NCORE      |
|     Unfortunately you need to use the default for GW and RPA                |
|     calculations (for HF NCORE is supported but not extensively tested      |
|     yet).                                                                   |
|                                                                             |
 -----------------------------------------------------------------------------

 POTCAR:    PAW_PBE P_GW 19Mar2012                
   SHA256 =  715c28f2291d37b61637ce89646c59f66f71c8b8d8bfba631e5feb9f7b42defe P_GW/POTCAR           
   COPYR  = (c) Copyright 19Mar2012 Georg Kresse                                                    
   COPYR  = This file is part of the software VASP. Any use, copying, and all other rights are regul
   COPYR  = If you do not have a valid VASP license, you may not use, copy or distribute this file. 
   VRHFIN =P : s2p3                                                                                 
   LEXCH  = PE                                                                                      
   EATOM  =   176.0430 eV,   12.9388 Ry                                                             
                                                                                                    
   TITEL  = PAW_PBE P_GW 19Mar2012                                                                  
   LULTRA =        F    use ultrasoft PP ?                                                          
   IUNSCR =        1    unscreen: 0-lin 1-nonlin 2-no                                               
   RPACOR =    1.400    partial core radius                                                         
   POMASS =   30.974; ZVAL   =    5.000    mass and valenz                                          
   RCORE  =    2.000    outmost cutoff radius                                                       
   RWIGS  =    1.900; RWIGS  =    1.005    wigner-seitz radius (au A)                               
   ENMAX  =  255.040; ENMIN  =  191.280 eV                                                          
   ICORE  =        3    local potential                                                             
   LCOR   =        T    correct aug charges                                                         
   LPAW   =        T    paw PP                                                                      
   EAUG   =  499.732                                                                                
   DEXC   =    0.000                                                                                
   RMAX   =    2.047    core radius for proj-oper                                                   
   RAUG   =    1.300    factor for augmentation sphere                                              
   RDEP   =    2.059    radius for radial grids                                                     
   RDEPT  =    1.900    core radius for aug-charge                                                  
                                                                                                    
   Atomic configuration                                                                             
    7 entries                                                                                       
     n  l   j            E        occ.                                                              
     1  0  0.50     -2084.0982   2.0000                                                             
     2  0  0.50      -173.9859   2.0000                                                             
     2  1  1.50      -124.4865   6.0000                                                             
     3  0  0.50       -13.9692   2.0000                                                             
     3  1  0.50        -5.5067   3.0000                                                             
     3  2  1.50        -6.8029   0.0000                                                             
     4  3  2.50        -1.3606   0.0000                                                             
   Description                                                                                      
     l       E           TYP  RCUT    TYP  RCUT                                                     
     0    -13.9691528     23  1.900                                                                 
     0    102.0436950     23  1.900                                                                 
     1     -5.5066939     23  1.900                                                                 
     1    102.0436950     23  1.900                                                                 
     2     -8.1634956     23  2.000                                                                 
     2     81.6349560     23  2.000                                                                 
     3     27.2116520     23  2.000                                                                 
  local pseudopotential read in
  partial core-charges read in
  partial kinetic energy density read in
  kinetic energy density of atom read in
  atomic valenz-charges read in
  non local Contribution for L=           0  read in
    real space projection operators read in
  non local Contribution for L=           0  read in
    real space projection operators read in
  non local Contribution for L=           1  read in
    real space projection operators read in
  non local Contribution for L=           1  read in
    real space projection operators read in
  non local Contribution for L=           2  read in
    real space projection operators read in
  non local Contribution for L=           2  read in
    real space projection operators read in
    PAW grid and wavefunctions read in
 
   number of l-projection  operators is LMAX  =           6
   number of lm-projection operators is LMMAX =          18
 
  PAW_PBE P_GW 19Mar2012                :
 energy of atom  1       EATOM= -176.0430
 kinetic energy error for atom=    0.0052 (will be added to EATOM!!)
 
 
 POSCAR: OUTCAR.0002.-1.out 1.0e-02
  positions in cartesian coordinates
  No initial velocities read in
 exchange correlation table for  LEXCH =        8
   RHO(1)=    0.500       N(1)  =     2000
   RHO(2)=  100.500       N(2)  =     4000
 


--------------------------------------------------------------------------------------------------------


 ion  position               nearest neighbor table
   1  0.664  0.332  0.461-   2 2.26   2 2.26   2 2.28
   2  0.336  0.668  0.539-   1 2.26   1 2.26   1 2.28
 
  LATTYP: Found a hexagonal cell.
 ALAT       =     3.2823434942
 C/A-ratio  =     4.8745660009
  
  Lattice vectors:
  
 A1 = (   3.2823434942,   0.0000000000,   0.0000000000)
 A2 = (  -1.6411717471,   2.8425928499,   0.0000000000)
 A3 = (   0.0000000000,   0.0000000000,  16.0000000000)


Analysis of symmetry for initial positions (statically):
=====================================================================
 Subroutine PRICEL returns:
 Original cell was already a primitive cell.
 

 Routine SETGRP: Setting up the symmetry group for a 
 hexagonal supercell.


 Subroutine GETGRP returns: Found  2 space group operations
 (whereof  2 operations were pure point group operations)
 out of a pool of 24 trial point group operations.


The static configuration has the point symmetry S_2 .


Analysis of symmetry for dynamics (positions and initial velocities):
=====================================================================
 Subroutine PRICEL returns:
 Original cell was already a primitive cell.
 

 Routine SETGRP: Setting up the symmetry group for a 
 hexagonal supercell.


 Subroutine GETGRP returns: Found  2 space group operations
 (whereof  2 operations were pure point group operations)
 out of a pool of 24 trial point group operations.


The dynamic configuration has the point symmetry S_2 .


 Subroutine INISYM returns: Found  2 space group operations
 (whereof  2 operations are pure point group operations),
 and found     1 'primitive' translations



 irot  :   1
 --------------------------------------------------------------------
 isymop:   1   0   0
           0   1   0
           0   0   1

 gtrans:     0.0000000     0.0000000     0.0000000

 ptrans:     0.0000000     0.0000000     0.0000000
 
 rotmap:
 (   1->   1)  (   2->   2) 


 irot  :   2
 --------------------------------------------------------------------
 isymop:  -1   0   0
           0  -1   0
           0   0  -1

 gtrans:     0.0000000     0.0000000     0.0000000

 ptrans:     0.0000000     0.0000000     0.0000000
 
 rotmap:
 (   1->   2)  (   2->   1) 

----------------------------------------------------------------------------------------

                                     Primitive cell                                     

  volume of cell :     149.2859

  direct lattice vectors                    reciprocal lattice vectors
     3.282343494  0.000000000  0.000000000     0.304660375  0.175895750  0.000000000
    -1.641171747  2.842592850  0.000000000     0.000000000  0.351791499  0.000000000
     0.000000000  0.000000000 16.000000000     0.000000000  0.000000000  0.062500000

  length of vectors
     3.282343494  3.282343494 16.000000000     0.351791499  0.351791499  0.062500000

  position of ions in fractional coordinates (direct lattice)
     0.664263882  0.331574386  0.461182839
     0.335736118  0.668425614  0.538817161

  ion indices of the primitive-cell ions
   primitive index   ion index
                 1           1
                 2           2

----------------------------------------------------------------------------------------

 
 
 KPOINTS: kpoints                                 

Automatic generation of k-mesh.
 Grid dimensions read from file:
 generate k-points for:   14   14    1

 Generating k-lattice:

  Cartesian coordinates                     Fractional coordinates (reciprocal lattice)
     0.021761455  0.012563982  0.000000000     0.071428571  0.000000000  0.000000000
     0.000000000  0.025127964  0.000000000     0.000000000  0.071428571  0.000000000
     0.000000000  0.000000000  0.062500000     0.000000000  0.000000000  1.000000000

  Length of vectors
     0.025127964  0.025127964  0.062500000

  Shift w.r.t. Gamma in fractional coordinates (k-lattice)
     0.000000000  0.000000000  0.000000000

 
 Subroutine IBZKPT returns following result:
 ===========================================
 
 Found    100 irreducible k-points:
 
 Following reciprocal coordinates:
            Coordinates               Weight
  0.000000  0.000000  0.000000      1.000000
  0.071429  0.000000  0.000000      2.000000
  0.000000  0.071429  0.000000      2.000000
 -0.071429  0.071429  0.000000      2.000000
  0.142857  0.000000  0.000000      2.000000
  0.000000  0.142857  0.000000      2.000000
 -0.142857  0.142857  0.000000      2.000000
  0.214286 -0.000000  0.000000      2.000000
  0.000000  0.214286  0.000000      2.000000
 -0.214286  0.214286  0.000000      2.000000
  0.285714  0.000000  0.000000      2.000000
  0.000000  0.285714  0.000000      2.000000
 -0.285714  0.285714  0.000000      2.000000
  0.357143  0.000000  0.000000      2.000000
  0.000000  0.357143  0.000000      2.000000
 -0.357143  0.357143  0.000000      2.000000
  0.428571 -0.000000  0.000000      2.000000
  0.000000  0.428571  0.000000      2.000000
 -0.428571  0.428571  0.000000      2.000000
  0.500000 -0.000000  0.000000      1.000000
  0.000000  0.500000  0.000000      1.000000
  0.500000  0.500000  0.000000      1.000000
  0.071429  0.071429  0.000000      2.000000
 -0.071429  0.142857  0.000000      2.000000
 -0.142857  0.071429  0.000000      2.000000
  0.142857  0.071429  0.000000      2.000000
 -0.071429  0.214286  0.000000      2.000000
 -0.214286  0.142857  0.000000      2.000000
 -0.142857  0.214286  0.000000      2.000000
  0.071429  0.142857  0.000000      2.000000
  0.214286 -0.071429  0.000000      2.000000
  0.214286  0.071429  0.000000      2.000000
 -0.071429  0.285714  0.000000      2.000000
 -0.285714  0.214286  0.000000      2.000000
 -0.214286  0.285714  0.000000      2.000000
  0.071429  0.214286  0.000000      2.000000
  0.285714 -0.071429  0.000000      2.000000
  0.285714  0.071429  0.000000      2.000000
 -0.071429  0.357143  0.000000      2.000000
 -0.357143  0.285714  0.000000      2.000000
 -0.285714  0.357143  0.000000      2.000000
  0.071429  0.285714  0.000000      2.000000
  0.357143 -0.071429  0.000000      2.000000
  0.357143  0.071429  0.000000      2.000000
 -0.071429  0.428571  0.000000      2.000000
 -0.428571  0.357143  0.000000      2.000000
 -0.357143  0.428571  0.000000      2.000000
  0.071429  0.357143  0.000000      2.000000
  0.428571 -0.071429  0.000000      2.000000
  0.428571  0.071429  0.000000      2.000000
 -0.071429  0.500000  0.000000      2.000000
  0.500000  0.428571  0.000000      2.000000
 -0.428571  0.500000  0.000000      2.000000
  0.071429  0.428571  0.000000      2.000000
  0.500000 -0.071429  0.000000      2.000000
  0.142857  0.142857  0.000000      2.000000
 -0.142857  0.285714  0.000000      2.000000
 -0.285714  0.142857  0.000000      2.000000
  0.214286  0.142857  0.000000      2.000000
 -0.142857  0.357143  0.000000      2.000000
 -0.357143  0.214286  0.000000      2.000000
 -0.214286  0.357143  0.000000      2.000000
  0.142857  0.214286  0.000000      2.000000
  0.357143 -0.142857  0.000000      2.000000
  0.285714  0.142857  0.000000      2.000000
 -0.142857  0.428571  0.000000      2.000000
 -0.428571  0.285714  0.000000      2.000000
 -0.285714  0.428571  0.000000      2.000000
  0.142857  0.285714  0.000000      2.000000
  0.428571 -0.142857  0.000000      2.000000
  0.357143  0.142857  0.000000      2.000000
 -0.142857  0.500000  0.000000      2.000000
  0.500000  0.357143  0.000000      2.000000
 -0.357143  0.500000  0.000000      2.000000
  0.142857  0.357143  0.000000      2.000000
  0.500000 -0.142857  0.000000      2.000000
  0.428571  0.142857  0.000000      2.000000
 -0.142857 -0.428571  0.000000      2.000000
  0.428571  0.428571  0.000000      2.000000
  0.214286  0.214286  0.000000      2.000000
 -0.214286  0.428571  0.000000      2.000000
 -0.428571  0.214286  0.000000      2.000000
  0.285714  0.214286  0.000000      2.000000
 -0.214286  0.500000  0.000000      2.000000
  0.500000  0.285714  0.000000      2.000000
 -0.285714  0.500000  0.000000      2.000000
  0.214286  0.285714  0.000000      2.000000
  0.500000 -0.214286  0.000000      2.000000
  0.357143  0.214286  0.000000      2.000000
 -0.214286 -0.428571  0.000000      2.000000
  0.428571  0.357143  0.000000      2.000000
 -0.357143 -0.428571  0.000000      2.000000
  0.214286  0.357143  0.000000      2.000000
 -0.428571 -0.214286  0.000000      2.000000
  0.285714  0.285714  0.000000      2.000000
 -0.285714 -0.428571  0.000000      2.000000
  0.428571  0.285714  0.000000      2.000000
  0.357143  0.285714  0.000000      2.000000
 -0.285714 -0.357143  0.000000      2.000000
  0.357143  0.357143  0.000000      2.000000
 
 Following cartesian coordinates:
            Coordinates               Weight
  0.000000  0.000000  0.000000      1.000000
  0.021761  0.012564  0.000000      2.000000
  0.000000  0.025128  0.000000      2.000000
 -0.021761  0.012564  0.000000      2.000000
  0.043523  0.025128  0.000000      2.000000
  0.000000  0.050256  0.000000      2.000000
 -0.043523  0.025128  0.000000      2.000000
  0.065284  0.037692  0.000000      2.000000
  0.000000  0.075384  0.000000      2.000000
 -0.065284  0.037692  0.000000      2.000000
  0.087046  0.050256  0.000000      2.000000
  0.000000  0.100512  0.000000      2.000000
 -0.087046  0.050256  0.000000      2.000000
  0.108807  0.062820  0.000000      2.000000
  0.000000  0.125640  0.000000      2.000000
 -0.108807  0.062820  0.000000      2.000000
  0.130569  0.075384  0.000000      2.000000
  0.000000  0.150768  0.000000      2.000000
 -0.130569  0.075384  0.000000      2.000000
  0.152330  0.087948  0.000000      1.000000
  0.000000  0.175896  0.000000      1.000000
  0.152330  0.263844  0.000000      1.000000
  0.021761  0.037692  0.000000      2.000000
 -0.021761  0.037692  0.000000      2.000000
 -0.043523  0.000000  0.000000      2.000000
  0.043523  0.050256  0.000000      2.000000
 -0.021761  0.062820  0.000000      2.000000
 -0.065284  0.012564  0.000000      2.000000
 -0.043523  0.050256  0.000000      2.000000
  0.021761  0.062820  0.000000      2.000000
  0.065284  0.012564  0.000000      2.000000
  0.065284  0.062820  0.000000      2.000000
 -0.021761  0.087948  0.000000      2.000000
 -0.087046  0.025128  0.000000      2.000000
 -0.065284  0.062820  0.000000      2.000000
  0.021761  0.087948  0.000000      2.000000
  0.087046  0.025128  0.000000      2.000000
  0.087046  0.075384  0.000000      2.000000
 -0.021761  0.113076  0.000000      2.000000
 -0.108807  0.037692  0.000000      2.000000
 -0.087046  0.075384  0.000000      2.000000
  0.021761  0.113076  0.000000      2.000000
  0.108807  0.037692  0.000000      2.000000
  0.108807  0.087948  0.000000      2.000000
 -0.021761  0.138204  0.000000      2.000000
 -0.130569  0.050256  0.000000      2.000000
 -0.108807  0.087948  0.000000      2.000000
  0.021761  0.138204  0.000000      2.000000
  0.130569  0.050256  0.000000      2.000000
  0.130569  0.100512  0.000000      2.000000
 -0.021761  0.163332  0.000000      2.000000
  0.152330  0.238716  0.000000      2.000000
 -0.130569  0.100512  0.000000      2.000000
  0.021761  0.163332  0.000000      2.000000
  0.152330  0.062820  0.000000      2.000000
  0.043523  0.075384  0.000000      2.000000
 -0.043523  0.075384  0.000000      2.000000
 -0.087046  0.000000  0.000000      2.000000
  0.065284  0.087948  0.000000      2.000000
 -0.043523  0.100512  0.000000      2.000000
 -0.108807  0.012564  0.000000      2.000000
 -0.065284  0.087948  0.000000      2.000000
  0.043523  0.100512  0.000000      2.000000
  0.108807  0.012564  0.000000      2.000000
  0.087046  0.100512  0.000000      2.000000
 -0.043523  0.125640  0.000000      2.000000
 -0.130569  0.025128  0.000000      2.000000
 -0.087046  0.100512  0.000000      2.000000
  0.043523  0.125640  0.000000      2.000000
  0.130569  0.025128  0.000000      2.000000
  0.108807  0.113076  0.000000      2.000000
 -0.043523  0.150768  0.000000      2.000000
  0.152330  0.213588  0.000000      2.000000
 -0.108807  0.113076  0.000000      2.000000
  0.043523  0.150768  0.000000      2.000000
  0.152330  0.037692  0.000000      2.000000
  0.130569  0.125640  0.000000      2.000000
 -0.043523 -0.175896  0.000000      2.000000
  0.130569  0.226152  0.000000      2.000000
  0.065284  0.113076  0.000000      2.000000
 -0.065284  0.113076  0.000000      2.000000
 -0.130569  0.000000  0.000000      2.000000
  0.087046  0.125640  0.000000      2.000000
 -0.065284  0.138204  0.000000      2.000000
  0.152330  0.188460  0.000000      2.000000
 -0.087046  0.125640  0.000000      2.000000
  0.065284  0.138204  0.000000      2.000000
  0.152330  0.012564  0.000000      2.000000
  0.108807  0.138204  0.000000      2.000000
 -0.065284 -0.188460  0.000000      2.000000
  0.130569  0.201024  0.000000      2.000000
 -0.108807 -0.213588  0.000000      2.000000
  0.065284  0.163332  0.000000      2.000000
 -0.130569 -0.150768  0.000000      2.000000
  0.087046  0.150768  0.000000      2.000000
 -0.087046 -0.201024  0.000000      2.000000
  0.130569  0.175896  0.000000      2.000000
  0.108807  0.163332  0.000000      2.000000
 -0.087046 -0.175896  0.000000      2.000000
  0.108807  0.188460  0.000000      2.000000
 
 
 Subroutine IBZKPT_HF returns following result:
 ==============================================
 
 Found    196 k-points in 1st BZ
 the following    196 k-points will be used (e.g. in the exchange kernel)
 Following reciprocal coordinates:   # in IRBZ
  0.000000  0.000000  0.000000    0.00510204   1 t-inv F
  0.071429  0.000000  0.000000    0.00510204   2 t-inv F
  0.000000  0.071429  0.000000    0.00510204   3 t-inv F
 -0.071429  0.071429  0.000000    0.00510204   4 t-inv F
  0.142857  0.000000  0.000000    0.00510204   5 t-inv F
  0.000000  0.142857  0.000000    0.00510204   6 t-inv F
 -0.142857  0.142857  0.000000    0.00510204   7 t-inv F
  0.214286 -0.000000  0.000000    0.00510204   8 t-inv F
  0.000000  0.214286  0.000000    0.00510204   9 t-inv F
 -0.214286  0.214286  0.000000    0.00510204  10 t-inv F
  0.285714  0.000000  0.000000    0.00510204  11 t-inv F
  0.000000  0.285714  0.000000    0.00510204  12 t-inv F
 -0.285714  0.285714  0.000000    0.00510204  13 t-inv F
  0.357143  0.000000  0.000000    0.00510204  14 t-inv F
  0.000000  0.357143  0.000000    0.00510204  15 t-inv F
 -0.357143  0.357143  0.000000    0.00510204  16 t-inv F
  0.428571 -0.000000  0.000000    0.00510204  17 t-inv F
  0.000000  0.428571  0.000000    0.00510204  18 t-inv F
 -0.428571  0.428571  0.000000    0.00510204  19 t-inv F
  0.500000 -0.000000  0.000000    0.00510204  20 t-inv F
  0.000000  0.500000  0.000000    0.00510204  21 t-inv F
  0.500000  0.500000  0.000000    0.00510204  22 t-inv F
  0.071429  0.071429  0.000000    0.00510204  23 t-inv F
 -0.071429  0.142857  0.000000    0.00510204  24 t-inv F
 -0.142857  0.071429  0.000000    0.00510204  25 t-inv F
  0.142857  0.071429  0.000000    0.00510204  26 t-inv F
 -0.071429  0.214286  0.000000    0.00510204  27 t-inv F
 -0.214286  0.142857  0.000000    0.00510204  28 t-inv F
 -0.142857  0.214286  0.000000    0.00510204  29 t-inv F
  0.071429  0.142857  0.000000    0.00510204  30 t-inv F
  0.214286 -0.071429  0.000000    0.00510204  31 t-inv F
  0.214286  0.071429  0.000000    0.00510204  32 t-inv F
 -0.071429  0.285714  0.000000    0.00510204  33 t-inv F
 -0.285714  0.214286  0.000000    0.00510204  34 t-inv F
 -0.214286  0.285714  0.000000    0.00510204  35 t-inv F
  0.071429  0.214286  0.000000    0.00510204  36 t-inv F
  0.285714 -0.071429  0.000000    0.00510204  37 t-inv F
  0.285714  0.071429  0.000000    0.00510204  38 t-inv F
 -0.071429  0.357143  0.000000    0.00510204  39 t-inv F
 -0.357143  0.285714  0.000000    0.00510204  40 t-inv F
 -0.285714  0.357143  0.000000    0.00510204  41 t-inv F
  0.071429  0.285714  0.000000    0.00510204  42 t-inv F
  0.357143 -0.071429  0.000000    0.00510204  43 t-inv F
  0.357143  0.071429  0.000000    0.00510204  44 t-inv F
 -0.071429  0.428571  0.000000    0.00510204  45 t-inv F
 -0.428571  0.357143  0.000000    0.00510204  46 t-inv F
 -0.357143  0.428571  0.000000    0.00510204  47 t-inv F
  0.071429  0.357143  0.000000    0.00510204  48 t-inv F
  0.428571 -0.071429  0.000000    0.00510204  49 t-inv F
  0.428571  0.071429  0.000000    0.00510204  50 t-inv F
 -0.071429  0.500000  0.000000    0.00510204  51 t-inv F
  0.500000  0.428571  0.000000    0.00510204  52 t-inv F
 -0.428571  0.500000  0.000000    0.00510204  53 t-inv F
  0.071429  0.428571  0.000000    0.00510204  54 t-inv F
  0.500000 -0.071429  0.000000    0.00510204  55 t-inv F
  0.142857  0.142857  0.000000    0.00510204  56 t-inv F
 -0.142857  0.285714  0.000000    0.00510204  57 t-inv F
 -0.285714  0.142857  0.000000    0.00510204  58 t-inv F
  0.214286  0.142857  0.000000    0.00510204  59 t-inv F
 -0.142857  0.357143  0.000000    0.00510204  60 t-inv F
 -0.357143  0.214286  0.000000    0.00510204  61 t-inv F
 -0.214286  0.357143  0.000000    0.00510204  62 t-inv F
  0.142857  0.214286  0.000000    0.00510204  63 t-inv F
  0.357143 -0.142857  0.000000    0.00510204  64 t-inv F
  0.285714  0.142857  0.000000    0.00510204  65 t-inv F
 -0.142857  0.428571  0.000000    0.00510204  66 t-inv F
 -0.428571  0.285714  0.000000    0.00510204  67 t-inv F
 -0.285714  0.428571  0.000000    0.00510204  68 t-inv F
  0.142857  0.285714  0.000000    0.00510204  69 t-inv F
  0.428571 -0.142857  0.000000    0.00510204  70 t-inv F
  0.357143  0.142857  0.000000    0.00510204  71 t-inv F
 -0.142857  0.500000  0.000000    0.00510204  72 t-inv F
  0.500000  0.357143  0.000000    0.00510204  73 t-inv F
 -0.357143  0.500000  0.000000    0.00510204  74 t-inv F
  0.142857  0.357143  0.000000    0.00510204  75 t-inv F
  0.500000 -0.142857  0.000000    0.00510204  76 t-inv F
  0.428571  0.142857  0.000000    0.00510204  77 t-inv F
 -0.142857 -0.428571  0.000000    0.00510204  78 t-inv F
  0.428571  0.428571  0.000000    0.00510204  79 t-inv F
  0.214286  0.214286  0.000000    0.00510204  80 t-inv F
 -0.214286  0.428571  0.000000    0.00510204  81 t-inv F
 -0.428571  0.214286  0.000000    0.00510204  82 t-inv F
  0.285714  0.214286  0.000000    0.00510204  83 t-inv F
 -0.214286  0.500000  0.000000    0.00510204  84 t-inv F
  0.500000  0.285714  0.000000    0.00510204  85 t-inv F
 -0.285714  0.500000  0.000000    0.00510204  86 t-inv F
  0.214286  0.285714  0.000000    0.00510204  87 t-inv F
  0.500000 -0.214286  0.000000    0.00510204  88 t-inv F
  0.357143  0.214286  0.000000    0.00510204  89 t-inv F
 -0.214286 -0.428571  0.000000    0.00510204  90 t-inv F
  0.428571  0.357143  0.000000    0.00510204  91 t-inv F
 -0.357143 -0.428571  0.000000    0.00510204  92 t-inv F
  0.214286  0.357143  0.000000    0.00510204  93 t-inv F
 -0.428571 -0.214286  0.000000    0.00510204  94 t-inv F
  0.285714  0.285714  0.000000    0.00510204  95 t-inv F
 -0.285714 -0.428571  0.000000    0.00510204  96 t-inv F
  0.428571  0.285714  0.000000    0.00510204  97 t-inv F
  0.357143  0.285714  0.000000    0.00510204  98 t-inv F
 -0.285714 -0.357143  0.000000    0.00510204  99 t-inv F
  0.357143  0.357143  0.000000    0.00510204 100 t-inv F
 -0.071429  0.000000  0.000000    0.00510204   2 t-inv F
  0.000000 -0.071429  0.000000    0.00510204   3 t-inv F
  0.071429 -0.071429  0.000000    0.00510204   4 t-inv F
 -0.142857  0.000000  0.000000    0.00510204   5 t-inv F
  0.000000 -0.142857  0.000000    0.00510204   6 t-inv F
  0.142857 -0.142857  0.000000    0.00510204   7 t-inv F
 -0.214286  0.000000  0.000000    0.00510204   8 t-inv F
  0.000000 -0.214286  0.000000    0.00510204   9 t-inv F
  0.214286 -0.214286  0.000000    0.00510204  10 t-inv F
 -0.285714  0.000000  0.000000    0.00510204  11 t-inv F
  0.000000 -0.285714  0.000000    0.00510204  12 t-inv F
  0.285714 -0.285714  0.000000    0.00510204  13 t-inv F
 -0.357143  0.000000  0.000000    0.00510204  14 t-inv F
  0.000000 -0.357143  0.000000    0.00510204  15 t-inv F
  0.357143 -0.357143  0.000000    0.00510204  16 t-inv F
 -0.428571  0.000000  0.000000    0.00510204  17 t-inv F
  0.000000 -0.428571  0.000000    0.00510204  18 t-inv F
  0.428571 -0.428571  0.000000    0.00510204  19 t-inv F
 -0.071429 -0.071429  0.000000    0.00510204  23 t-inv F
  0.071429 -0.142857  0.000000    0.00510204  24 t-inv F
  0.142857 -0.071429  0.000000    0.00510204  25 t-inv F
 -0.142857 -0.071429  0.000000    0.00510204  26 t-inv F
  0.071429 -0.214286  0.000000    0.00510204  27 t-inv F
  0.214286 -0.142857  0.000000    0.00510204  28 t-inv F
  0.142857 -0.214286  0.000000    0.00510204  29 t-inv F
 -0.071429 -0.142857  0.000000    0.00510204  30 t-inv F
 -0.214286  0.071429  0.000000    0.00510204  31 t-inv F
 -0.214286 -0.071429  0.000000    0.00510204  32 t-inv F
  0.071429 -0.285714  0.000000    0.00510204  33 t-inv F
  0.285714 -0.214286  0.000000    0.00510204  34 t-inv F
  0.214286 -0.285714  0.000000    0.00510204  35 t-inv F
 -0.071429 -0.214286  0.000000    0.00510204  36 t-inv F
 -0.285714  0.071429  0.000000    0.00510204  37 t-inv F
 -0.285714 -0.071429  0.000000    0.00510204  38 t-inv F
  0.071429 -0.357143  0.000000    0.00510204  39 t-inv F
  0.357143 -0.285714  0.000000    0.00510204  40 t-inv F
  0.285714 -0.357143  0.000000    0.00510204  41 t-inv F
 -0.071429 -0.285714  0.000000    0.00510204  42 t-inv F
 -0.357143  0.071429  0.000000    0.00510204  43 t-inv F
 -0.357143 -0.071429  0.000000    0.00510204  44 t-inv F
  0.071429 -0.428571  0.000000    0.00510204  45 t-inv F
  0.428571 -0.357143  0.000000    0.00510204  46 t-inv F
  0.357143 -0.428571  0.000000    0.00510204  47 t-inv F
 -0.071429 -0.357143  0.000000    0.00510204  48 t-inv F
 -0.428571  0.071429  0.000000    0.00510204  49 t-inv F
 -0.428571 -0.071429  0.000000    0.00510204  50 t-inv F
  0.071429 -0.500000  0.000000    0.00510204  51 t-inv F
 -0.500000 -0.428571  0.000000    0.00510204  52 t-inv F
  0.428571 -0.500000  0.000000    0.00510204  53 t-inv F
 -0.071429 -0.428571  0.000000    0.00510204  54 t-inv F
 -0.500000  0.071429  0.000000    0.00510204  55 t-inv F
 -0.142857 -0.142857  0.000000    0.00510204  56 t-inv F
  0.142857 -0.285714  0.000000    0.00510204  57 t-inv F
  0.285714 -0.142857  0.000000    0.00510204  58 t-inv F
 -0.214286 -0.142857  0.000000    0.00510204  59 t-inv F
  0.142857 -0.357143  0.000000    0.00510204  60 t-inv F
  0.357143 -0.214286  0.000000    0.00510204  61 t-inv F
  0.214286 -0.357143  0.000000    0.00510204  62 t-inv F
 -0.142857 -0.214286  0.000000    0.00510204  63 t-inv F
 -0.357143  0.142857  0.000000    0.00510204  64 t-inv F
 -0.285714 -0.142857  0.000000    0.00510204  65 t-inv F
  0.142857 -0.428571  0.000000    0.00510204  66 t-inv F
  0.428571 -0.285714  0.000000    0.00510204  67 t-inv F
  0.285714 -0.428571  0.000000    0.00510204  68 t-inv F
 -0.142857 -0.285714  0.000000    0.00510204  69 t-inv F
 -0.428571  0.142857  0.000000    0.00510204  70 t-inv F
 -0.357143 -0.142857  0.000000    0.00510204  71 t-inv F
  0.142857 -0.500000  0.000000    0.00510204  72 t-inv F
 -0.500000 -0.357143  0.000000    0.00510204  73 t-inv F
  0.357143 -0.500000  0.000000    0.00510204  74 t-inv F
 -0.142857 -0.357143  0.000000    0.00510204  75 t-inv F
 -0.500000  0.142857  0.000000    0.00510204  76 t-inv F
 -0.428571 -0.142857  0.000000    0.00510204  77 t-inv F
  0.142857  0.428571  0.000000    0.00510204  78 t-inv F
 -0.428571 -0.428571  0.000000    0.00510204  79 t-inv F
 -0.214286 -0.214286  0.000000    0.00510204  80 t-inv F
  0.214286 -0.428571  0.000000    0.00510204  81 t-inv F
  0.428571 -0.214286  0.000000    0.00510204  82 t-inv F
 -0.285714 -0.214286  0.000000    0.00510204  83 t-inv F
  0.214286 -0.500000  0.000000    0.00510204  84 t-inv F
 -0.500000 -0.285714  0.000000    0.00510204  85 t-inv F
  0.285714 -0.500000  0.000000    0.00510204  86 t-inv F
 -0.214286 -0.285714  0.000000    0.00510204  87 t-inv F
 -0.500000  0.214286  0.000000    0.00510204  88 t-inv F
 -0.357143 -0.214286  0.000000    0.00510204  89 t-inv F
  0.214286  0.428571  0.000000    0.00510204  90 t-inv F
 -0.428571 -0.357143  0.000000    0.00510204  91 t-inv F
  0.357143  0.428571  0.000000    0.00510204  92 t-inv F
 -0.214286 -0.357143  0.000000    0.00510204  93 t-inv F
  0.428571  0.214286  0.000000    0.00510204  94 t-inv F
 -0.285714 -0.285714  0.000000    0.00510204  95 t-inv F
  0.285714  0.428571  0.000000    0.00510204  96 t-inv F
 -0.428571 -0.285714  0.000000    0.00510204  97 t-inv F
 -0.357143 -0.285714  0.000000    0.00510204  98 t-inv F
  0.285714  0.357143  0.000000    0.00510204  99 t-inv F
 -0.357143 -0.357143  0.000000    0.00510204 100 t-inv F


--------------------------------------------------------------------------------------------------------




 Dimension of arrays:
   k-points           NKPTS =    100   k-points in BZ     NKDIM =    100   number of bands    NBANDS=     16
   number of dos      NEDOS =   6001   number of ions     NIONS =      2
   non local maximal  LDIM  =      6   non local SUM 2l+1 LMDIM =     18
   total plane-waves  NPLWV =  29160
   max r-space proj   IRMAX =      1   max aug-charges    IRDMAX=  57812
   dimension x,y,z NGX =    18 NGY =   18 NGZ =   90
   dimension x,y,z NGXF=    36 NGYF=   36 NGZF=  180
   support grid    NGXF=    72 NGYF=   72 NGZF=  360
   ions per type =               2
   NGX,Y,Z   is equivalent  to a cutoff of   9.12,  9.12,  9.35 a.u.
   NGXF,Y,Z  is equivalent  to a cutoff of  18.23, 18.23, 18.70 a.u.

 SYSTEM =  unknown system                          
 POSCAR =  OUTCAR.0002.-1.out 1.0e-02              

 Startparameter for this run:
   NWRITE =      3    write-flag & timer
   PREC   = accura    normal or accurate (medium, high low for compatibility)
   ISTART =      0    job   : 0-new  1-cont  2-samecut
   ICHARG =      2    charge: 1-file 2-atom 10-const
   ISPIN  =      1    spin polarized calculation?
   LNONCOLLINEAR =      F non collinear calculations
   LSORBIT =      F    spin-orbit coupling
   INIWAV =      1    electr: 0-lowe 1-rand  2-diag
   LASPH  =      T    aspherical Exc in radial PAW
 Electronic Relaxation 1
   ENCUT  =  286.9 eV  21.09 Ry    4.59 a.u.   4.53  4.53 22.10*2*pi/ulx,y,z
   ENINI  =  286.9     initial cutoff
   ENAUG  =  499.7 eV  augmentation charge cutoff
   NELM   =    200;   NELMIN=  6; NELMDL=-12     # of ELM steps 
   EDIFF  = 0.1E-05   stopping-criterion for ELM
   LREAL  =      F    real-space projection
   NLSPLINE    = F    spline interpolate recip. space projectors
   LCOMPAT=      F    compatible to vasp.4.4
   GGA_COMPAT  = T    GGA compatible to vasp.4.4-vasp.4.6
   LMAXPAW     = -100 max onsite density
   LMAXMIX     =    2 max onsite mixed and CHGCAR
   VOSKOWN=      0    Vosko Wilk Nusair interpolation
   ROPT   =    0.00000
 Ionic relaxation
   EDIFFG = 0.1E-04   stopping-criterion for IOM
   NSW    =      0    number of steps for IOM
   NBLOCK =      1;   KBLOCK =      1    inner block; outer block 
   IBRION =     -1    ionic relax: 0-MD 1-quasi-New 2-CG
   NFREE  =      0    steps in history (QN), initial steepest desc. (CG)
   ISIF   =      2    stress and relaxation
   IWAVPR =     10    prediction:  0-non 1-charg 2-wave 3-comb
   ISYM   =      2    0-nonsym 1-usesym 2-fastsym
   LCORR  =      T    Harris-Foulkes like correction to forces

   POTIM  = 0.5000    time-step for ionic-motion
   TEIN   =    0.0    initial temperature
   TEBEG  =    0.0;   TEEND  =   0.0 temperature during run
   SMASS  =  -3.00    Nose mass-parameter (am)
   estimated Nose-frequenzy (Omega)   =  0.10E-29 period in steps = 0.13E+47 mass=  -0.246E-27a.u.
   SCALEE = 1.0000    scale energy and forces
   NPACO  =    256;   APACO  = 10.0  distance and # of slots for P.C.
   PSTRESS=    0.0 pullay stress

  Mass of Ions in am
   POMASS =  30.97
  Ionic Valenz
   ZVAL   =   5.00
  Atomic Wigner-Seitz radii
   RWIGS  =  -1.00
  virtual crystal weights 
   VCA    =   1.00
   NELECT =      10.0000    total number of electrons
   NUPDOWN=      -1.0000    fix difference up-down

 DOS related values:
   EMIN   =  10.00;   EMAX   =-10.00  energy-range for DOS
   EFERMI =   0.00;   METHOD = LEGACY      
   ISMEAR =     0;   SIGMA  =   0.01  broadening in eV -4-tet -1-fermi 0-gaus

 Electronic relaxation 2 (details)
   IALGO  =     38    algorithm
   LDIAG  =      T    sub-space diagonalisation (order eigenvalues)
   LSUBROT=      F    optimize rotation matrix (better conditioning)
   TURBO    =      0    0=normal 1=particle mesh
   IRESTART =      0    0=no restart 2=restart with 2 vectors
   NREBOOT  =      0    no. of reboots
   NMIN     =      0    reboot dimension
   EREF     =   0.00    reference energy to select bands
   IMIX   =      4    mixing-type and parameters
     AMIX     =   0.10;   BMIX     =  0.00
     AMIX_MAG =   0.40;   BMIX_MAG =  0.00
     AMIN     =   0.10
     WC   =   100.;   INIMIX=   1;  MIXPRE=   1;  MAXMIX= -45

 Intra band minimization:
   WEIMIN = 0.0000     energy-eigenvalue tresh-hold
   EBREAK =  0.16E-07  absolut break condition
   DEPER  =   0.30     relativ break condition  

   TIME   =   0.40     timestep for ELM

  volume/ion in A,a.u.               =      74.64       503.72
  Fermi-wavevector in a.u.,A,eV,Ry     =   0.664868  1.256418  6.014444  0.442049
  Thomas-Fermi vector in A             =   1.738688
 
 Write flags
   LWAVE        =      F    write WAVECAR
   LDOWNSAMPLE  =      F    k-point downsampling of WAVECAR
   LCHARG       =      F    write CHGCAR
   LVTOT        =      F    write LOCPOT, total local potential
   LVHAR        =      F    write LOCPOT, Hartree potential only
   LELF         =      F    write electronic localiz. function (ELF)
   LORBIT       =     10    0 simple, 1 ext, 2 COOP (PROOUT), +10 PAW based schemes


 Dipole corrections
   LMONO  =      F    monopole corrections only (constant potential shift)
   LDIPOL =      F    correct potential (dipole corrections)
   IDIPOL =      0    1-x, 2-y, 3-z, 4-all directions 
   EPSILON=  1.0000000 bulk dielectric constant

 Exchange correlation treatment:
   GGA     =    --    GGA type
   LEXCH   =     8    internal setting for exchange type
   LIBXC   =     F    Libxc                    
   VOSKOWN =     0    Vosko Wilk Nusair interpolation
   LHFCALC =     F    Hartree Fock is set to
   LHFONE  =     F    Hartree Fock one center treatment
   AEXX    =    0.0000 exact exchange contribution

 Linear response parameters
   LEPSILON=     T    determine dielectric tensor
   LRPA    =     F    only Hartree local field effects (RPA)
   LNABLA  =     F    use nabla operator in PAW spheres
   LVEL    =     F    velocity operator in full k-point grid
   CSHIFT  =0.1000    complex shift for real part using Kramers Kronig
   OMEGAMAX=  -1.0    maximum frequency
   DEG_THRESHOLD= 0.2000000E-02 threshold for treating states as degnerate
   RTIME   =   -0.100 relaxation time in fs
  (WPLASMAI=    0.000 imaginary part of plasma frequency in eV, 0.658/RTIME)
   DFIELD  = 0.0000000 0.0000000 0.0000000 field for delta impulse in time
 
  Optional k-point grid parameters
   LKPOINTS_OPT  =     F    use optional k-point grid
   KPOINTS_OPT_MODE=     1    mode for optional k-point grid
 
 Orbital magnetization related:
   ORBITALMAG=     F  switch on orbital magnetization
   LCHIMAG   =     F  perturbation theory with respect to B field
   DQ        =  0.001000  dq finite difference perturbation B field
   LLRAUG    =     F  two centre corrections for induced B field
   LBONE     =     F  B-component reconstruction in AE one-centre
   LVGVCALC  =     T  calculate vGv susceptibility
   LVGVAPPL  =     F  apply vGv susceptibility instead of pGv for G=0

 Random number generation:
   RANDOM_GENERATOR = DEFAULT
   PCG_SEED         = not used


--------------------------------------------------------------------------------------------------------


 Static calculation
 charge density and potential will be updated during run
 non-spin polarized calculation
 Variant of blocked Davidson
 Davidson routine will perform the subspace rotation
 perform sub-space diagonalisation
    after iterative eigenvector-optimisation
 modified Broyden-mixing scheme, WC =      100.0
 initial mixing is a Kerker type mixing with AMIX =  0.1000 and BMIX =      0.0001
 Hartree-type preconditioning will be used
 using additional bands           11
 reciprocal scheme for non local part
 use partial core corrections
 calculate Harris-corrections to forces 
   (improved forces if not selfconsistent)
 use gradient corrections 
 use of overlap-Matrix (Vanderbilt PP)
 Gauss-broadening in eV      SIGMA  =   0.01


--------------------------------------------------------------------------------------------------------


  energy-cutoff  :      286.92
  volume of cell :      149.29
      direct lattice vectors                 reciprocal lattice vectors
     3.282343494  0.000000000  0.000000000     0.304660375  0.175895750  0.000000000
    -1.641171747  2.842592850  0.000000000     0.000000000  0.351791499  0.000000000
     0.000000000  0.000000000 16.000000000     0.000000000  0.000000000  0.062500000

  length of vectors
     3.282343494  3.282343494 16.000000000     0.351791499  0.351791499  0.062500000


 
 k-points in units of 2pi/SCALE and weight: kpoints                                 
   0.00000000  0.00000000  0.00000000       0.005
   0.02176146  0.01256398  0.00000000       0.010
   0.00000000  0.02512796  0.00000000       0.010
  -0.02176146  0.01256398  0.00000000       0.010
   0.04352291  0.02512796  0.00000000       0.010
   0.00000000  0.05025593  0.00000000       0.010
  -0.04352291  0.02512796  0.00000000       0.010
   0.06528437  0.03769195  0.00000000       0.010
   0.00000000  0.07538389  0.00000000       0.010
  -0.06528437  0.03769195  0.00000000       0.010
   0.08704582  0.05025593  0.00000000       0.010
   0.00000000  0.10051186  0.00000000       0.010
  -0.08704582  0.05025593  0.00000000       0.010
   0.10880728  0.06281991  0.00000000       0.010
   0.00000000  0.12563982  0.00000000       0.010
  -0.10880728  0.06281991  0.00000000       0.010
   0.13056873  0.07538389  0.00000000       0.010
   0.00000000  0.15076779  0.00000000       0.010
  -0.13056873  0.07538389  0.00000000       0.010
   0.15233019  0.08794787  0.00000000       0.005
   0.00000000  0.17589575  0.00000000       0.005
   0.15233019  0.26384362  0.00000000       0.005
   0.02176146  0.03769195  0.00000000       0.010
  -0.02176146  0.03769195  0.00000000       0.010
  -0.04352291  0.00000000  0.00000000       0.010
   0.04352291  0.05025593  0.00000000       0.010
  -0.02176146  0.06281991  0.00000000       0.010
  -0.06528437  0.01256398  0.00000000       0.010
  -0.04352291  0.05025593  0.00000000       0.010
   0.02176146  0.06281991  0.00000000       0.010
   0.06528437  0.01256398  0.00000000       0.010
   0.06528437  0.06281991  0.00000000       0.010
  -0.02176146  0.08794787  0.00000000       0.010
  -0.08704582  0.02512796  0.00000000       0.010
  -0.06528437  0.06281991  0.00000000       0.010
   0.02176146  0.08794787  0.00000000       0.010
   0.08704582  0.02512796  0.00000000       0.010
   0.08704582  0.07538389  0.00000000       0.010
  -0.02176146  0.11307584  0.00000000       0.010
  -0.10880728  0.03769195  0.00000000       0.010
  -0.08704582  0.07538389  0.00000000       0.010
   0.02176146  0.11307584  0.00000000       0.010
   0.10880728  0.03769195  0.00000000       0.010
   0.10880728  0.08794787  0.00000000       0.010
  -0.02176146  0.13820380  0.00000000       0.010
  -0.13056873  0.05025593  0.00000000       0.010
  -0.10880728  0.08794787  0.00000000       0.010
   0.02176146  0.13820380  0.00000000       0.010
   0.13056873  0.05025593  0.00000000       0.010
   0.13056873  0.10051186  0.00000000       0.010
  -0.02176146  0.16333177  0.00000000       0.010
   0.15233019  0.23871566  0.00000000       0.010
  -0.13056873  0.10051186  0.00000000       0.010
   0.02176146  0.16333177  0.00000000       0.010
   0.15233019  0.06281991  0.00000000       0.010
   0.04352291  0.07538389  0.00000000       0.010
  -0.04352291  0.07538389  0.00000000       0.010
  -0.08704582  0.00000000  0.00000000       0.010
   0.06528437  0.08794787  0.00000000       0.010
  -0.04352291  0.10051186  0.00000000       0.010
  -0.10880728  0.01256398  0.00000000       0.010
  -0.06528437  0.08794787  0.00000000       0.010
   0.04352291  0.10051186  0.00000000       0.010
   0.10880728  0.01256398  0.00000000       0.010
   0.08704582  0.10051186  0.00000000       0.010
  -0.04352291  0.12563982  0.00000000       0.010
  -0.13056873  0.02512796  0.00000000       0.010
  -0.08704582  0.10051186  0.00000000       0.010
   0.04352291  0.12563982  0.00000000       0.010
   0.13056873  0.02512796  0.00000000       0.010
   0.10880728  0.11307584  0.00000000       0.010
  -0.04352291  0.15076779  0.00000000       0.010
   0.15233019  0.21358770  0.00000000       0.010
  -0.10880728  0.11307584  0.00000000       0.010
   0.04352291  0.15076779  0.00000000       0.010
   0.15233019  0.03769195  0.00000000       0.010
   0.13056873  0.12563982  0.00000000       0.010
  -0.04352291 -0.17589575  0.00000000       0.010
   0.13056873  0.22615168  0.00000000       0.010
   0.06528437  0.11307584  0.00000000       0.010
  -0.06528437  0.11307584  0.00000000       0.010
  -0.13056873  0.00000000  0.00000000       0.010
   0.08704582  0.12563982  0.00000000       0.010
  -0.06528437  0.13820380  0.00000000       0.010
   0.15233019  0.18845973  0.00000000       0.010
  -0.08704582  0.12563982  0.00000000       0.010
   0.06528437  0.13820380  0.00000000       0.010
   0.15233019  0.01256398  0.00000000       0.010
   0.10880728  0.13820380  0.00000000       0.010
  -0.06528437 -0.18845973  0.00000000       0.010
   0.13056873  0.20102371  0.00000000       0.010
  -0.10880728 -0.21358770  0.00000000       0.010
   0.06528437  0.16333177  0.00000000       0.010
  -0.13056873 -0.15076779  0.00000000       0.010
   0.08704582  0.15076779  0.00000000       0.010
  -0.08704582 -0.20102371  0.00000000       0.010
   0.13056873  0.17589575  0.00000000       0.010
   0.10880728  0.16333177  0.00000000       0.010
  -0.08704582 -0.17589575  0.00000000       0.010
   0.10880728  0.18845973  0.00000000       0.010
 
 k-points in reciprocal lattice and weights: kpoints                                 
   0.00000000  0.00000000  0.00000000       0.005
   0.07142857  0.00000000  0.00000000       0.010
   0.00000000  0.07142857  0.00000000       0.010
  -0.07142857  0.07142857  0.00000000       0.010
   0.14285714  0.00000000  0.00000000       0.010
   0.00000000  0.14285714  0.00000000       0.010
  -0.14285714  0.14285714  0.00000000       0.010
   0.21428571 -0.00000000  0.00000000       0.010
   0.00000000  0.21428571  0.00000000       0.010
  -0.21428571  0.21428571  0.00000000       0.010
   0.28571429  0.00000000  0.00000000       0.010
   0.00000000  0.28571429  0.00000000       0.010
  -0.28571429  0.28571429  0.00000000       0.010
   0.35714286  0.00000000  0.00000000       0.010
   0.00000000  0.35714286  0.00000000       0.010
  -0.35714286  0.35714286  0.00000000       0.010
   0.42857143 -0.00000000  0.00000000       0.010
   0.00000000  0.42857143  0.00000000       0.010
  -0.42857143  0.42857143  0.00000000       0.010
   0.50000000 -0.00000000  0.00000000       0.005
   0.00000000  0.50000000  0.00000000       0.005
   0.50000000  0.50000000  0.00000000       0.005
   0.07142857  0.07142857  0.00000000       0.010
  -0.07142857  0.14285714  0.00000000       0.010
  -0.14285714  0.07142857  0.00000000       0.010
   0.14285714  0.07142857  0.00000000       0.010
  -0.07142857  0.21428571  0.00000000       0.010
  -0.21428571  0.14285714  0.00000000       0.010
  -0.14285714  0.21428571  0.00000000       0.010
   0.07142857  0.14285714  0.00000000       0.010
   0.21428571 -0.07142857  0.00000000       0.010
   0.21428571  0.07142857  0.00000000       0.010
  -0.07142857  0.28571429  0.00000000       0.010
  -0.28571429  0.21428571  0.00000000       0.010
  -0.21428571  0.28571429  0.00000000       0.010
   0.07142857  0.21428571  0.00000000       0.010
   0.28571429 -0.07142857  0.00000000       0.010
   0.28571429  0.07142857  0.00000000       0.010
  -0.07142857  0.35714286  0.00000000       0.010
  -0.35714286  0.28571429  0.00000000       0.010
  -0.28571429  0.35714286  0.00000000       0.010
   0.07142857  0.28571429  0.00000000       0.010
   0.35714286 -0.07142857  0.00000000       0.010
   0.35714286  0.07142857  0.00000000       0.010
  -0.07142857  0.42857143  0.00000000       0.010
  -0.42857143  0.35714286  0.00000000       0.010
  -0.35714286  0.42857143  0.00000000       0.010
   0.07142857  0.35714286  0.00000000       0.010
   0.42857143 -0.07142857  0.00000000       0.010
   0.42857143  0.07142857  0.00000000       0.010
  -0.07142857  0.50000000  0.00000000       0.010
   0.50000000  0.42857143  0.00000000       0.010
  -0.42857143  0.50000000  0.00000000       0.010
   0.07142857  0.42857143  0.00000000       0.010
   0.50000000 -0.07142857  0.00000000       0.010
   0.14285714  0.14285714  0.00000000       0.010
  -0.14285714  0.28571429  0.00000000       0.010
  -0.28571429  0.14285714  0.00000000       0.010
   0.21428571  0.14285714  0.00000000       0.010
  -0.14285714  0.35714286  0.00000000       0.010
  -0.35714286  0.21428571  0.00000000       0.010
  -0.21428571  0.35714286  0.00000000       0.010
   0.14285714  0.21428571  0.00000000       0.010
   0.35714286 -0.14285714  0.00000000       0.010
   0.28571429  0.14285714  0.00000000       0.010
  -0.14285714  0.42857143  0.00000000       0.010
  -0.42857143  0.28571429  0.00000000       0.010
  -0.28571429  0.42857143  0.00000000       0.010
   0.14285714  0.28571429  0.00000000       0.010
   0.42857143 -0.14285714  0.00000000       0.010
   0.35714286  0.14285714  0.00000000       0.010
  -0.14285714  0.50000000  0.00000000       0.010
   0.50000000  0.35714286  0.00000000       0.010
  -0.35714286  0.50000000  0.00000000       0.010
   0.14285714  0.35714286  0.00000000       0.010
   0.50000000 -0.14285714  0.00000000       0.010
   0.42857143  0.14285714  0.00000000       0.010
  -0.14285714 -0.42857143  0.00000000       0.010
   0.42857143  0.42857143  0.00000000       0.010
   0.21428571  0.21428571  0.00000000       0.010
  -0.21428571  0.42857143  0.00000000       0.010
  -0.42857143  0.21428571  0.00000000       0.010
   0.28571429  0.21428571  0.00000000       0.010
  -0.21428571  0.50000000  0.00000000       0.010
   0.50000000  0.28571429  0.00000000       0.010
  -0.28571429  0.50000000  0.00000000       0.010
   0.21428571  0.28571429  0.00000000       0.010
   0.50000000 -0.21428571  0.00000000       0.010
   0.35714286  0.21428571  0.00000000       0.010
  -0.21428571 -0.42857143  0.00000000       0.010
   0.42857143  0.35714286  0.00000000       0.010
  -0.35714286 -0.42857143  0.00000000       0.010
   0.21428571  0.35714286  0.00000000       0.010
  -0.42857143 -0.21428571  0.00000000       0.010
   0.28571429  0.28571429  0.00000000       0.010
  -0.28571429 -0.42857143  0.00000000       0.010
   0.42857143  0.28571429  0.00000000       0.010
   0.35714286  0.28571429  0.00000000       0.010
  -0.28571429 -0.35714286  0.00000000       0.010
   0.35714286  0.35714286  0.00000000       0.010
 
 position of ions in fractional coordinates (direct lattice) 
   0.66426388  0.33157439  0.46118284
   0.33573612  0.66842561  0.53881716
 
 position of ions in cartesian coordinates  (Angst):
   1.63617172  0.94253098  7.37892542
   0.00500003  1.90006187  8.62107458
 


--------------------------------------------------------------------------------------------------------


 k-point   1 :   0.0000 0.0000 0.0000  plane waves:    1671
 k-point   2 :   0.0714 0.0000 0.0000  plane waves:    1663
 k-point   3 :   0.0000 0.0714 0.0000  plane waves:    1663
 k-point   4 :  -0.0714 0.0714 0.0000  plane waves:    1663
 k-point   5 :   0.1429 0.0000 0.0000  plane waves:    1666
 k-point   6 :   0.0000 0.1429 0.0000  plane waves:    1666
 k-point   7 :  -0.1429 0.1429 0.0000  plane waves:    1666
 k-point   8 :   0.2143-0.0000 0.0000  plane waves:    1684
 k-point   9 :   0.0000 0.2143 0.0000  plane waves:    1684
 k-point  10 :  -0.2143 0.2143 0.0000  plane waves:    1684
 k-point  11 :   0.2857 0.0000 0.0000  plane waves:    1668
 k-point  12 :   0.0000 0.2857 0.0000  plane waves:    1668
 k-point  13 :  -0.2857 0.2857 0.0000  plane waves:    1668
 k-point  14 :   0.3571 0.0000 0.0000  plane waves:    1650
 k-point  15 :   0.0000 0.3571 0.0000  plane waves:    1650
 k-point  16 :  -0.3571 0.3571 0.0000  plane waves:    1650
 k-point  17 :   0.4286-0.0000 0.0000  plane waves:    1628
 k-point  18 :   0.0000 0.4286 0.0000  plane waves:    1628
 k-point  19 :  -0.4286 0.4286 0.0000  plane waves:    1628
 k-point  20 :   0.5000-0.0000 0.0000  plane waves:    1636
 k-point  21 :   0.0000 0.5000 0.0000  plane waves:    1636
 k-point  22 :   0.5000 0.5000 0.0000  plane waves:    1636
 k-point  23 :   0.0714 0.0714 0.0000  plane waves:    1669
 k-point  24 :  -0.0714 0.1429 0.0000  plane waves:    1669
 k-point  25 :  -0.1429 0.0714 0.0000  plane waves:    1669
 k-point  26 :   0.1429 0.0714 0.0000  plane waves:    1677
 k-point  27 :  -0.0714 0.2143 0.0000  plane waves:    1677
 k-point  28 :  -0.2143 0.1429 0.0000  plane waves:    1677
 k-point  29 :  -0.1429 0.2143 0.0000  plane waves:    1677
 k-point  30 :   0.0714 0.1429 0.0000  plane waves:    1677
 k-point  31 :   0.2143-0.0714 0.0000  plane waves:    1677
 k-point  32 :   0.2143 0.0714 0.0000  plane waves:    1667
 k-point  33 :  -0.0714 0.2857 0.0000  plane waves:    1667
 k-point  34 :  -0.2857 0.2143 0.0000  plane waves:    1667
 k-point  35 :  -0.2143 0.2857 0.0000  plane waves:    1667
 k-point  36 :   0.0714 0.2143 0.0000  plane waves:    1667
 k-point  37 :   0.2857-0.0714 0.0000  plane waves:    1667
 k-point  38 :   0.2857 0.0714 0.0000  plane waves:    1651
 k-point  39 :  -0.0714 0.3571 0.0000  plane waves:    1651
 k-point  40 :  -0.3571 0.2857 0.0000  plane waves:    1651
 k-point  41 :  -0.2857 0.3571 0.0000  plane waves:    1651
 k-point  42 :   0.0714 0.2857 0.0000  plane waves:    1651
 k-point  43 :   0.3571-0.0714 0.0000  plane waves:    1651
 k-point  44 :   0.3571 0.0714 0.0000  plane waves:    1637
 k-point  45 :  -0.0714 0.4286 0.0000  plane waves:    1637
 k-point  46 :  -0.4286 0.3571 0.0000  plane waves:    1637
 k-point  47 :  -0.3571 0.4286 0.0000  plane waves:    1637
 k-point  48 :   0.0714 0.3571 0.0000  plane waves:    1637
 k-point  49 :   0.4286-0.0714 0.0000  plane waves:    1637
 k-point  50 :   0.4286 0.0714 0.0000  plane waves:    1630
 k-point  51 :  -0.0714 0.5000 0.0000  plane waves:    1630
 k-point  52 :   0.5000 0.4286 0.0000  plane waves:    1630
 k-point  53 :  -0.4286 0.5000 0.0000  plane waves:    1630
 k-point  54 :   0.0714 0.4286 0.0000  plane waves:    1630
 k-point  55 :   0.5000-0.0714 0.0000  plane waves:    1630
 k-point  56 :   0.1429 0.1429 0.0000  plane waves:    1665
 k-point  57 :  -0.1429 0.2857 0.0000  plane waves:    1665
 k-point  58 :  -0.2857 0.1429 0.0000  plane waves:    1665
 k-point  59 :   0.2143 0.1429 0.0000  plane waves:    1655
 k-point  60 :  -0.1429 0.3571 0.0000  plane waves:    1655
 k-point  61 :  -0.3571 0.2143 0.0000  plane waves:    1655
 k-point  62 :  -0.2143 0.3571 0.0000  plane waves:    1655
 k-point  63 :   0.1429 0.2143 0.0000  plane waves:    1655
 k-point  64 :   0.3571-0.1429 0.0000  plane waves:    1655
 k-point  65 :   0.2857 0.1429 0.0000  plane waves:    1640
 k-point  66 :  -0.1429 0.4286 0.0000  plane waves:    1640
 k-point  67 :  -0.4286 0.2857 0.0000  plane waves:    1640
 k-point  68 :  -0.2857 0.4286 0.0000  plane waves:    1640
 k-point  69 :   0.1429 0.2857 0.0000  plane waves:    1640
 k-point  70 :   0.4286-0.1429 0.0000  plane waves:    1640
 k-point  71 :   0.3571 0.1429 0.0000  plane waves:    1634
 k-point  72 :  -0.1429 0.5000 0.0000  plane waves:    1634
 k-point  73 :   0.5000 0.3571 0.0000  plane waves:    1634
 k-point  74 :  -0.3571 0.5000 0.0000  plane waves:    1634
 k-point  75 :   0.1429 0.3571 0.0000  plane waves:    1634
 k-point  76 :   0.5000-0.1429 0.0000  plane waves:    1634
 k-point  77 :   0.4286 0.1429 0.0000  plane waves:    1636
 k-point  78 :  -0.1429-0.4286 0.0000  plane waves:    1636
 k-point  79 :   0.4286 0.4286 0.0000  plane waves:    1636
 k-point  80 :   0.2143 0.2143 0.0000  plane waves:    1635
 k-point  81 :  -0.2143 0.4286 0.0000  plane waves:    1635
 k-point  82 :  -0.4286 0.2143 0.0000  plane waves:    1635
 k-point  83 :   0.2857 0.2143 0.0000  plane waves:    1629
 k-point  84 :  -0.2143 0.5000 0.0000  plane waves:    1629
 k-point  85 :   0.5000 0.2857 0.0000  plane waves:    1629
 k-point  86 :  -0.2857 0.5000 0.0000  plane waves:    1629
 k-point  87 :   0.2143 0.2857 0.0000  plane waves:    1629
 k-point  88 :   0.5000-0.2143 0.0000  plane waves:    1629
 k-point  89 :   0.3571 0.2143 0.0000  plane waves:    1628
 k-point  90 :  -0.2143-0.4286 0.0000  plane waves:    1628
 k-point  91 :   0.4286 0.3571 0.0000  plane waves:    1628
 k-point  92 :  -0.3571-0.4286 0.0000  plane waves:    1628
 k-point  93 :   0.2143 0.3571 0.0000  plane waves:    1628
 k-point  94 :  -0.4286-0.2143 0.0000  plane waves:    1628
 k-point  95 :   0.2857 0.2857 0.0000  plane waves:    1628
 k-point  96 :  -0.2857-0.4286 0.0000  plane waves:    1628
 k-point  97 :   0.4286 0.2857 0.0000  plane waves:    1628
 k-point  98 :   0.3571 0.2857 0.0000  plane waves:    1626
 k-point  99 :  -0.2857-0.3571 0.0000  plane waves:    1626
 k-point 100 :   0.3571 0.3571 0.0000  plane waves:    1626

 maximum and minimum number of plane-waves per node :      1684     1626

 maximum number of plane-waves:      1684
 maximum index in each direction: 
   IXMAX=    4   IYMAX=    4   IZMAX=   22
   IXMIN=   -5   IYMIN=   -5   IZMIN=  -22


 serial   3D FFT for wavefunctions
 parallel 3D FFT for charge:
    minimum data exchange during FFTs selected (reduces bandwidth)


 total amount of memory used by VASP MPI-rank0    61898. kBytes
=======================================================================

   base      :      30000. kBytes
   nonl-proj :      24476. kBytes
   fftplans  :       2490. kBytes
   grid      :       2111. kBytes
   one-center:         31. kBytes
   wavefun   :       2790. kBytes
 
     INWAV:  cpu time      0.0000: real time      0.0004
 Broyden mixing: mesh for mixing (old mesh)
   NGX =  9   NGY =  9   NGZ = 45
  (NGX  = 36   NGY  = 36   NGZ  =180)
  gives a total of   3645 points

 initial charge density was supplied:
 charge density of overlapping atoms calculated
 number of electron      10.0000000 magnetization 
 keeping initial charge density in first step


--------------------------------------------------------------------------------------------------------


 Maximum index for augmentation-charges         3834 (set IRDMAX)


--------------------------------------------------------------------------------------------------------


 First call to EWALD:  gamma=   0.334
 Maximum number of real-space cells 5x 5x 1
 Maximum number of reciprocal cells 2x 2x 7

    FEWALD:  cpu time      0.0010: real time      0.0010


--------------------------------------- Ionic step        1  -------------------------------------------




--------------------------------------- Iteration      1(   1)  ---------------------------------------


    POTLOK:  cpu time      0.0145: real time      0.1026
    SETDIJ:  cpu time      0.1601: real time      0.1602
     EDDAV:  cpu time      0.6981: real time      0.6993
       DOS:  cpu time      0.0012: real time      0.0012
    --------------------------------------------
      LOOP:  cpu time      0.8739: real time      0.9633

 eigenvalue-minimisations  :  3200
 total energy-change (2. order) : 0.2482768E+02  (-0.2943323E+03)
 number of electron      10.0000000 magnetization 
 augmentation part       10.0000000 magnetization 

 Free energy of the ion-electron system (eV)
  ---------------------------------------------------
  alpha Z        PSCENC =         3.71007814
  Ewald energy   TEWEN  =       534.42599682
  -Hartree energ DENC   =      -833.34938834
  -exchange      EXHF   =         0.00000000
  -V(xc)+E(xc)   XCENC  =        -7.57082024
  PAW double counting   =       293.95507915     -263.19716017
  entropy T*S    EENTRO =        -0.00020702
  eigenvalues    EBANDS =       -55.22157881
  atomic energy  EATOM  =       352.07568098
  Solvation  Ediel_sol  =         0.00000000
  ---------------------------------------------------
  free energy    TOTEN  =        24.82768052 eV

  energy without entropy =       24.82788754  energy(sigma->0) =       24.82778403


--------------------------------------------------------------------------------------------------------




 average (electrostatic) potential at core
  the test charge radii are     1.0220
  (the norm of the test charge is              1.0000)
       1 -83.2021       2 -83.2021
 
 
 
 E-fermi :   2.8095     XC(G=0):  -3.3735     alpha+bet : -2.8518

 Fermi energy:         2.8094619362

 k-point     1 :       0.0000    0.0000    0.0000
  band No.  band energies     occupation 
      1     -16.8594      2.00000
      2      -8.4686      2.00000
      3      -1.1747      2.00000
      4       2.3442      2.00000
      5       2.8130      0.62113
      6       4.0661      0.00000
      7       4.4423      0.00000
      8       5.1035      0.00000
      9       5.9419      0.00000
     10       8.1401      0.00000
     11      10.9071      0.00000
     12      11.6081      0.00000
     13      12.9890      0.00000
     14      15.0887      0.00000
     15      16.0498      0.00000
     16      18.2568      0.00000

 k-point     2 :       0.0714    0.0000    0.0000
  band No.  band energies     occupation 
      1     -16.6547      2.00000
      2      -8.2842      2.00000
      3      -2.2285      2.00000
      4      -0.8664      2.00000
      5       0.9844      2.00000
      6       2.4440      2.00000
      7       2.8621      0.00000
      8       4.4611      0.00000
      9       5.1825      0.00000
     10       7.7715      0.00000
     11       8.7767      0.00000
     12       9.9957      0.00000
     13      11.3012      0.00000
     14      13.4321      0.00000
     15      15.7864      0.00000
     16      16.8845      0.00000

 k-point     3 :       0.0000    0.0714    0.0000
  band No.  band energies     occupation 
      1     -16.9714      2.00000
      2      -8.7656      2.00000
      3      -1.3908      2.00000
      4       1.4031      2.00000
      5       2.5481      2.00000
      6       2.9573      0.00000
      7       4.1773      0.00000
      8       5.1355      0.00000
      9       5.7115      0.00000
     10       8.3011      0.00000
     11       9.9943      0.00000
     12      11.0096      0.00000
     13      12.1003      0.00000
     14      14.2504      0.00000
     15      16.0539      0.00000
     16      18.4106      0.00000

 k-point     4 :      -0.0714    0.0714    0.0000
  band No.  band energies     occupation 
      1     -16.7724      2.00000
      2      -8.7240      2.00000
      3      -2.0187      2.00000
      4      -0.2140      2.00000
      5       2.3557      2.00000
      6       2.7400      2.00000
      7       3.8842      0.00000
      8       4.3397      0.00000
      9       5.2946      0.00000
     10       7.7964      0.00000
     11       9.2645      0.00000
     12       9.8877      0.00000
     13      11.6255      0.00000
     14      14.0871      0.00000
     15      16.2267      0.00000
     16      17.8962      0.00000

 k-point     5 :       0.1429    0.0000    0.0000
  band No.  band energies     occupation 
      1     -16.8750      2.00000
      2      -8.9516      2.00000
      3      -2.8322      2.00000
      4      -1.4177      2.00000
      5       2.6875      2.00000
      6       3.0961      0.00000
      7       4.3114      0.00000
      8       5.3306      0.00000
      9       6.0168      0.00000
     10       7.2629      0.00000
     11       9.8210      0.00000
     12      10.9453      0.00000
     13      12.2500      0.00000
     14      13.0614      0.00000
     15      15.8197      0.00000
     16      17.3338      0.00000

 k-point     6 :       0.0000    0.1429    0.0000
  band No.  band energies     occupation 
      1     -16.8153      2.00000
      2      -8.7392      2.00000
      3      -3.6122      2.00000
      4      -1.2085      2.00000
      5       1.5150      2.00000
      6       2.8087      1.08353
      7       3.1818      0.00000
      8       4.9016      0.00000
      9       5.3109      0.00000
     10       7.2233      0.00000
     11       8.5207      0.00000
     12       9.4906      0.00000
     13      11.0070      0.00000
     14      13.3357      0.00000
     15      14.1503      0.00000
     16      16.7717      0.00000

 k-point     7 :      -0.1429    0.1429    0.0000
  band No.  band energies     occupation 
      1     -16.7859      2.00000
      2      -7.9787      2.00000
      3      -1.6436      2.00000
      4       2.0180      2.00000
      5       2.9053      0.00000
      6       3.0658      0.00000
      7       4.6698      0.00000
      8       5.0018      0.00000
      9       6.1734      0.00000
     10       7.3923      0.00000
     11       8.9723      0.00000
     12      10.9876      0.00000
     13      11.4790      0.00000
     14      14.4951      0.00000
     15      16.5296      0.00000
     16      18.3239      0.00000

 k-point     8 :       0.2143   -0.0000    0.0000
  band No.  band energies     occupation 
      1     -16.1768      2.00000
      2      -7.4711      2.00000
      3      -2.9004      2.00000
      4       0.3778      2.00000
      5       2.8225      0.06523
      6       3.1834      0.00000
      7       3.9188      0.00000
      8       4.7708      0.00000
      9       5.9892      0.00000
     10       6.8472      0.00000
     11       7.9007      0.00000
     12       9.1047      0.00000
     13      11.4403      0.00000
     14      13.0588      0.00000
     15      15.2372      0.00000
     16      16.5308      0.00000

 k-point     9 :       0.0000    0.2143    0.0000
  band No.  band energies     occupation 
      1     -16.4773      2.00000
      2      -8.0707      2.00000
      3      -4.6269      2.00000
      4      -0.6569      2.00000
      5       0.5691      2.00000
      6       3.2245      0.00000
      7       3.8220      0.00000
      8       5.5401      0.00000
      9       6.1662      0.00000
     10       7.4162      0.00000
     11       9.6689      0.00000
     12      10.4518      0.00000
     13      11.7583      0.00000
     14      12.8846      0.00000
     15      14.3092      0.00000
     16      15.9678      0.00000

 k-point    10 :      -0.2143    0.2143    0.0000
  band No.  band energies     occupation 
      1     -16.2163      2.00000
      2      -7.6795      2.00000
      3      -3.9914      2.00000
      4      -0.6357      2.00000
      5       2.0160      2.00000
      6       3.4351      0.00000
      7       3.6535      0.00000
      8       5.2320      0.00000
      9       6.2267      0.00000
     10       6.3951      0.00000
     11       9.1877      0.00000
     12      10.4136      0.00000
     13      13.3105      0.00000
     14      14.0464      0.00000
     15      15.2831      0.00000
     16      16.3712      0.00000

 k-point    11 :       0.2857    0.0000    0.0000
  band No.  band energies     occupation 
      1     -15.6334      2.00000
      2      -7.8622      2.00000
      3      -6.4068      2.00000
      4      -0.9996      2.00000
      5       1.2925      2.00000
      6       3.7500      0.00000
      7       4.2320      0.00000
      8       5.5791      0.00000
      9       6.6026      0.00000
     10       7.7733      0.00000
     11       9.9736      0.00000
     12      10.8118      0.00000
     13      12.6867      0.00000
     14      14.6214      0.00000
     15      15.6115      0.00000
     16      17.3960      0.00000

 k-point    12 :       0.0000    0.2857    0.0000
  band No.  band energies     occupation 
      1     -15.5145      2.00000
      2      -7.5784      2.00000
      3      -4.9278      2.00000
      4      -0.3597      2.00000
      5       2.7476      2.00000
      6       4.1295      0.00000
      7       4.5050      0.00000
      8       5.6395      0.00000
      9       6.1037      0.00000
     10       7.1789      0.00000
     11      10.4927      0.00000
     12      11.6323      0.00000
     13      12.2943      0.00000
     14      14.6259      0.00000
     15      15.4507      0.00000
     16      16.5795      0.00000

 k-point    13 :      -0.2857    0.2857    0.0000
  band No.  band energies     occupation 
      1     -15.5925      2.00000
      2      -6.4676      2.00000
      3      -4.0030      2.00000
      4      -1.2135      2.00000
      5       0.5287      2.00000
      6       3.9546      0.00000
      7       4.3504      0.00000
      8       5.1685      0.00000
      9       6.5938      0.00000
     10       7.0843      0.00000
     11       9.1946      0.00000
     12      10.0479      0.00000
     13      10.6004      0.00000
     14      13.0013      0.00000
     15      13.7795      0.00000
     16      16.4681      0.00000

 k-point    14 :       0.3571    0.0000    0.0000
  band No.  band energies     occupation 
      1     -13.7110      2.00000
      2      -7.3474      2.00000
      3      -5.7293      2.00000
      4      -1.0551      2.00000
      5       0.4059      2.00000
      6       4.0609      0.00000
      7       5.0459      0.00000
      8       5.9393      0.00000
      9       7.4443      0.00000
     10       7.8126      0.00000
     11       9.0658      0.00000
     12      10.5866      0.00000
     13      12.5264      0.00000
     14      13.5651      0.00000
     15      14.4173      0.00000
     16      15.4043      0.00000

 k-point    15 :       0.0000    0.3571    0.0000
  band No.  band energies     occupation 
      1     -13.4521      2.00000
      2      -8.5319      2.00000
      3      -3.9585      2.00000
      4      -1.1199      2.00000
      5       2.3645      2.00000
      6       4.2439      0.00000
      7       5.3193      0.00000
      8       6.1933      0.00000
      9       6.6563      0.00000
     10       7.7396      0.00000
     11       8.2223      0.00000
     12      11.0618      0.00000
     13      12.4935      0.00000
     14      13.4010      0.00000
     15      15.6244      0.00000
     16      16.9700      0.00000

 k-point    16 :      -0.3571    0.3571    0.0000
  band No.  band energies     occupation 
      1     -14.3619      2.00000
      2      -8.3296      2.00000
      3      -5.3055      2.00000
      4       0.5835      2.00000
      5       2.4421      2.00000
      6       4.8298      0.00000
      7       5.3903      0.00000
      8       5.7758      0.00000
      9       7.0583      0.00000
     10       8.4829      0.00000
     11       8.9988      0.00000
     12      10.2813      0.00000
     13      11.4943      0.00000
     14      11.9562      0.00000
     15      13.9479      0.00000
     16      14.6718      0.00000

 k-point    17 :       0.4286   -0.0000    0.0000
  band No.  band energies     occupation 
      1     -14.0614      2.00000
      2      -9.3977      2.00000
      3      -3.1794      2.00000
      4      -0.4236      2.00000
      5       1.4608      2.00000
      6       4.4052      0.00000
      7       6.1041      0.00000
      8       6.8097      0.00000
      9       7.4613      0.00000
     10       8.5663      0.00000
     11       9.0386      0.00000
     12       9.8216      0.00000
     13      10.3930      0.00000
     14      11.0244      0.00000
     15      12.6670      0.00000
     16      15.2390      0.00000

 k-point    18 :       0.0000    0.4286    0.0000
  band No.  band energies     occupation 
      1     -13.4938      2.00000
      2      -9.1363      2.00000
      3      -4.6438      2.00000
      4      -1.6069      2.00000
      5       0.2188      2.00000
      6       3.2219      0.00000
      7       5.9651      0.00000
      8       6.5116      0.00000
      9       6.8584      0.00000
     10       7.9073      0.00000
     11       9.1233      0.00000
     12      10.2589      0.00000
     13      10.9130      0.00000
     14      11.9909      0.00000
     15      13.2698      0.00000
     16      14.8704      0.00000

 k-point    19 :      -0.4286    0.4286    0.0000
  band No.  band energies     occupation 
      1     -12.5500      2.00000
      2      -9.8238      2.00000
      3      -4.4210      2.00000
      4      -0.8164      2.00000
      5       1.6259      2.00000
      6       4.0718      0.00000
      7       4.9222      0.00000
      8       6.3589      0.00000
      9       6.6838      0.00000
     10       8.2536      0.00000
     11       9.0732      0.00000
     12       9.7862      0.00000
     13      10.7496      0.00000
     14      11.0087      0.00000
     15      11.3817      0.00000
     16      14.6683      0.00000

 k-point    20 :       0.5000   -0.0000    0.0000
  band No.  band energies     occupation 
      1     -10.9598      2.00000
      2      -9.9071      2.00000
      3      -3.9372      2.00000
      4      -2.1591      2.00000
      5       3.4989      0.00000
      6       4.6225      0.00000
      7       6.7048      0.00000
      8       7.3555      0.00000
      9       7.6445      0.00000
     10       8.4846      0.00000
     11       9.1209      0.00000
     12      10.9959      0.00000
     13      12.1248      0.00000
     14      13.0173      0.00000
     15      14.7429      0.00000
     16      16.3423      0.00000

 k-point    21 :       0.0000    0.5000    0.0000
  band No.  band energies     occupation 
      1     -12.4873      2.00000
      2     -10.2896      2.00000
      3      -2.3266      2.00000
      4      -0.9062      2.00000
      5       1.1422      2.00000
      6       4.0064      0.00000
      7       6.0213      0.00000
      8       6.7304      0.00000
      9       7.9643      0.00000
     10       8.1941      0.00000
     11       9.3375      0.00000
     12      10.7379      0.00000
     13      11.2762      0.00000
     14      12.1938      0.00000
     15      15.4779      0.00000
     16      16.2598      0.00000

 k-point    22 :       0.5000    0.5000    0.0000
  band No.  band energies     occupation 
      1     -12.8327      2.00000
      2     -10.7367      2.00000
      3      -2.2870      2.00000
      4      -1.8636      2.00000
      5      -0.0432      2.00000
      6       3.9439      0.00000
      7       6.0142      0.00000
      8       6.2335      0.00000
      9       7.7553      0.00000
     10       7.9551      0.00000
     11       8.5435      0.00000
     12       9.0242      0.00000
     13      10.3038      0.00000
     14      13.6655      0.00000
     15      14.6307      0.00000
     16      15.8792      0.00000

 k-point    23 :       0.0714    0.0714    0.0000
  band No.  band energies     occupation 
      1     -16.6262      2.00000
      2      -8.3215      2.00000
      3      -1.9655      2.00000
      4      -0.6709      2.00000
      5       2.5558      2.00000
      6       2.9957      0.00000
      7       3.3132      0.00000
      8       4.2049      0.00000
      9       5.1566      0.00000
     10       5.6526      0.00000
     11       7.2535      0.00000
     12      10.6791      0.00000
     13      11.5681      0.00000
     14      13.6810      0.00000
     15      16.6309      0.00000
     16      17.9079      0.00000

 k-point    24 :      -0.0714    0.1429    0.0000
  band No.  band energies     occupation 
      1     -17.1743      2.00000
      2      -9.0020      2.00000
      3      -1.4274      2.00000
      4       0.0558      2.00000
      5       2.5692      2.00000
      6       3.0410      0.00000
      7       3.2907      0.00000
      8       4.7432      0.00000
      9       5.2286      0.00000
     10       8.1849      0.00000
     11       8.8505      0.00000
     12       9.5485      0.00000
     13      11.2164      0.00000
     14      13.5886      0.00000
     15      15.2592      0.00000
     16      16.5022      0.00000

 k-point    25 :      -0.1429    0.0714    0.0000
  band No.  band energies     occupation 
      1     -16.7124      2.00000
      2      -8.8206      2.00000
      3      -1.7953      2.00000
      4       0.8109      2.00000
      5       2.2563      2.00000
      6       2.9798      0.00000
      7       3.0923      0.00000
      8       4.5950      0.00000
      9       5.1740      0.00000
     10       8.1686      0.00000
     11       9.7464      0.00000
     12      10.4671      0.00000
     13      11.5437      0.00000
     14      13.3151      0.00000
     15      14.9870      0.00000
     16      16.7465      0.00000

 k-point    26 :       0.1429    0.0714    0.0000
  band No.  band energies     occupation 
      1     -16.2128      2.00000
      2      -8.4059      2.00000
      3      -2.7376      2.00000
      4      -1.4459      2.00000
      5       0.2068      2.00000
      6       3.0994      0.00000
      7       3.3919      0.00000
      8       4.6985      0.00000
      9       5.6539      0.00000
     10       6.3138      0.00000
     11       8.5334      0.00000
     12      11.3724      0.00000
     13      12.1248      0.00000
     14      13.4061      0.00000
     15      16.5754      0.00000
     16      17.5733      0.00000

 k-point    27 :      -0.0714    0.2143    0.0000
  band No.  band energies     occupation 
      1     -16.4386      2.00000
      2      -7.7080      2.00000
      3      -3.8092      2.00000
      4      -1.6187      2.00000
      5      -0.7088      2.00000
      6       3.2651      0.00000
      7       3.4176      0.00000
      8       4.8763      0.00000
      9       5.9686      0.00000
     10       7.8046      0.00000
     11       8.7760      0.00000
     12      10.2757      0.00000
     13      11.7679      0.00000
     14      14.4398      0.00000
     15      15.7038      0.00000
     16      16.5611      0.00000

 k-point    28 :      -0.2143    0.1429    0.0000
  band No.  band energies     occupation 
      1     -16.6869      2.00000
      2      -8.2193      2.00000
      3      -2.2976      2.00000
      4      -0.4099      2.00000
      5       0.2840      2.00000
      6       3.0435      0.00000
      7       3.5204      0.00000
      8       5.3262      0.00000
      9       5.8942      0.00000
     10       8.6180      0.00000
     11      10.7285      0.00000
     12      12.8087      0.00000
     13      13.2155      0.00000
     14      14.6927      0.00000
     15      15.5042      0.00000
     16      17.1541      0.00000

 k-point    29 :      -0.1429    0.2143    0.0000
  band No.  band energies     occupation 
      1     -16.6392      2.00000
      2      -8.6540      2.00000
      3      -3.1156      2.00000
      4      -1.3978      2.00000
      5       1.1966      2.00000
      6       3.0526      0.00000
[...]
  0.357143  0.285714  0.000000      2.000000
 -0.285714 -0.357143  0.000000      2.000000
  0.357143  0.357143  0.000000      2.000000
 
 Following cartesian coordinates:
            Coordinates               Weight
  0.000000  0.000000  0.000000      1.000000
  0.021761  0.012564  0.000000      2.000000
  0.000000  0.025128  0.000000      2.000000
 -0.021761  0.012564  0.000000      2.000000
  0.043523  0.025128  0.000000      2.000000
  0.000000  0.050256  0.000000      2.000000
 -0.043523  0.025128  0.000000      2.000000
  0.065284  0.037692  0.000000      2.000000
  0.000000  0.075384  0.000000      2.000000
 -0.065284  0.037692  0.000000      2.000000
  0.087046  0.050256  0.000000      2.000000
  0.000000  0.100512  0.000000      2.000000
 -0.087046  0.050256  0.000000      2.000000
  0.108807  0.062820  0.000000      2.000000
  0.000000  0.125640  0.000000      2.000000
 -0.108807  0.062820  0.000000      2.000000
  0.130569  0.075384  0.000000      2.000000
  0.000000  0.150768  0.000000      2.000000
 -0.130569  0.075384  0.000000      2.000000
  0.152330  0.087948  0.000000      1.000000
  0.000000  0.175896  0.000000      1.000000
  0.152330  0.263844  0.000000      1.000000
  0.021761  0.037692  0.000000      2.000000
 -0.021761  0.037692  0.000000      2.000000
 -0.043523  0.000000  0.000000      2.000000
  0.043523  0.050256  0.000000      2.000000
 -0.021761  0.062820  0.000000      2.000000
 -0.065284  0.012564  0.000000      2.000000
 -0.043523  0.050256  0.000000      2.000000
  0.021761  0.062820  0.000000      2.000000
  0.065284  0.012564  0.000000      2.000000
  0.065284  0.062820  0.000000      2.000000
 -0.021761  0.087948  0.000000      2.000000
 -0.087046  0.025128  0.000000      2.000000
 -0.065284  0.062820  0.000000      2.000000
  0.021761  0.087948  0.000000      2.000000
  0.087046  0.025128  0.000000      2.000000
  0.087046  0.075384  0.000000      2.000000
 -0.021761  0.113076  0.000000      2.000000
 -0.108807  0.037692  0.000000      2.000000
 -0.087046  0.075384  0.000000      2.000000
  0.021761  0.113076  0.000000      2.000000
  0.108807  0.037692  0.000000      2.000000
  0.108807  0.087948  0.000000      2.000000
 -0.021761  0.138204  0.000000      2.000000
 -0.130569  0.050256  0.000000      2.000000
 -0.108807  0.087948  0.000000      2.000000
  0.021761  0.138204  0.000000      2.000000
  0.130569  0.050256  0.000000      2.000000
  0.130569  0.100512  0.000000      2.000000
 -0.021761  0.163332  0.000000      2.000000
  0.152330  0.238716  0.000000      2.000000
 -0.130569  0.100512  0.000000      2.000000
  0.021761  0.163332  0.000000      2.000000
  0.152330  0.062820  0.000000      2.000000
  0.043523  0.075384  0.000000      2.000000
 -0.043523  0.075384  0.000000      2.000000
 -0.087046  0.000000  0.000000      2.000000
  0.065284  0.087948  0.000000      2.000000
 -0.043523  0.100512  0.000000      2.000000
 -0.108807  0.012564  0.000000      2.000000
 -0.065284  0.087948  0.000000      2.000000
  0.043523  0.100512  0.000000      2.000000
  0.108807  0.012564  0.000000      2.000000
  0.087046  0.100512  0.000000      2.000000
 -0.043523  0.125640  0.000000      2.000000
 -0.130569  0.025128  0.000000      2.000000
 -0.087046  0.100512  0.000000      2.000000
  0.043523  0.125640  0.000000      2.000000
  0.130569  0.025128  0.000000      2.000000
  0.108807  0.113076  0.000000      2.000000
 -0.043523  0.150768  0.000000      2.000000
  0.152330  0.213588  0.000000      2.000000
 -0.108807  0.113076  0.000000      2.000000
  0.043523  0.150768  0.000000      2.000000
  0.152330  0.037692  0.000000      2.000000
  0.130569  0.125640  0.000000      2.000000
 -0.043523 -0.175896  0.000000      2.000000
  0.130569  0.226152  0.000000      2.000000
  0.065284  0.113076  0.000000      2.000000
 -0.065284  0.113076  0.000000      2.000000
 -0.130569  0.000000  0.000000      2.000000
  0.087046  0.125640  0.000000      2.000000
 -0.065284  0.138204  0.000000      2.000000
  0.152330  0.188460  0.000000      2.000000
 -0.087046  0.125640  0.000000      2.000000
  0.065284  0.138204  0.000000      2.000000
  0.152330  0.012564  0.000000      2.000000
  0.108807  0.138204  0.000000      2.000000
 -0.065284 -0.188460  0.000000      2.000000
  0.130569  0.201024  0.000000      2.000000
 -0.108807 -0.213588  0.000000      2.000000
  0.065284  0.163332  0.000000      2.000000
 -0.130569 -0.150768  0.000000      2.000000
  0.087046  0.150768  0.000000      2.000000
 -0.087046 -0.201024  0.000000      2.000000
  0.130569  0.175896  0.000000      2.000000
  0.108807  0.163332  0.000000      2.000000
 -0.087046 -0.175896  0.000000      2.000000
  0.108807  0.188460  0.000000      2.000000
 


 MACROSCOPIC STATIC DIELECTRIC TENSOR (including local field effects in DFT)
 ------------------------------------------------------
           4.079196     0.012310     0.000898
           0.012311     4.055757     0.000908
           0.000899     0.000909     1.305568
 ------------------------------------------------------



--------------------------------------------------------------------------------------------------------


  LATTYP: Found a hexagonal cell.
 ALAT       =     3.2823434942
 C/A-ratio  =     4.8745660009
  
  Lattice vectors:
  
 A1 = (   3.2823434942,   0.0000000000,   0.0000000000)
 A2 = (  -1.6411717471,   2.8425928499,   0.0000000000)
 A3 = (   0.0000000000,   0.0000000000,  16.0000000000)


Analysis of symmetry for initial positions (statically):
=====================================================================
 Subroutine PRICEL returns:
 Original cell was already a primitive cell.
 

 Routine SETGRP: Setting up the symmetry group for a 
 hexagonal supercell.


 Subroutine GETGRP returns: Found  2 space group operations
 (whereof  2 operations were pure point group operations)
 out of a pool of 24 trial point group operations.


The static configuration has the point symmetry S_2 .


Analysis of symmetry for dynamics (positions and initial velocities):
=====================================================================
 Subroutine PRICEL returns:
 Original cell was already a primitive cell.
 

 Routine SETGRP: Setting up the symmetry group for a 
 hexagonal supercell.


 Subroutine GETGRP returns: Found  2 space group operations
 (whereof  2 operations were pure point group operations)
 out of a pool of 24 trial point group operations.


The dynamic configuration has the point symmetry S_2 .


 Subroutine INISYM returns: Found  2 space group operations
 (whereof  2 operations are pure point group operations),
 and found     1 'primitive' translations

 
 KPOINTS: kpoints                                 

Automatic generation of k-mesh.
 Grid dimensions read from file:
 generate k-points for:   14   14    1

 Generating k-lattice:

  Cartesian coordinates                     Fractional coordinates (reciprocal lattice)
     0.021761455  0.012563982  0.000000000     0.071428571  0.000000000  0.000000000
     0.000000000  0.025127964  0.000000000     0.000000000  0.071428571  0.000000000
     0.000000000  0.000000000  0.062500000     0.000000000  0.000000000  1.000000000

  Length of vectors
     0.025127964  0.025127964  0.062500000

  Shift w.r.t. Gamma in fractional coordinates (k-lattice)
     0.000000000  0.000000000  0.000000000

 
 Subroutine IBZKPT returns following result:
 ===========================================
 
 Found    100 irreducible k-points:
 
 Following reciprocal coordinates:
            Coordinates               Weight
  0.000000  0.000000  0.000000      1.000000
  0.071429  0.000000  0.000000      2.000000
  0.000000  0.071429  0.000000      2.000000
 -0.071429  0.071429  0.000000      2.000000
  0.142857  0.000000  0.000000      2.000000
  0.000000  0.142857  0.000000      2.000000
 -0.142857  0.142857  0.000000      2.000000
  0.214286 -0.000000  0.000000      2.000000
  0.000000  0.214286  0.000000      2.000000
 -0.214286  0.214286  0.000000      2.000000
  0.285714  0.000000  0.000000      2.000000
  0.000000  0.285714  0.000000      2.000000
 -0.285714  0.285714  0.000000      2.000000
  0.357143  0.000000  0.000000      2.000000
  0.000000  0.357143  0.000000      2.000000
 -0.357143  0.357143  0.000000      2.000000
  0.428571 -0.000000  0.000000      2.000000
  0.000000  0.428571  0.000000      2.000000
 -0.428571  0.428571  0.000000      2.000000
  0.500000 -0.000000  0.000000      1.000000
  0.000000  0.500000  0.000000      1.000000
  0.500000  0.500000  0.000000      1.000000
  0.071429  0.071429  0.000000      2.000000
 -0.071429  0.142857  0.000000      2.000000
 -0.142857  0.071429  0.000000      2.000000
  0.142857  0.071429  0.000000      2.000000
 -0.071429  0.214286  0.000000      2.000000
 -0.214286  0.142857  0.000000      2.000000
 -0.142857  0.214286  0.000000      2.000000
  0.071429  0.142857  0.000000      2.000000
  0.214286 -0.071429  0.000000      2.000000
  0.214286  0.071429  0.000000      2.000000
 -0.071429  0.285714  0.000000      2.000000
 -0.285714  0.214286  0.000000      2.000000
 -0.214286  0.285714  0.000000      2.000000
  0.071429  0.214286  0.000000      2.000000
  0.285714 -0.071429  0.000000      2.000000
  0.285714  0.071429  0.000000      2.000000
 -0.071429  0.357143  0.000000      2.000000
 -0.357143  0.285714  0.000000      2.000000
 -0.285714  0.357143  0.000000      2.000000
  0.071429  0.285714  0.000000      2.000000
  0.357143 -0.071429  0.000000      2.000000
  0.357143  0.071429  0.000000      2.000000
 -0.071429  0.428571  0.000000      2.000000
 -0.428571  0.357143  0.000000      2.000000
 -0.357143  0.428571  0.000000      2.000000
  0.071429  0.357143  0.000000      2.000000
  0.428571 -0.071429  0.000000      2.000000
  0.428571  0.071429  0.000000      2.000000
 -0.071429  0.500000  0.000000      2.000000
  0.500000  0.428571  0.000000      2.000000
 -0.428571  0.500000  0.000000      2.000000
  0.071429  0.428571  0.000000      2.000000
  0.500000 -0.071429  0.000000      2.000000
  0.142857  0.142857  0.000000      2.000000
 -0.142857  0.285714  0.000000      2.000000
 -0.285714  0.142857  0.000000      2.000000
  0.214286  0.142857  0.000000      2.000000
 -0.142857  0.357143  0.000000      2.000000
 -0.357143  0.214286  0.000000      2.000000
 -0.214286  0.357143  0.000000      2.000000
  0.142857  0.214286  0.000000      2.000000
  0.357143 -0.142857  0.000000      2.000000
  0.285714  0.142857  0.000000      2.000000
 -0.142857  0.428571  0.000000      2.000000
 -0.428571  0.285714  0.000000      2.000000
 -0.285714  0.428571  0.000000      2.000000
  0.142857  0.285714  0.000000      2.000000
  0.428571 -0.142857  0.000000      2.000000
  0.357143  0.142857  0.000000      2.000000
 -0.142857  0.500000  0.000000      2.000000
  0.500000  0.357143  0.000000      2.000000
 -0.357143  0.500000  0.000000      2.000000
  0.142857  0.357143  0.000000      2.000000
  0.500000 -0.142857  0.000000      2.000000
  0.428571  0.142857  0.000000      2.000000
 -0.142857 -0.428571  0.000000      2.000000
  0.428571  0.428571  0.000000      2.000000
  0.214286  0.214286  0.000000      2.000000
 -0.214286  0.428571  0.000000      2.000000
 -0.428571  0.214286  0.000000      2.000000
  0.285714  0.214286  0.000000      2.000000
 -0.214286  0.500000  0.000000      2.000000
  0.500000  0.285714  0.000000      2.000000
 -0.285714  0.500000  0.000000      2.000000
  0.214286  0.285714  0.000000      2.000000
  0.500000 -0.214286  0.000000      2.000000
  0.357143  0.214286  0.000000      2.000000
 -0.214286 -0.428571  0.000000      2.000000
  0.428571  0.357143  0.000000      2.000000
 -0.357143 -0.428571  0.000000      2.000000
  0.214286  0.357143  0.000000      2.000000
 -0.428571 -0.214286  0.000000      2.000000
  0.285714  0.285714  0.000000      2.000000
 -0.285714 -0.428571  0.000000      2.000000
  0.428571  0.285714  0.000000      2.000000
  0.357143  0.285714  0.000000      2.000000
 -0.285714 -0.357143  0.000000      2.000000
  0.357143  0.357143  0.000000      2.000000
 
 Following cartesian coordinates:
            Coordinates               Weight
  0.000000  0.000000  0.000000      1.000000
  0.021761  0.012564  0.000000      2.000000
  0.000000  0.025128  0.000000      2.000000
 -0.021761  0.012564  0.000000      2.000000
  0.043523  0.025128  0.000000      2.000000
  0.000000  0.050256  0.000000      2.000000
 -0.043523  0.025128  0.000000      2.000000
  0.065284  0.037692  0.000000      2.000000
  0.000000  0.075384  0.000000      2.000000
 -0.065284  0.037692  0.000000      2.000000
  0.087046  0.050256  0.000000      2.000000
  0.000000  0.100512  0.000000      2.000000
 -0.087046  0.050256  0.000000      2.000000
  0.108807  0.062820  0.000000      2.000000
  0.000000  0.125640  0.000000      2.000000
 -0.108807  0.062820  0.000000      2.000000
  0.130569  0.075384  0.000000      2.000000
  0.000000  0.150768  0.000000      2.000000
 -0.130569  0.075384  0.000000      2.000000
  0.152330  0.087948  0.000000      1.000000
  0.000000  0.175896  0.000000      1.000000
  0.152330  0.263844  0.000000      1.000000
  0.021761  0.037692  0.000000      2.000000
 -0.021761  0.037692  0.000000      2.000000
 -0.043523  0.000000  0.000000      2.000000
  0.043523  0.050256  0.000000      2.000000
 -0.021761  0.062820  0.000000      2.000000
 -0.065284  0.012564  0.000000      2.000000
 -0.043523  0.050256  0.000000      2.000000
  0.021761  0.062820  0.000000      2.000000
  0.065284  0.012564  0.000000      2.000000
  0.065284  0.062820  0.000000      2.000000
 -0.021761  0.087948  0.000000      2.000000
 -0.087046  0.025128  0.000000      2.000000
 -0.065284  0.062820  0.000000      2.000000
  0.021761  0.087948  0.000000      2.000000
  0.087046  0.025128  0.000000      2.000000
  0.087046  0.075384  0.000000      2.000000
 -0.021761  0.113076  0.000000      2.000000
 -0.108807  0.037692  0.000000      2.000000
 -0.087046  0.075384  0.000000      2.000000
  0.021761  0.113076  0.000000      2.000000
  0.108807  0.037692  0.000000      2.000000
  0.108807  0.087948  0.000000      2.000000
 -0.021761  0.138204  0.000000      2.000000
 -0.130569  0.050256  0.000000      2.000000
 -0.108807  0.087948  0.000000      2.000000
  0.021761  0.138204  0.000000      2.000000
  0.130569  0.050256  0.000000      2.000000
  0.130569  0.100512  0.000000      2.000000
 -0.021761  0.163332  0.000000      2.000000
  0.152330  0.238716  0.000000      2.000000
 -0.130569  0.100512  0.000000      2.000000
  0.021761  0.163332  0.000000      2.000000
  0.152330  0.062820  0.000000      2.000000
  0.043523  0.075384  0.000000      2.000000
 -0.043523  0.075384  0.000000      2.000000
 -0.087046  0.000000  0.000000      2.000000
  0.065284  0.087948  0.000000      2.000000
 -0.043523  0.100512  0.000000      2.000000
 -0.108807  0.012564  0.000000      2.000000
 -0.065284  0.087948  0.000000      2.000000
  0.043523  0.100512  0.000000      2.000000
  0.108807  0.012564  0.000000      2.000000
  0.087046  0.100512  0.000000      2.000000
 -0.043523  0.125640  0.000000      2.000000
 -0.130569  0.025128  0.000000      2.000000
 -0.087046  0.100512  0.000000      2.000000
  0.043523  0.125640  0.000000      2.000000
  0.130569  0.025128  0.000000      2.000000
  0.108807  0.113076  0.000000      2.000000
 -0.043523  0.150768  0.000000      2.000000
  0.152330  0.213588  0.000000      2.000000
 -0.108807  0.113076  0.000000      2.000000
  0.043523  0.150768  0.000000      2.000000
  0.152330  0.037692  0.000000      2.000000
  0.130569  0.125640  0.000000      2.000000
 -0.043523 -0.175896  0.000000      2.000000
  0.130569  0.226152  0.000000      2.000000
  0.065284  0.113076  0.000000      2.000000
 -0.065284  0.113076  0.000000      2.000000
 -0.130569  0.000000  0.000000      2.000000
  0.087046  0.125640  0.000000      2.000000
 -0.065284  0.138204  0.000000      2.000000
  0.152330  0.188460  0.000000      2.000000
 -0.087046  0.125640  0.000000      2.000000
  0.065284  0.138204  0.000000      2.000000
  0.152330  0.012564  0.000000      2.000000
  0.108807  0.138204  0.000000      2.000000
 -0.065284 -0.188460  0.000000      2.000000
  0.130569  0.201024  0.000000      2.000000
 -0.108807 -0.213588  0.000000      2.000000
  0.065284  0.163332  0.000000      2.000000
 -0.130569 -0.150768  0.000000      2.000000
  0.087046  0.150768  0.000000      2.000000
 -0.087046 -0.201024  0.000000      2.000000
  0.130569  0.175896  0.000000      2.000000
  0.108807  0.163332  0.000000      2.000000
 -0.087046 -0.175896  0.000000      2.000000
  0.108807  0.188460  0.000000      2.000000
 


--------------------------------------------------------------------------------------------------------




 MACROSCOPIC STATIC DIELECTRIC TENSOR (including local field effects in DFT)
 ------------------------------------------------------
           4.079196     0.012310     0.000898
           0.012311     4.055757     0.000908
           0.000899     0.000909     1.305568
 ------------------------------------------------------


 PIEZOELECTRIC TENSOR (including local field effects)  for field in x, y, z        (e  Angst)
          XX          YY          ZZ          XY          YZ          ZX
  --------------------------------------------------------------------------------
  x     0.00000     0.00000     0.00000     0.00000     0.00000     0.00000
  y     0.00000     0.00000     0.00000     0.00000     0.00000     0.00000
  z     0.00000     0.00000     0.00000     0.00000     0.00000     0.00000

 PIEZOELECTRIC TENSOR (including local field effects)  for field in x, y, z        (C/m^2)
          XX          YY          ZZ          XY          YZ          ZX
  --------------------------------------------------------------------------------
  x     0.00000     0.00000     0.00000     0.00000     0.00000     0.00000
  y     0.00000     0.00000     0.00000     0.00000     0.00000     0.00000
  z     0.00000     0.00000     0.00000     0.00000     0.00000     0.00000
 
 BORN EFFECTIVE CHARGES (including local field effects) (in |e|, cummulative output)
 ---------------------------------------------------------------------------------
 ion    1
    1     0.00000     0.00000     0.00000
    2     0.00000     0.00000     0.00000
    3     0.00000     0.00000     0.00000
 ion    2
    1     0.00000     0.00000     0.00000
    2     0.00000     0.00000     0.00000
    3     0.00000     0.00000     0.00000


--------------------------------------------------------------------------------------------------------


     LOOP+:  cpu time    120.4139: real time    125.1442
    4ORBIT:  cpu time      0.0000: real time      0.0000



 total charge

# of ion       s       p       d       tot
------------------------------------------
    1        1.216   1.532   0.096   2.845
    2        1.216   1.532   0.096   2.845
--------------------------------------------------
tot          2.432   3.065   0.193   5.690
 

 total amount of memory used by VASP MPI-rank0    61898. kBytes
=======================================================================

   base      :      30000. kBytes
   nonl-proj :      24476. kBytes
   fftplans  :       2490. kBytes
   grid      :       2111. kBytes
   one-center:         31. kBytes
   wavefun   :       2790. kBytes
 
  
  
 General timing and accounting informations for this job:
 ========================================================
  
                  Total CPU time used (sec):      121.328
                            User time (sec):      120.929
                          System time (sec):        0.400
                         Elapsed time (sec):      127.277
  
                   Maximum memory used (kb):      193452.
                   Average memory used (kb):          N/A
  
                          Minor page faults:        70765
                          Major page faults:         2916
                 Voluntary context switches:          669
