 vasp.6.4.2 20Jul23 (build Nov 14 2023 12:59:38) complex                        
  
 executed on             LinuxIFC date 2023.12.29  16:08:41
 running   16 mpi-ranks, on    1 nodes
 distrk:  each k-point on   16 cores,    1 groups
 distr:  one band on NCORE=   1 cores,   16 groups


--------------------------------------------------------------------------------------------------------


 INCAR:
   ENCUT = 286.920000
   ALGO = Normal
   NELM = 200
   NELMIN = 6
   NELMDL = -12
   EDIFF = 1.0E-6
   AMIX = 0.1
   BMIX = 0.0001
   PREC = Accurate
   IVDW = 0
   ISPIN = 1
   ADDGRID = .TRUE.
   LASPH = .TRUE.
   LREAL = .FALSE.
   NSW = 1
   EDIFFG = -0.010
   IBRION = 8
   POTIM = 0.01
   STRESSTYPE = 2
   LEPSILON = .FALSE.
   ISMEAR = 0
   SIGMA = 0.01
   LORBIT = 10
   NEDOS = 6001
   NWRITE = 3
   LWAVE = .FALSE.
   LCHARG = .FALSE.
   ICHARG = 2
   LELF = .FALSE.
   LVTOT = .FALSE.
   LPLANE = .TRUE.

 POTCAR:    PAW_PBE P_GW 19Mar2012                
 -----------------------------------------------------------------------------
|                                                                             |
|           W    W    AA    RRRRR   N    N  II  N    N   GGGG   !!!           |
|           W    W   A  A   R    R  NN   N  II  NN   N  G    G  !!!           |
|           W    W  A    A  R    R  N N  N  II  N N  N  G       !!!           |
|           W WW W  AAAAAA  RRRRR   N  N N  II  N  N N  G  GGG   !            |
|           WW  WW  A    A  R   R   N   NN  II  N   NN  G    G                |
|           W    W  A    A  R    R  N    N  II  N    N   GGGG   !!!           |
|                                                                             |
|     For optimal performance we recommend to set                             |
|       NCORE = 2 up to number-of-cores-per-socket                            |
|     NCORE specifies how many cores store one orbital (NPAR=cpu/NCORE).      |
|     This setting can greatly improve the performance of VASP for DFT.       |
|     The default, NCORE=1 might be grossly inefficient on modern             |
|     multi-core architectures or massively parallel machines. Do your        |
|     own testing! More info at https://www.vasp.at/wiki/index.php/NCORE      |
|     Unfortunately you need to use the default for GW and RPA                |
|     calculations (for HF NCORE is supported but not extensively tested      |
|     yet).                                                                   |
|                                                                             |
 -----------------------------------------------------------------------------

 POTCAR:    PAW_PBE P_GW 19Mar2012                
   SHA256 =  715c28f2291d37b61637ce89646c59f66f71c8b8d8bfba631e5feb9f7b42defe P_GW/POTCAR           
   COPYR  = (c) Copyright 19Mar2012 Georg Kresse                                                    
   COPYR  = This file is part of the software VASP. Any use, copying, and all other rights are regul
   COPYR  = If you do not have a valid VASP license, you may not use, copy or distribute this file. 
   VRHFIN =P : s2p3                                                                                 
   LEXCH  = PE                                                                                      
   EATOM  =   176.0430 eV,   12.9388 Ry                                                             
                                                                                                    
   TITEL  = PAW_PBE P_GW 19Mar2012                                                                  
   LULTRA =        F    use ultrasoft PP ?                                                          
   IUNSCR =        1    unscreen: 0-lin 1-nonlin 2-no                                               
   RPACOR =    1.400    partial core radius                                                         
   POMASS =   30.974; ZVAL   =    5.000    mass and valenz                                          
   RCORE  =    2.000    outmost cutoff radius                                                       
   RWIGS  =    1.900; RWIGS  =    1.005    wigner-seitz radius (au A)                               
   ENMAX  =  255.040; ENMIN  =  191.280 eV                                                          
   ICORE  =        3    local potential                                                             
   LCOR   =        T    correct aug charges                                                         
   LPAW   =        T    paw PP                                                                      
   EAUG   =  499.732                                                                                
   DEXC   =    0.000                                                                                
   RMAX   =    2.047    core radius for proj-oper                                                   
   RAUG   =    1.300    factor for augmentation sphere                                              
   RDEP   =    2.059    radius for radial grids                                                     
   RDEPT  =    1.900    core radius for aug-charge                                                  
                                                                                                    
   Atomic configuration                                                                             
    7 entries                                                                                       
     n  l   j            E        occ.                                                              
     1  0  0.50     -2084.0982   2.0000                                                             
     2  0  0.50      -173.9859   2.0000                                                             
     2  1  1.50      -124.4865   6.0000                                                             
     3  0  0.50       -13.9692   2.0000                                                             
     3  1  0.50        -5.5067   3.0000                                                             
     3  2  1.50        -6.8029   0.0000                                                             
     4  3  2.50        -1.3606   0.0000                                                             
   Description                                                                                      
     l       E           TYP  RCUT    TYP  RCUT                                                     
     0    -13.9691528     23  1.900                                                                 
     0    102.0436950     23  1.900                                                                 
     1     -5.5066939     23  1.900                                                                 
     1    102.0436950     23  1.900                                                                 
     2     -8.1634956     23  2.000                                                                 
     2     81.6349560     23  2.000                                                                 
     3     27.2116520     23  2.000                                                                 
  local pseudopotential read in
  partial core-charges read in
  partial kinetic energy density read in
  kinetic energy density of atom read in
  atomic valenz-charges read in
  non local Contribution for L=           0  read in
    real space projection operators read in
  non local Contribution for L=           0  read in
    real space projection operators read in
  non local Contribution for L=           1  read in
    real space projection operators read in
  non local Contribution for L=           1  read in
    real space projection operators read in
  non local Contribution for L=           2  read in
    real space projection operators read in
  non local Contribution for L=           2  read in
    real space projection operators read in
    PAW grid and wavefunctions read in
 
   number of l-projection  operators is LMAX  =           6
   number of lm-projection operators is LMMAX =          18
 
  PAW_PBE P_GW 19Mar2012                :
 energy of atom  1       EATOM= -176.0430
 kinetic energy error for atom=    0.0052 (will be added to EATOM!!)
 
 
 POSCAR: pnictogen honeycomb monolayer
  positions in direct lattice
  velocities in cartesian coordinates
 exchange correlation table for  LEXCH =        8
   RHO(1)=    0.500       N(1)  =     2000
   RHO(2)=  100.500       N(2)  =     4000
 -----------------------------------------------------------------------------
|                                                                             |
|           W    W    AA    RRRRR   N    N  II  N    N   GGGG   !!!           |
|           W    W   A  A   R    R  NN   N  II  NN   N  G    G  !!!           |
|           W    W  A    A  R    R  N N  N  II  N N  N  G       !!!           |
|           W WW W  AAAAAA  RRRRR   N  N N  II  N  N N  G  GGG   !            |
|           WW  WW  A    A  R   R   N   NN  II  N   NN  G    G                |
|           W    W  A    A  R    R  N    N  II  N    N   GGGG   !!!           |
|                                                                             |
|     The following INCAR tags have not been used:                            |
|     In line 28: STRESSTYPE                                                  |
|     Please check whether the tags are spelled correctly, have the           |
|     correct format, and do not appear multiple times in the file.           |
|                                                                             |
 -----------------------------------------------------------------------------

 


--------------------------------------------------------------------------------------------------------


 ion  position               nearest neighbor table
   1  0.667  0.333  0.461-   2 2.27   2 2.27   2 2.27
   2  0.333  0.667  0.539-   1 2.27   1 2.27   1 2.27
 
  LATTYP: Found a hexagonal cell.
 ALAT       =     3.2823434942
 C/A-ratio  =     4.8745660009
  
  Lattice vectors:
  
 A1 = (   3.2823434942,   0.0000000000,   0.0000000000)
 A2 = (  -1.6411717471,   2.8425928499,   0.0000000000)
 A3 = (   0.0000000000,   0.0000000000,  16.0000000000)


Analysis of symmetry for initial positions (statically):
=====================================================================
 Subroutine PRICEL returns:
 Original cell was already a primitive cell.
 

 Routine SETGRP: Setting up the symmetry group for a 
 hexagonal supercell.


 Subroutine GETGRP returns: Found 12 space group operations
 (whereof 12 operations were pure point group operations)
 out of a pool of 24 trial point group operations.


The static configuration has the point symmetry D_3d.


Analysis of symmetry for dynamics (positions and initial velocities):
=====================================================================
 Subroutine PRICEL returns:
 Original cell was already a primitive cell.
 

 Routine SETGRP: Setting up the symmetry group for a 
 hexagonal supercell.


 Subroutine GETGRP returns: Found 12 space group operations
 (whereof 12 operations were pure point group operations)
 out of a pool of 24 trial point group operations.


The dynamic configuration has the point symmetry D_3d.


 Subroutine INISYM returns: Found 12 space group operations
 (whereof 12 operations are pure point group operations),
 and found     1 'primitive' translations



 irot  :   1
 --------------------------------------------------------------------
 isymop:   1   0   0
           0   1   0
           0   0   1

 gtrans:     0.0000000     0.0000000     0.0000000

 ptrans:     0.0000000     0.0000000     0.0000000
 
 rotmap:
 (   1->   1)  (   2->   2) 


 irot  :   2
 --------------------------------------------------------------------
 isymop:  -1   0   0
           0  -1   0
           0   0  -1

 gtrans:     0.0000000     0.0000000     0.0000000

 ptrans:     0.0000000     0.0000000     0.0000000
 
 rotmap:
 (   1->   2)  (   2->   1) 


 irot  :   3
 --------------------------------------------------------------------
 isymop:   0  -1   0
           1  -1   0
           0   0   1

 gtrans:     0.0000000     0.0000000     0.0000000

 ptrans:     0.0000000     0.0000000     0.0000000
 
 rotmap:
 (   1->   1)  (   2->   2) 


 irot  :   4
 --------------------------------------------------------------------
 isymop:   0   1   0
          -1   1   0
           0   0  -1

 gtrans:     0.0000000     0.0000000     0.0000000

 ptrans:     0.0000000     0.0000000     0.0000000
 
 rotmap:
 (   1->   2)  (   2->   1) 


 irot  :   5
 --------------------------------------------------------------------
 isymop:  -1   1   0
          -1   0   0
           0   0   1

 gtrans:     0.0000000     0.0000000     0.0000000

 ptrans:     0.0000000     0.0000000     0.0000000
 
 rotmap:
 (   1->   1)  (   2->   2) 


 irot  :   6
 --------------------------------------------------------------------
 isymop:   1  -1   0
           1   0   0
           0   0  -1

 gtrans:     0.0000000     0.0000000     0.0000000

 ptrans:     0.0000000     0.0000000     0.0000000
 
 rotmap:
 (   1->   2)  (   2->   1) 


 irot  :   7
 --------------------------------------------------------------------
 isymop:   1  -1   0
           0  -1   0
           0   0  -1

 gtrans:     0.0000000     0.0000000     0.0000000

 ptrans:     0.0000000     0.0000000     0.0000000
 
 rotmap:
 (   1->   2)  (   2->   1) 


 irot  :   8
 --------------------------------------------------------------------
 isymop:  -1   1   0
           0   1   0
           0   0   1

 gtrans:     0.0000000     0.0000000     0.0000000

 ptrans:     0.0000000     0.0000000     0.0000000
 
 rotmap:
 (   1->   1)  (   2->   2) 


 irot  :   9
 --------------------------------------------------------------------
 isymop:  -1   0   0
          -1   1   0
           0   0  -1

 gtrans:     0.0000000     0.0000000     0.0000000

 ptrans:     0.0000000     0.0000000     0.0000000
 
 rotmap:
 (   1->   2)  (   2->   1) 


 irot  :  10
 --------------------------------------------------------------------
 isymop:   1   0   0
           1  -1   0
           0   0   1

 gtrans:     0.0000000     0.0000000     0.0000000

 ptrans:     0.0000000     0.0000000     0.0000000
 
 rotmap:
 (   1->   1)  (   2->   2) 


 irot  :  11
 --------------------------------------------------------------------
 isymop:   0   1   0
           1   0   0
           0   0  -1

 gtrans:     0.0000000     0.0000000     0.0000000

 ptrans:     0.0000000     0.0000000     0.0000000
 
 rotmap:
 (   1->   2)  (   2->   1) 


 irot  :  12
 --------------------------------------------------------------------
 isymop:   0  -1   0
          -1   0   0
           0   0   1

 gtrans:     0.0000000     0.0000000     0.0000000

 ptrans:     0.0000000     0.0000000     0.0000000
 
 rotmap:
 (   1->   1)  (   2->   2) 

----------------------------------------------------------------------------------------

                                     Primitive cell                                     

  volume of cell :     149.2859

  direct lattice vectors                    reciprocal lattice vectors
     3.282343494  0.000000000  0.000000000     0.304660375  0.175895750  0.000000000
    -1.641171747  2.842592850  0.000000000     0.000000000  0.351791499  0.000000000
     0.000000000  0.000000000 16.000000000     0.000000000  0.000000000  0.062500000

  length of vectors
     3.282343494  3.282343494 16.000000000     0.351791499  0.351791499  0.062500000

  position of ions in fractional coordinates (direct lattice)
     0.666666667  0.333333333  0.461182839
     0.333333333  0.666666667  0.538817161

  ion indices of the primitive-cell ions
   primitive index   ion index
                 1           1
                 2           2

----------------------------------------------------------------------------------------

 
 
 KPOINTS: kpoints                                 

Automatic generation of k-mesh.
 Grid dimensions read from file:
 generate k-points for:   14   14    1

 Generating k-lattice:

  Cartesian coordinates                     Fractional coordinates (reciprocal lattice)
     0.021761455  0.012563982  0.000000000     0.071428571  0.000000000  0.000000000
     0.000000000  0.025127964  0.000000000     0.000000000  0.071428571  0.000000000
     0.000000000  0.000000000  0.062500000     0.000000000  0.000000000  1.000000000

  Length of vectors
     0.025127964  0.025127964  0.062500000

  Shift w.r.t. Gamma in fractional coordinates (k-lattice)
     0.000000000  0.000000000  0.000000000

 
 Subroutine IBZKPT returns following result:
 ===========================================
 
 Found     24 irreducible k-points:
 
 Following reciprocal coordinates:
            Coordinates               Weight
  0.000000  0.000000  0.000000      1.000000
  0.071429  0.000000  0.000000      6.000000
  0.142857  0.000000  0.000000      6.000000
  0.214286 -0.000000  0.000000      6.000000
  0.285714  0.000000  0.000000      6.000000
  0.357143  0.000000  0.000000      6.000000
  0.428571 -0.000000  0.000000      6.000000
  0.500000 -0.000000  0.000000      3.000000
  0.071429  0.071429  0.000000      6.000000
  0.142857  0.071429  0.000000     12.000000
  0.214286  0.071429  0.000000     12.000000
  0.285714  0.071429  0.000000     12.000000
  0.357143  0.071429  0.000000     12.000000
  0.428571  0.071429  0.000000     12.000000
  0.142857  0.142857  0.000000      6.000000
  0.214286  0.142857  0.000000     12.000000
  0.285714  0.142857  0.000000     12.000000
  0.357143  0.142857  0.000000     12.000000
  0.428571  0.142857  0.000000      6.000000
  0.214286  0.214286  0.000000      6.000000
  0.285714  0.214286  0.000000     12.000000
  0.357143  0.214286  0.000000     12.000000
  0.285714  0.285714  0.000000      6.000000
  0.357143  0.285714  0.000000      6.000000
 
 Following cartesian coordinates:
            Coordinates               Weight
  0.000000  0.000000  0.000000      1.000000
  0.021761  0.012564  0.000000      6.000000
  0.043523  0.025128  0.000000      6.000000
  0.065284  0.037692  0.000000      6.000000
  0.087046  0.050256  0.000000      6.000000
  0.108807  0.062820  0.000000      6.000000
  0.130569  0.075384  0.000000      6.000000
  0.152330  0.087948  0.000000      3.000000
  0.021761  0.037692  0.000000      6.000000
  0.043523  0.050256  0.000000     12.000000
  0.065284  0.062820  0.000000     12.000000
  0.087046  0.075384  0.000000     12.000000
  0.108807  0.087948  0.000000     12.000000
  0.130569  0.100512  0.000000     12.000000
  0.043523  0.075384  0.000000      6.000000
  0.065284  0.087948  0.000000     12.000000
  0.087046  0.100512  0.000000     12.000000
  0.108807  0.113076  0.000000     12.000000
  0.130569  0.125640  0.000000      6.000000
  0.065284  0.113076  0.000000      6.000000
  0.087046  0.125640  0.000000     12.000000
  0.108807  0.138204  0.000000     12.000000
  0.087046  0.150768  0.000000      6.000000
  0.108807  0.163332  0.000000      6.000000
 
 
 Subroutine IBZKPT_HF returns following result:
 ==============================================
 
 Found    196 k-points in 1st BZ
 the following    196 k-points will be used (e.g. in the exchange kernel)
 Following reciprocal coordinates:   # in IRBZ
  0.000000  0.000000  0.000000    0.00510204   1 t-inv F
  0.071429  0.000000  0.000000    0.00510204   2 t-inv F
  0.142857  0.000000  0.000000    0.00510204   3 t-inv F
  0.214286 -0.000000  0.000000    0.00510204   4 t-inv F
  0.285714  0.000000  0.000000    0.00510204   5 t-inv F
  0.357143  0.000000  0.000000    0.00510204   6 t-inv F
  0.428571 -0.000000  0.000000    0.00510204   7 t-inv F
  0.500000 -0.000000  0.000000    0.00510204   8 t-inv F
  0.071429  0.071429  0.000000    0.00510204   9 t-inv F
  0.142857  0.071429  0.000000    0.00510204  10 t-inv F
  0.214286  0.071429  0.000000    0.00510204  11 t-inv F
  0.285714  0.071429  0.000000    0.00510204  12 t-inv F
  0.357143  0.071429  0.000000    0.00510204  13 t-inv F
  0.428571  0.071429  0.000000    0.00510204  14 t-inv F
  0.142857  0.142857  0.000000    0.00510204  15 t-inv F
  0.214286  0.142857  0.000000    0.00510204  16 t-inv F
  0.285714  0.142857  0.000000    0.00510204  17 t-inv F
  0.357143  0.142857  0.000000    0.00510204  18 t-inv F
  0.428571  0.142857  0.000000    0.00510204  19 t-inv F
  0.214286  0.214286  0.000000    0.00510204  20 t-inv F
  0.285714  0.214286  0.000000    0.00510204  21 t-inv F
  0.357143  0.214286  0.000000    0.00510204  22 t-inv F
  0.285714  0.285714  0.000000    0.00510204  23 t-inv F
  0.357143  0.285714  0.000000    0.00510204  24 t-inv F
 -0.071429  0.000000  0.000000    0.00510204   2 t-inv F
 -0.071429  0.071429  0.000000    0.00510204   2 t-inv F
  0.071429 -0.071429  0.000000    0.00510204   2 t-inv F
  0.000000 -0.071429  0.000000    0.00510204   2 t-inv F
  0.000000  0.071429  0.000000    0.00510204   2 t-inv F
 -0.142857  0.000000  0.000000    0.00510204   3 t-inv F
 -0.142857  0.142857  0.000000    0.00510204   3 t-inv F
  0.142857 -0.142857  0.000000    0.00510204   3 t-inv F
  0.000000 -0.142857  0.000000    0.00510204   3 t-inv F
  0.000000  0.142857  0.000000    0.00510204   3 t-inv F
 -0.214286  0.000000  0.000000    0.00510204   4 t-inv F
 -0.214286  0.214286  0.000000    0.00510204   4 t-inv F
  0.214286 -0.214286  0.000000    0.00510204   4 t-inv F
 -0.000000 -0.214286  0.000000    0.00510204   4 t-inv F
  0.000000  0.214286  0.000000    0.00510204   4 t-inv F
 -0.285714  0.000000  0.000000    0.00510204   5 t-inv F
 -0.285714  0.285714  0.000000    0.00510204   5 t-inv F
  0.285714 -0.285714  0.000000    0.00510204   5 t-inv F
  0.000000 -0.285714  0.000000    0.00510204   5 t-inv F
  0.000000  0.285714  0.000000    0.00510204   5 t-inv F
 -0.357143  0.000000  0.000000    0.00510204   6 t-inv F
 -0.357143  0.357143  0.000000    0.00510204   6 t-inv F
  0.357143 -0.357143  0.000000    0.00510204   6 t-inv F
  0.000000 -0.357143  0.000000    0.00510204   6 t-inv F
  0.000000  0.357143  0.000000    0.00510204   6 t-inv F
 -0.428571  0.000000  0.000000    0.00510204   7 t-inv F
 -0.428571  0.428571  0.000000    0.00510204   7 t-inv F
  0.428571 -0.428571  0.000000    0.00510204   7 t-inv F
 -0.000000 -0.428571  0.000000    0.00510204   7 t-inv F
  0.000000  0.428571  0.000000    0.00510204   7 t-inv F
 -0.500000  0.500000  0.000000    0.00510204   8 t-inv F
 -0.000000 -0.500000  0.000000    0.00510204   8 t-inv F
 -0.071429 -0.071429  0.000000    0.00510204   9 t-inv F
 -0.142857  0.071429  0.000000    0.00510204   9 t-inv F
  0.142857 -0.071429  0.000000    0.00510204   9 t-inv F
  0.071429 -0.142857  0.000000    0.00510204   9 t-inv F
 -0.071429  0.142857  0.000000    0.00510204   9 t-inv F
 -0.142857 -0.071429  0.000000    0.00510204  10 t-inv F
 -0.214286  0.142857  0.000000    0.00510204  10 t-inv F
  0.214286 -0.142857  0.000000    0.00510204  10 t-inv F
  0.071429 -0.214286  0.000000    0.00510204  10 t-inv F
 -0.071429  0.214286  0.000000    0.00510204  10 t-inv F
  0.142857 -0.214286  0.000000    0.00510204  10 t-inv F
 -0.142857  0.214286  0.000000    0.00510204  10 t-inv F
 -0.214286  0.071429  0.000000    0.00510204  10 t-inv F
  0.214286 -0.071429  0.000000    0.00510204  10 t-inv F
  0.071429  0.142857  0.000000    0.00510204  10 t-inv F
 -0.071429 -0.142857  0.000000    0.00510204  10 t-inv F
 -0.214286 -0.071429  0.000000    0.00510204  11 t-inv F
 -0.285714  0.214286  0.000000    0.00510204  11 t-inv F
  0.285714 -0.214286  0.000000    0.00510204  11 t-inv F
  0.071429 -0.285714  0.000000    0.00510204  11 t-inv F
 -0.071429  0.285714  0.000000    0.00510204  11 t-inv F
  0.214286 -0.285714  0.000000    0.00510204  11 t-inv F
 -0.214286  0.285714  0.000000    0.00510204  11 t-inv F
 -0.285714  0.071429  0.000000    0.00510204  11 t-inv F
  0.285714 -0.071429  0.000000    0.00510204  11 t-inv F
  0.071429  0.214286  0.000000    0.00510204  11 t-inv F
 -0.071429 -0.214286  0.000000    0.00510204  11 t-inv F
 -0.285714 -0.071429  0.000000    0.00510204  12 t-inv F
 -0.357143  0.285714  0.000000    0.00510204  12 t-inv F
  0.357143 -0.285714  0.000000    0.00510204  12 t-inv F
  0.071429 -0.357143  0.000000    0.00510204  12 t-inv F
 -0.071429  0.357143  0.000000    0.00510204  12 t-inv F
  0.285714 -0.357143  0.000000    0.00510204  12 t-inv F
 -0.285714  0.357143  0.000000    0.00510204  12 t-inv F
 -0.357143  0.071429  0.000000    0.00510204  12 t-inv F
  0.357143 -0.071429  0.000000    0.00510204  12 t-inv F
  0.071429  0.285714  0.000000    0.00510204  12 t-inv F
 -0.071429 -0.285714  0.000000    0.00510204  12 t-inv F
 -0.357143 -0.071429  0.000000    0.00510204  13 t-inv F
 -0.428571  0.357143  0.000000    0.00510204  13 t-inv F
  0.428571 -0.357143  0.000000    0.00510204  13 t-inv F
  0.071429 -0.428571  0.000000    0.00510204  13 t-inv F
 -0.071429  0.428571  0.000000    0.00510204  13 t-inv F
  0.357143 -0.428571  0.000000    0.00510204  13 t-inv F
 -0.357143  0.428571  0.000000    0.00510204  13 t-inv F
 -0.428571  0.071429  0.000000    0.00510204  13 t-inv F
  0.428571 -0.071429  0.000000    0.00510204  13 t-inv F
  0.071429  0.357143  0.000000    0.00510204  13 t-inv F
 -0.071429 -0.357143  0.000000    0.00510204  13 t-inv F
 -0.428571 -0.071429  0.000000    0.00510204  14 t-inv F
 -0.500000  0.428571  0.000000    0.00510204  14 t-inv F
  0.500000 -0.428571  0.000000    0.00510204  14 t-inv F
  0.071429 -0.500000  0.000000    0.00510204  14 t-inv F
 -0.071429  0.500000  0.000000    0.00510204  14 t-inv F
  0.428571 -0.500000  0.000000    0.00510204  14 t-inv F
 -0.428571  0.500000  0.000000    0.00510204  14 t-inv F
 -0.500000  0.071429  0.000000    0.00510204  14 t-inv F
  0.500000 -0.071429  0.000000    0.00510204  14 t-inv F
  0.071429  0.428571  0.000000    0.00510204  14 t-inv F
 -0.071429 -0.428571  0.000000    0.00510204  14 t-inv F
 -0.142857 -0.142857  0.000000    0.00510204  15 t-inv F
 -0.285714  0.142857  0.000000    0.00510204  15 t-inv F
  0.285714 -0.142857  0.000000    0.00510204  15 t-inv F
  0.142857 -0.285714  0.000000    0.00510204  15 t-inv F
 -0.142857  0.285714  0.000000    0.00510204  15 t-inv F
 -0.214286 -0.142857  0.000000    0.00510204  16 t-inv F
 -0.357143  0.214286  0.000000    0.00510204  16 t-inv F
  0.357143 -0.214286  0.000000    0.00510204  16 t-inv F
  0.142857 -0.357143  0.000000    0.00510204  16 t-inv F
 -0.142857  0.357143  0.000000    0.00510204  16 t-inv F
  0.214286 -0.357143  0.000000    0.00510204  16 t-inv F
 -0.214286  0.357143  0.000000    0.00510204  16 t-inv F
 -0.357143  0.142857  0.000000    0.00510204  16 t-inv F
  0.357143 -0.142857  0.000000    0.00510204  16 t-inv F
  0.142857  0.214286  0.000000    0.00510204  16 t-inv F
 -0.142857 -0.214286  0.000000    0.00510204  16 t-inv F
 -0.285714 -0.142857  0.000000    0.00510204  17 t-inv F
 -0.428571  0.285714  0.000000    0.00510204  17 t-inv F
  0.428571 -0.285714  0.000000    0.00510204  17 t-inv F
  0.142857 -0.428571  0.000000    0.00510204  17 t-inv F
 -0.142857  0.428571  0.000000    0.00510204  17 t-inv F
  0.285714 -0.428571  0.000000    0.00510204  17 t-inv F
 -0.285714  0.428571  0.000000    0.00510204  17 t-inv F
 -0.428571  0.142857  0.000000    0.00510204  17 t-inv F
  0.428571 -0.142857  0.000000    0.00510204  17 t-inv F
  0.142857  0.285714  0.000000    0.00510204  17 t-inv F
 -0.142857 -0.285714  0.000000    0.00510204  17 t-inv F
 -0.357143 -0.142857  0.000000    0.00510204  18 t-inv F
 -0.500000  0.357143  0.000000    0.00510204  18 t-inv F
  0.500000 -0.357143  0.000000    0.00510204  18 t-inv F
  0.142857 -0.500000  0.000000    0.00510204  18 t-inv F
 -0.142857  0.500000  0.000000    0.00510204  18 t-inv F
  0.357143 -0.500000  0.000000    0.00510204  18 t-inv F
 -0.357143  0.500000  0.000000    0.00510204  18 t-inv F
 -0.500000  0.142857  0.000000    0.00510204  18 t-inv F
  0.500000 -0.142857  0.000000    0.00510204  18 t-inv F
  0.142857  0.357143  0.000000    0.00510204  18 t-inv F
 -0.142857 -0.357143  0.000000    0.00510204  18 t-inv F
 -0.428571 -0.142857  0.000000    0.00510204  19 t-inv F
 -0.571429  0.428571  0.000000    0.00510204  19 t-inv F
  0.571429 -0.428571  0.000000    0.00510204  19 t-inv F
  0.142857 -0.571429  0.000000    0.00510204  19 t-inv F
 -0.142857  0.571429  0.000000    0.00510204  19 t-inv F
 -0.214286 -0.214286  0.000000    0.00510204  20 t-inv F
 -0.428571  0.214286  0.000000    0.00510204  20 t-inv F
  0.428571 -0.214286  0.000000    0.00510204  20 t-inv F
  0.214286 -0.428571  0.000000    0.00510204  20 t-inv F
 -0.214286  0.428571  0.000000    0.00510204  20 t-inv F
 -0.285714 -0.214286  0.000000    0.00510204  21 t-inv F
 -0.500000  0.285714  0.000000    0.00510204  21 t-inv F
  0.500000 -0.285714  0.000000    0.00510204  21 t-inv F
  0.214286 -0.500000  0.000000    0.00510204  21 t-inv F
 -0.214286  0.500000  0.000000    0.00510204  21 t-inv F
  0.285714 -0.500000  0.000000    0.00510204  21 t-inv F
 -0.285714  0.500000  0.000000    0.00510204  21 t-inv F
 -0.500000  0.214286  0.000000    0.00510204  21 t-inv F
  0.500000 -0.214286  0.000000    0.00510204  21 t-inv F
  0.214286  0.285714  0.000000    0.00510204  21 t-inv F
 -0.214286 -0.285714  0.000000    0.00510204  21 t-inv F
 -0.357143 -0.214286  0.000000    0.00510204  22 t-inv F
 -0.571429  0.357143  0.000000    0.00510204  22 t-inv F
  0.571429 -0.357143  0.000000    0.00510204  22 t-inv F
  0.214286 -0.571429  0.000000    0.00510204  22 t-inv F
 -0.214286  0.571429  0.000000    0.00510204  22 t-inv F
  0.357143 -0.571429  0.000000    0.00510204  22 t-inv F
 -0.357143  0.571429  0.000000    0.00510204  22 t-inv F
 -0.571429  0.214286  0.000000    0.00510204  22 t-inv F
  0.571429 -0.214286  0.000000    0.00510204  22 t-inv F
  0.214286  0.357143  0.000000    0.00510204  22 t-inv F
 -0.214286 -0.357143  0.000000    0.00510204  22 t-inv F
 -0.285714 -0.285714  0.000000    0.00510204  23 t-inv F
 -0.571429  0.285714  0.000000    0.00510204  23 t-inv F
  0.571429 -0.285714  0.000000    0.00510204  23 t-inv F
  0.285714 -0.571429  0.000000    0.00510204  23 t-inv F
 -0.285714  0.571429  0.000000    0.00510204  23 t-inv F
 -0.357143 -0.285714  0.000000    0.00510204  24 t-inv F
 -0.642857  0.357143  0.000000    0.00510204  24 t-inv F
  0.642857 -0.357143  0.000000    0.00510204  24 t-inv F
  0.285714 -0.642857  0.000000    0.00510204  24 t-inv F
 -0.285714  0.642857  0.000000    0.00510204  24 t-inv F


--------------------------------------------------------------------------------------------------------




 Dimension of arrays:
   k-points           NKPTS =     24   k-points in BZ     NKDIM =     24   number of bands    NBANDS=     16
   number of dos      NEDOS =   6001   number of ions     NIONS =      2
   non local maximal  LDIM  =      6   non local SUM 2l+1 LMDIM =     18
   total plane-waves  NPLWV =  29160
   max r-space proj   IRMAX =      1   max aug-charges    IRDMAX=  57812
   dimension x,y,z NGX =    18 NGY =   18 NGZ =   90
   dimension x,y,z NGXF=    36 NGYF=   36 NGZF=  180
   support grid    NGXF=    72 NGYF=   72 NGZF=  360
   ions per type =               2
   NGX,Y,Z   is equivalent  to a cutoff of   9.12,  9.12,  9.35 a.u.
   NGXF,Y,Z  is equivalent  to a cutoff of  18.23, 18.23, 18.70 a.u.

 SYSTEM =  unknown system                          
 POSCAR =  pnictogen honeycomb monolayer           

 Startparameter for this run:
   NWRITE =      3    write-flag & timer
   PREC   = accura    normal or accurate (medium, high low for compatibility)
   ISTART =      0    job   : 0-new  1-cont  2-samecut
   ICHARG =      2    charge: 1-file 2-atom 10-const
   ISPIN  =      1    spin polarized calculation?
   LNONCOLLINEAR =      F non collinear calculations
   LSORBIT =      F    spin-orbit coupling
   INIWAV =      1    electr: 0-lowe 1-rand  2-diag
   LASPH  =      T    aspherical Exc in radial PAW
 Electronic Relaxation 1
   ENCUT  =  286.9 eV  21.09 Ry    4.59 a.u.   4.53  4.53 22.10*2*pi/ulx,y,z
   ENINI  =  286.9     initial cutoff
   ENAUG  =  499.7 eV  augmentation charge cutoff
   NELM   =    200;   NELMIN=  6; NELMDL=-12     # of ELM steps 
   EDIFF  = 0.1E-05   stopping-criterion for ELM
   LREAL  =      F    real-space projection
   NLSPLINE    = F    spline interpolate recip. space projectors
   LCOMPAT=      F    compatible to vasp.4.4
   GGA_COMPAT  = T    GGA compatible to vasp.4.4-vasp.4.6
   LMAXPAW     = -100 max onsite density
   LMAXMIX     =    2 max onsite mixed and CHGCAR
   VOSKOWN=      0    Vosko Wilk Nusair interpolation
   ROPT   =    0.00000
 Ionic relaxation
   EDIFFG = -.1E-01   stopping-criterion for IOM
   NSW    =      1    number of steps for IOM
   NBLOCK =      1;   KBLOCK =      1    inner block; outer block 
   IBRION =      8    ionic relax: 0-MD 1-quasi-New 2-CG
   NFREE  =      0    steps in history (QN), initial steepest desc. (CG)
   ISIF   =      2    stress and relaxation
   IWAVPR =     11    prediction:  0-non 1-charg 2-wave 3-comb
   ISYM   =      2    0-nonsym 1-usesym 2-fastsym
   LCORR  =      T    Harris-Foulkes like correction to forces

   POTIM  = 0.0100    time-step for ionic-motion
   TEIN   =    0.0    initial temperature
   TEBEG  =    0.0;   TEEND  =   0.0 temperature during run
   SMASS  =  -3.00    Nose mass-parameter (am)
   estimated Nose-frequenzy (Omega)   =  0.10E-29 period in steps = 0.63E+48 mass=  -0.246E-27a.u.
   SCALEE = 1.0000    scale energy and forces
   NPACO  =    256;   APACO  = 10.0  distance and # of slots for P.C.
   PSTRESS=    0.0 pullay stress

  Mass of Ions in am
   POMASS =  30.97
  Ionic Valenz
   ZVAL   =   5.00
  Atomic Wigner-Seitz radii
   RWIGS  =  -1.00
  virtual crystal weights 
   VCA    =   1.00
   NELECT =      10.0000    total number of electrons
   NUPDOWN=      -1.0000    fix difference up-down

 DOS related values:
   EMIN   =  10.00;   EMAX   =-10.00  energy-range for DOS
   EFERMI =   0.00;   METHOD = LEGACY      
   ISMEAR =     0;   SIGMA  =   0.01  broadening in eV -4-tet -1-fermi 0-gaus

 Electronic relaxation 2 (details)
   IALGO  =     38    algorithm
   LDIAG  =      T    sub-space diagonalisation (order eigenvalues)
   LSUBROT=      F    optimize rotation matrix (better conditioning)
   TURBO    =      0    0=normal 1=particle mesh
   IRESTART =      0    0=no restart 2=restart with 2 vectors
   NREBOOT  =      0    no. of reboots
   NMIN     =      0    reboot dimension
   EREF     =   0.00    reference energy to select bands
   IMIX   =      4    mixing-type and parameters
     AMIX     =   0.10;   BMIX     =  0.00
     AMIX_MAG =   0.40;   BMIX_MAG =  0.00
     AMIN     =   0.10
     WC   =   100.;   INIMIX=   1;  MIXPRE=   1;  MAXMIX= -45

 Intra band minimization:
   WEIMIN = 0.0010     energy-eigenvalue tresh-hold
   EBREAK =  0.16E-07  absolut break condition
   DEPER  =   0.30     relativ break condition  

   TIME   =   0.40     timestep for ELM

  volume/ion in A,a.u.               =      74.64       503.72
  Fermi-wavevector in a.u.,A,eV,Ry     =   0.664868  1.256418  6.014444  0.442049
  Thomas-Fermi vector in A             =   1.738688
 
 Write flags
   LWAVE        =      F    write WAVECAR
   LDOWNSAMPLE  =      F    k-point downsampling of WAVECAR
   LCHARG       =      F    write CHGCAR
   LVTOT        =      F    write LOCPOT, total local potential
   LVHAR        =      F    write LOCPOT, Hartree potential only
   LELF         =      F    write electronic localiz. function (ELF)
   LORBIT       =     10    0 simple, 1 ext, 2 COOP (PROOUT), +10 PAW based schemes


 Dipole corrections
   LMONO  =      F    monopole corrections only (constant potential shift)
   LDIPOL =      F    correct potential (dipole corrections)
   IDIPOL =      0    1-x, 2-y, 3-z, 4-all directions 
   EPSILON=  1.0000000 bulk dielectric constant

 Exchange correlation treatment:
   GGA     =    --    GGA type
   LEXCH   =     8    internal setting for exchange type
   LIBXC   =     F    Libxc                    
   VOSKOWN =     0    Vosko Wilk Nusair interpolation
   LHFCALC =     F    Hartree Fock is set to
   LHFONE  =     F    Hartree Fock one center treatment
   AEXX    =    0.0000 exact exchange contribution

 Linear response parameters
   LEPSILON=     F    determine dielectric tensor
   LRPA    =     F    only Hartree local field effects (RPA)
   LNABLA  =     F    use nabla operator in PAW spheres
   LVEL    =     F    velocity operator in full k-point grid
   CSHIFT  =0.1000    complex shift for real part using Kramers Kronig
   OMEGAMAX=  -1.0    maximum frequency
   DEG_THRESHOLD= 0.2000000E-02 threshold for treating states as degnerate
   RTIME   =   -0.100 relaxation time in fs
  (WPLASMAI=    0.000 imaginary part of plasma frequency in eV, 0.658/RTIME)
   DFIELD  = 0.0000000 0.0000000 0.0000000 field for delta impulse in time
 
  Optional k-point grid parameters
   LKPOINTS_OPT  =     F    use optional k-point grid
   KPOINTS_OPT_MODE=     1    mode for optional k-point grid
 
 Orbital magnetization related:
   ORBITALMAG=     F  switch on orbital magnetization
   LCHIMAG   =     F  perturbation theory with respect to B field
   DQ        =  0.001000  dq finite difference perturbation B field
   LLRAUG    =     F  two centre corrections for induced B field
   LBONE     =     F  B-component reconstruction in AE one-centre
   LVGVCALC  =     T  calculate vGv susceptibility
   LVGVAPPL  =     F  apply vGv susceptibility instead of pGv for G=0

 Random number generation:
   RANDOM_GENERATOR = DEFAULT
   PCG_SEED         = not used


--------------------------------------------------------------------------------------------------------


 linear response using symmetry
 charge density and potential will be updated during run
 non-spin polarized calculation
 Variant of blocked Davidson
 Davidson routine will perform the subspace rotation
 perform sub-space diagonalisation
    after iterative eigenvector-optimisation
 modified Broyden-mixing scheme, WC =      100.0
 initial mixing is a Kerker type mixing with AMIX =  0.1000 and BMIX =      0.0001
 Hartree-type preconditioning will be used
 using additional bands           11
 reciprocal scheme for non local part
 use partial core corrections
 calculate Harris-corrections to forces 
   (improved forces if not selfconsistent)
 use gradient corrections 
 use of overlap-Matrix (Vanderbilt PP)
 Gauss-broadening in eV      SIGMA  =   0.01


--------------------------------------------------------------------------------------------------------


  energy-cutoff  :      286.92
  volume of cell :      149.29
      direct lattice vectors                 reciprocal lattice vectors
     3.282343494  0.000000000  0.000000000     0.304660375  0.175895750  0.000000000
    -1.641171747  2.842592850  0.000000000     0.000000000  0.351791499  0.000000000
     0.000000000  0.000000000 16.000000000     0.000000000  0.000000000  0.062500000

  length of vectors
     3.282343494  3.282343494 16.000000000     0.351791499  0.351791499  0.062500000


 
 k-points in units of 2pi/SCALE and weight: kpoints                                 
   0.00000000  0.00000000  0.00000000       0.005
   0.02176146  0.01256398  0.00000000       0.031
   0.04352291  0.02512796  0.00000000       0.031
   0.06528437  0.03769195  0.00000000       0.031
   0.08704582  0.05025593  0.00000000       0.031
   0.10880728  0.06281991  0.00000000       0.031
   0.13056873  0.07538389  0.00000000       0.031
   0.15233019  0.08794787  0.00000000       0.015
   0.02176146  0.03769195  0.00000000       0.031
   0.04352291  0.05025593  0.00000000       0.061
   0.06528437  0.06281991  0.00000000       0.061
   0.08704582  0.07538389  0.00000000       0.061
   0.10880728  0.08794787  0.00000000       0.061
   0.13056873  0.10051186  0.00000000       0.061
   0.04352291  0.07538389  0.00000000       0.031
   0.06528437  0.08794787  0.00000000       0.061
   0.08704582  0.10051186  0.00000000       0.061
   0.10880728  0.11307584  0.00000000       0.061
   0.13056873  0.12563982  0.00000000       0.031
   0.06528437  0.11307584  0.00000000       0.031
   0.08704582  0.12563982  0.00000000       0.061
   0.10880728  0.13820380  0.00000000       0.061
   0.08704582  0.15076779  0.00000000       0.031
   0.10880728  0.16333177  0.00000000       0.031
 
 k-points in reciprocal lattice and weights: kpoints                                 
   0.00000000  0.00000000  0.00000000       0.005
   0.07142857  0.00000000  0.00000000       0.031
   0.14285714  0.00000000  0.00000000       0.031
   0.21428571 -0.00000000  0.00000000       0.031
   0.28571429  0.00000000  0.00000000       0.031
   0.35714286  0.00000000  0.00000000       0.031
   0.42857143 -0.00000000  0.00000000       0.031
   0.50000000 -0.00000000  0.00000000       0.015
   0.07142857  0.07142857  0.00000000       0.031
   0.14285714  0.07142857  0.00000000       0.061
   0.21428571  0.07142857  0.00000000       0.061
   0.28571429  0.07142857  0.00000000       0.061
   0.35714286  0.07142857  0.00000000       0.061
   0.42857143  0.07142857  0.00000000       0.061
   0.14285714  0.14285714  0.00000000       0.031
   0.21428571  0.14285714  0.00000000       0.061
   0.28571429  0.14285714  0.00000000       0.061
   0.35714286  0.14285714  0.00000000       0.061
   0.42857143  0.14285714  0.00000000       0.031
   0.21428571  0.21428571  0.00000000       0.031
   0.28571429  0.21428571  0.00000000       0.061
   0.35714286  0.21428571  0.00000000       0.061
   0.28571429  0.28571429  0.00000000       0.031
   0.35714286  0.28571429  0.00000000       0.031
 
 position of ions in fractional coordinates (direct lattice) 
   0.66666667  0.33333333  0.46118284
   0.33333333  0.66666667  0.53881716
 
 position of ions in cartesian coordinates  (Angst):
   1.64117175  0.94753095  7.37892542
   0.00000000  1.89506190  8.62107458
 


--------------------------------------------------------------------------------------------------------


 k-point   1 :   0.0000 0.0000 0.0000  plane waves:    1671
 k-point   2 :   0.0714 0.0000 0.0000  plane waves:    1663
 k-point   3 :   0.1429 0.0000 0.0000  plane waves:    1666
 k-point   4 :   0.2143-0.0000 0.0000  plane waves:    1684
 k-point   5 :   0.2857 0.0000 0.0000  plane waves:    1668
 k-point   6 :   0.3571 0.0000 0.0000  plane waves:    1650
 k-point   7 :   0.4286-0.0000 0.0000  plane waves:    1628
 k-point   8 :   0.5000-0.0000 0.0000  plane waves:    1636
 k-point   9 :   0.0714 0.0714 0.0000  plane waves:    1669
 k-point  10 :   0.1429 0.0714 0.0000  plane waves:    1677
 k-point  11 :   0.2143 0.0714 0.0000  plane waves:    1667
 k-point  12 :   0.2857 0.0714 0.0000  plane waves:    1651
 k-point  13 :   0.3571 0.0714 0.0000  plane waves:    1637
 k-point  14 :   0.4286 0.0714 0.0000  plane waves:    1630
 k-point  15 :   0.1429 0.1429 0.0000  plane waves:    1665
 k-point  16 :   0.2143 0.1429 0.0000  plane waves:    1655
 k-point  17 :   0.2857 0.1429 0.0000  plane waves:    1640
 k-point  18 :   0.3571 0.1429 0.0000  plane waves:    1634
 k-point  19 :   0.4286 0.1429 0.0000  plane waves:    1636
 k-point  20 :   0.2143 0.2143 0.0000  plane waves:    1635
 k-point  21 :   0.2857 0.2143 0.0000  plane waves:    1629
 k-point  22 :   0.3571 0.2143 0.0000  plane waves:    1628
 k-point  23 :   0.2857 0.2857 0.0000  plane waves:    1628
 k-point  24 :   0.3571 0.2857 0.0000  plane waves:    1626

 maximum and minimum number of plane-waves per node :      1684     1626

 maximum number of plane-waves:      1684
 maximum index in each direction: 
   IXMAX=    4   IYMAX=    4   IZMAX=   22
   IXMIN=   -5   IYMIN=   -4   IZMIN=  -22


 serial   3D FFT for wavefunctions
 parallel 3D FFT for charge:
    minimum data exchange during FFTs selected (reduces bandwidth)


 total amount of memory used by VASP MPI-rank0    41216. kBytes
=======================================================================

   base      :      30000. kBytes
   nonl-proj :       5915. kBytes
   fftplans  :       2490. kBytes
   grid      :       2111. kBytes
   one-center:         31. kBytes
   wavefun   :        669. kBytes
 
     INWAV:  cpu time      0.0000: real time      0.0000
 Broyden mixing: mesh for mixing (old mesh)
   NGX =  9   NGY =  9   NGZ = 45
  (NGX  = 36   NGY  = 36   NGZ  =180)
  gives a total of   3645 points

 initial charge density was supplied:
 charge density of overlapping atoms calculated
 number of electron      10.0000000 magnetization 
 keeping initial charge density in first step


--------------------------------------------------------------------------------------------------------


 Maximum index for augmentation-charges         3859 (set IRDMAX)


--------------------------------------------------------------------------------------------------------


 First call to EWALD:  gamma=   0.334
 Maximum number of real-space cells 5x 5x 1
 Maximum number of reciprocal cells 2x 2x 7

    FEWALD:  cpu time      0.0014: real time      0.0014


--------------------------------------- Ionic step        1  -------------------------------------------




--------------------------------------- Iteration      1(   1)  ---------------------------------------


    POTLOK:  cpu time      0.0101: real time      0.0149
    SETDIJ:  cpu time      0.1445: real time      0.1465
     EDDAV:  cpu time      0.1308: real time      0.1399
       DOS:  cpu time      0.0010: real time      0.0040
    --------------------------------------------
      LOOP:  cpu time      0.2864: real time      0.3053

 eigenvalue-minimisations  :   768
 total energy-change (2. order) : 0.2510090E+02  (-0.2891012E+03)
 number of electron      10.0000000 magnetization 
 augmentation part       10.0000000 magnetization 

 Free energy of the ion-electron system (eV)
  ---------------------------------------------------
  alpha Z        PSCENC =         3.71007814
  Ewald energy   TEWEN  =       534.42243236
  -Hartree energ DENC   =      -833.34816100
  -exchange      EXHF   =         0.00000000
  -V(xc)+E(xc)   XCENC  =        -7.57089016
  PAW double counting   =       293.95507915     -263.19716017
  entropy T*S    EENTRO =        -0.00000007
  eigenvalues    EBANDS =       -54.94615435
  atomic energy  EATOM  =       352.07568098
  Solvation  Ediel_sol  =         0.00000000
  ---------------------------------------------------
  free energy    TOTEN  =        25.10090488 eV

  energy without entropy =       25.10090496  energy(sigma->0) =       25.10090492


--------------------------------------------------------------------------------------------------------




 average (electrostatic) potential at core
  the test charge radii are     1.0220
  (the norm of the test charge is              1.0000)
       1 -83.2019       2 -83.2019
 
 
 
 E-fermi :   2.8428     XC(G=0):  -3.3734     alpha+bet : -2.8518

 Fermi energy:         2.8427607540

 k-point     1 :       0.0000    0.0000    0.0000
  band No.  band energies     occupation 
      1     -16.7246      2.00000
      2      -9.0921      2.00000
      3      -1.5473      2.00000
      4       2.3228      2.00000
      5       2.6190      2.00000
      6       3.0390      0.00000
      7       4.2231      0.00000
      8       5.0804      0.00000
      9       5.6501      0.00000
     10       7.3744      0.00000
     11       8.3912      0.00000
     12       9.0797      0.00000
     13      11.2679      0.00000
     14      13.0317      0.00000
     15      16.5654      0.00000
     16      18.0613      0.00000

 k-point     2 :       0.0714    0.0000    0.0000
  band No.  band energies     occupation 
      1     -17.1231      2.00000
      2      -9.0082      2.00000
      3      -2.8186      2.00000
      4       1.6695      2.00000
      5       2.3468      2.00000
      6       2.9304      0.00000
      7       4.3624      0.00000
      8       4.8908      0.00000
      9       5.6185      0.00000
     10       7.4065      0.00000
     11       8.8006      0.00000
     12      10.0497      0.00000
     13      12.7411      0.00000
     14      14.2304      0.00000
     15      15.4945      0.00000
     16      16.5579      0.00000

 k-point     3 :       0.1429    0.0000    0.0000
  band No.  band energies     occupation 
      1     -16.9814      2.00000
      2      -8.4234      2.00000
      3      -3.3803      2.00000
      4      -1.1886      2.00000
      5       0.2820      2.00000
      6       2.8719      0.00004
      7       3.1935      0.00000
      8       4.8340      0.00000
      9       5.5289      0.00000
     10       6.1994      0.00000
     11       9.3639      0.00000
     12      10.8665      0.00000
     13      11.7757      0.00000
     14      13.4324      0.00000
     15      14.3547      0.00000
     16      16.1455      0.00000

 k-point     4 :       0.2143   -0.0000    0.0000
  band No.  band energies     occupation 
      1     -16.4449      2.00000
      2      -7.7507      2.00000
      3      -3.6350      2.00000
      4      -1.1521      2.00000
      5       0.4052      2.00000
      6       3.4480      0.00000
      7       3.9201      0.00000
      8       5.5199      0.00000
      9       6.3711      0.00000
     10       7.5671      0.00000
     11       9.3334      0.00000
     12      10.7225      0.00000
     13      11.4502      0.00000
     14      14.1459      0.00000
     15      14.9959      0.00000
     16      15.6012      0.00000

 k-point     5 :       0.2857    0.0000    0.0000
  band No.  band energies     occupation 
      1     -15.5292      2.00000
      2      -7.4421      2.00000
      3      -4.3778      2.00000
      4       0.3289      2.00000
      5       1.9894      2.00000
      6       3.7915      0.00000
      7       4.2958      0.00000
      8       4.6876      0.00000
      9       6.2824      0.00000
     10       7.5843      0.00000
     11       9.9066      0.00000
     12      11.3369      0.00000
     13      12.8943      0.00000
     14      14.5252      0.00000
     15      15.0563      0.00000
     16      16.3780      0.00000

 k-point     6 :       0.3571    0.0000    0.0000
  band No.  band energies     occupation 
      1     -14.4383      2.00000
      2      -8.2230      2.00000
      3      -5.6144      2.00000
      4      -0.9776      2.00000
      5       2.0159      2.00000
      6       4.2085      0.00000
      7       5.1528      0.00000
      8       5.6303      0.00000
      9       7.1045      0.00000
     10       7.9591      0.00000
     11       9.5690      0.00000
     12      11.4379      0.00000
     13      11.9981      0.00000
     14      13.9071      0.00000
     15      14.6914      0.00000
     16      16.4408      0.00000

 k-point     7 :       0.4286   -0.0000    0.0000
  band No.  band energies     occupation 
      1     -13.7019      2.00000
      2      -9.4424      2.00000
      3      -4.2407      2.00000
      4      -1.8855      2.00000
      5       0.9372      2.00000
      6       4.8671      0.00000
      7       6.0844      0.00000
      8       6.4234      0.00000
      9       7.4553      0.00000
     10       7.9286      0.00000
     11       9.2937      0.00000
     12       9.6255      0.00000
     13      11.5478      0.00000
     14      13.2799      0.00000
     15      15.6449      0.00000
     16      17.1855      0.00000

 k-point     8 :       0.5000   -0.0000    0.0000
  band No.  band energies     occupation 
      1     -12.9224      2.00000
      2     -11.1693      2.00000
      3      -3.7510      2.00000
      4      -2.6370      2.00000
      5      -1.0478      2.00000
      6       4.5639      0.00000
      7       6.8630      0.00000
      8       7.3020      0.00000
      9       7.8223      0.00000
     10       8.8731      0.00000
     11      10.1527      0.00000
     12      10.6289      0.00000
     13      11.4685      0.00000
     14      12.8541      0.00000
     15      14.0850      0.00000
     16      14.8309      0.00000

 k-point     9 :       0.0714    0.0714    0.0000
  band No.  band energies     occupation 
      1     -16.6258      2.00000
      2      -8.5543      2.00000
      3      -1.5588      2.00000
      4      -1.0044      2.00000
      5       2.6355      2.00000
      6       3.0235      0.00000
      7       4.2479      0.00000
      8       4.9590      0.00000
      9       5.2233      0.00000
     10       8.0236      0.00000
     11       8.6199      0.00000
     12       9.7034      0.00000
     13      11.4001      0.00000
     14      13.9070      0.00000
     15      14.8623      0.00000
     16      17.4679      0.00000

 k-point    10 :       0.1429    0.0714    0.0000
  band No.  band energies     occupation 
      1     -16.4601      2.00000
      2      -8.5148      2.00000
      3      -3.3111      2.00000
      4      -1.1234      2.00000
      5       2.8004      2.00000
      6       3.2705      0.00000
      7       4.5522      0.00000
      8       5.3115      0.00000
      9       5.7858      0.00000
     10       7.6024      0.00000
     11       8.8206      0.00000
     12       9.8463      0.00000
     13      10.8444      0.00000
     14      12.1794      0.00000
     15      14.0401      0.00000
     16      15.7121      0.00000

 k-point    11 :       0.2143    0.0714    0.0000
  band No.  band energies     occupation 
      1     -15.9874      2.00000
      2      -8.0096      2.00000
      3      -6.1514      2.00000
      4      -0.8502      2.00000
      5       2.1828      2.00000
      6       3.5819      0.00000
      7       3.9033      0.00000
      8       5.3353      0.00000
      9       6.2074      0.00000
     10       6.6379      0.00000
     11       9.1551      0.00000
     12      10.2046      0.00000
     13      11.8481      0.00000
     14      12.4871      0.00000
     15      14.5661      0.00000
     16      15.1221      0.00000

 k-point    12 :       0.2857    0.0714    0.0000
  band No.  band energies     occupation 
      1     -14.6356      2.00000
      2      -8.4644      2.00000
      3      -6.3221      2.00000
      4       0.3585      2.00000
      5       2.2511      2.00000
      6       3.3954      0.00000
      7       4.7394      0.00000
      8       4.8761      0.00000
      9       5.5820      0.00000
     10       7.1482      0.00000
     11       7.9371      0.00000
     12       9.2757      0.00000
     13      11.2777      0.00000
     14      12.3514      0.00000
     15      13.5400      0.00000
     16      15.4757      0.00000

 k-point    13 :       0.3571    0.0714    0.0000
  band No.  band energies     occupation 
      1     -13.3069      2.00000
      2      -8.4319      2.00000
      3      -5.3190      2.00000
      4      -0.1480      2.00000
      5       1.0968      2.00000
      6       5.7383      0.00000
      7       6.3051      0.00000
      8       7.0287      0.00000
      9       7.9250      0.00000
     10       9.6282      0.00000
     11      10.0953      0.00000
     12      10.5861      0.00000
     13      11.6157      0.00000
     14      12.5670      0.00000
     15      13.7984      0.00000
     16      15.0004      0.00000

 k-point    14 :       0.4286    0.0714    0.0000
  band No.  band energies     occupation 
      1     -12.7381      2.00000
      2     -10.2278      2.00000
      3      -2.6626      2.00000
      4      -0.7965      2.00000
      5       2.8125      1.99998
      6       4.5356      0.00000
      7       6.4872      0.00000
      8       7.1022      0.00000
      9       7.8519      0.00000
     10       8.3472      0.00000
     11       9.0978      0.00000
     12       9.9642      0.00000
     13      10.7988      0.00000
     14      13.9939      0.00000
     15      14.5083      0.00000
     16      15.2882      0.00000

 k-point    15 :       0.1429    0.1429    0.0000
  band No.  band energies     occupation 
      1     -15.9357      2.00000
      2      -7.8767      2.00000
      3      -2.3149      2.00000
      4      -0.1510      2.00000
      5       1.5871      2.00000
      6       3.8420      0.00000
      7       4.0611      0.00000
      8       4.8281      0.00000
      9       6.1783      0.00000
     10       7.1157      0.00000
     11       8.5286      0.00000
     12      10.9411      0.00000
     13      12.7291      0.00000
     14      13.4287      0.00000
     15      14.3860      0.00000
     16      15.5944      0.00000

 k-point    16 :       0.2143    0.1429    0.0000
  band No.  band energies     occupation 
      1     -15.3339      2.00000
      2      -7.2229      2.00000
      3      -6.4805      2.00000
      4      -1.9629      2.00000
      5       0.5579      2.00000
      6       4.2575      0.00000
      7       4.7537      0.00000
      8       6.2041      0.00000
      9       6.9751      0.00000
     10       7.4001      0.00000
     11       8.4740      0.00000
     12       9.9747      0.00000
     13      11.9108      0.00000
     14      12.5543      0.00000
     15      14.4371      0.00000
     16      15.6728      0.00000

 k-point    17 :       0.2857    0.1429    0.0000
  band No.  band energies     occupation 
      1     -14.2588      2.00000
      2      -8.1178      2.00000
      3      -5.4307      2.00000
      4      -1.0565      2.00000
      5       1.2773      2.00000
      6       4.8680      0.00000
      7       5.2487      0.00000
      8       6.5341      0.00000
      9       8.0209      0.00000
     10       8.6337      0.00000
     11      10.2747      0.00000
     12      10.4061      0.00000
     13      11.5441      0.00000
     14      12.3490      0.00000
     15      14.2680      0.00000
     16      14.8406      0.00000

 k-point    18 :       0.3571    0.1429    0.0000
  band No.  band energies     occupation 
      1     -13.4441      2.00000
      2     -10.1416      2.00000
      3      -4.9914      2.00000
      4      -3.2827      2.00000
      5       0.1101      2.00000
      6       4.7980      0.00000
      7       5.7233      0.00000
      8       6.8268      0.00000
      9       7.4411      0.00000
     10       8.9496      0.00000
     11      10.0126      0.00000
     12      11.1783      0.00000
     13      11.7173      0.00000
     14      13.2079      0.00000
     15      13.9937      0.00000
     16      15.0499      0.00000

 k-point    19 :       0.4286    0.1429    0.0000
  band No.  band energies     occupation 
      1     -12.2170      2.00000
      2     -10.1900      2.00000
      3      -3.4152      2.00000
      4      -1.1057      2.00000
      5       0.9277      2.00000
      6       5.4537      0.00000
      7       6.7888      0.00000
      8       7.6822      0.00000
      9       8.3832      0.00000
     10       8.7649      0.00000
     11       8.9555      0.00000
     12       9.5796      0.00000
     13      11.0081      0.00000
     14      12.1874      0.00000
     15      13.6425      0.00000
     16      15.3253      0.00000

 k-point    20 :       0.2143    0.2143    0.0000
  band No.  band energies     occupation 
      1     -14.2081      2.00000
      2      -8.2346      2.00000
      3      -5.7668      2.00000
      4      -3.3581      2.00000
      5       1.1084      2.00000
      6       4.6296      0.00000
      7       5.5156      0.00000
      8       5.7822      0.00000
      9       6.3945      0.00000
     10       8.6119      0.00000
     11      10.3200      0.00000
     12      11.6769      0.00000
     13      12.6692      0.00000
     14      13.2587      0.00000
     15      14.0370      0.00000
     16      15.3077      0.00000

 k-point    21 :       0.2857    0.2143    0.0000
  band No.  band energies     occupation 
      1     -12.2885      2.00000
      2      -8.3081      2.00000
      3      -4.6957      2.00000
      4      -3.9509      2.00000
      5       0.2792      2.00000
      6       6.0059      0.00000
      7       6.1016      0.00000
      8       6.9215      0.00000
      9       7.8482      0.00000
     10       8.8216      0.00000
     11      10.2069      0.00000
     12      11.1030      0.00000
     13      11.6008      0.00000
     14      12.9045      0.00000
     15      13.4963      0.00000
     16      14.6329      0.00000

 k-point    22 :       0.3571    0.2143    0.0000
  band No.  band energies     occupation 
      1     -11.4183      2.00000
      2      -9.0981      2.00000
      3      -3.6496      2.00000
      4      -1.2314      2.00000
      5      -0.4733      2.00000
      6       3.2171      0.00000
      7       7.0158      0.00000
      8       7.7399      0.00000
      9       8.3237      0.00000
     10       9.2368      0.00000
     11       9.9164      0.00000
     12      10.7981      0.00000
     13      11.7129      0.00000
     14      12.3935      0.00000
     15      13.3279      0.00000
     16      15.8538      0.00000

 k-point    23 :       0.2857    0.2857    0.0000
  band No.  band energies     occupation 
      1     -10.5821      2.00000
      2      -8.3757      2.00000
      3      -5.2062      2.00000
      4      -1.8975      2.00000
      5      -0.7477      2.00000
      6       5.3244      0.00000
      7       7.1706      0.00000
      8       7.9191      0.00000
      9       8.7290      0.00000
     10       9.0215      0.00000
     11      10.2718      0.00000
     12      10.4663      0.00000
     13      11.2641      0.00000
     14      11.8271      0.00000
     15      12.8623      0.00000
     16      15.0621      0.00000

 k-point    24 :       0.3571    0.2857    0.0000
  band No.  band energies     occupation 
      1     -10.9338      2.00000
      2      -9.4823      2.00000
      3      -6.3636      2.00000
      4      -1.2030      2.00000
      5       0.0453      2.00000
      6       4.4931      0.00000
      7       7.4870      0.00000
      8       8.6434      0.00000
      9       9.2180      0.00000
     10       9.9807      0.00000
     11      10.8301      0.00000
     12      11.2754      0.00000
     13      11.6925      0.00000
     14      12.7990      0.00000
     15      14.2757      0.00000
     16      14.6891      0.00000


--------------------------------------------------------------------------------------------------------


 soft charge-density along one line, spin component           1
         0         1         2         3         4         5         6         7         8         9
 total charge-density along one line
 
 pseudopotential strength for first ion, spin component:           1
 28.332 -61.934  -0.000   0.040   0.000   0.000  -0.060  -0.000
-61.934 120.579   0.000  -0.093  -0.000  -0.000   0.195   0.000
 -0.000   0.000   5.966  -0.000  -0.000  -8.524   0.000   0.000
  0.040  -0.093  -0.000   5.964  -0.000   0.000  -8.522   0.000
  0.000  -0.000  -0.000  -0.000   5.966   0.000   0.000  -8.524
  0.000  -0.000  -8.524   0.000   0.000  26.379  -0.000  -0.000
 -0.060   0.195   0.000  -8.522   0.000  -0.000  26.376  -0.000
 -0.000   0.000   0.000   0.000  -8.524  -0.000  -0.000  26.379
 -0.000   0.000   0.000  -0.000   0.002  -0.000  -0.000   0.001
 -0.000   0.000   0.009   0.000  -0.000   0.003   0.000  -0.000
 -0.002   0.003   0.000   0.008  -0.000   0.000   0.001  -0.000
 -0.000   0.000  -0.000  -0.000   0.009  -0.000  -0.000   0.003
  0.000  -0.000   0.002   0.000   0.000   0.001   0.000   0.000
 -0.000   0.000   0.000  -0.000   0.006  -0.000   0.000  -0.009
 -0.000   0.000   0.027   0.000  -0.000  -0.057  -0.000   0.000
 -0.003   0.001   0.000   0.020  -0.000  -0.000  -0.052   0.000
 -0.000   0.000  -0.000  -0.000   0.027   0.000   0.000  -0.057
  0.000  -0.000   0.006   0.000   0.000  -0.009  -0.000  -0.000
 total augmentation occupancy for first ion, spin component:           1
  2.000   0.000   0.000   0.000   0.000   0.000   0.000   0.000   0.000   0.000   0.000   0.000   0.000   0.000   0.000   0.000
  0.000   0.000   0.000   0.000   0.000   0.000   0.000   0.000   0.000   0.000   0.000   0.000   0.000   0.000   0.000   0.000
  0.000   0.000   1.000   0.000   0.000   0.000   0.000   0.000   0.000   0.000   0.000   0.000   0.000   0.000   0.000   0.000
  0.000   0.000   0.000   1.000   0.000   0.000   0.000   0.000   0.000   0.000   0.000   0.000   0.000   0.000   0.000   0.000
  0.000   0.000   0.000   0.000   1.000   0.000   0.000   0.000   0.000   0.000   0.000   0.000   0.000   0.000   0.000   0.000
  0.000   0.000   0.000   0.000   0.000   0.000   0.000   0.000   0.000   0.000   0.000   0.000   0.000   0.000   0.000   0.000
  0.000   0.000   0.000   0.000   0.000   0.000   0.000   0.000   0.000   0.000   0.000   0.000   0.000   0.000   0.000   0.000
  0.000   0.000   0.000   0.000   0.000   0.000   0.000   0.000   0.000   0.000   0.000   0.000   0.000   0.000   0.000   0.000
  0.000   0.000   0.000   0.000   0.000   0.000   0.000   0.000   0.000   0.000   0.000   0.000   0.000   0.000   0.000   0.000
  0.000   0.000   0.000   0.000   0.000   0.000   0.000   0.000   0.000   0.000   0.000   0.000   0.000   0.000   0.000   0.000
  0.000   0.000   0.000   0.000   0.000   0.000   0.000   0.000   0.000   0.000   0.000   0.000   0.000   0.000   0.000   0.000
  0.000   0.000   0.000   0.000   0.000   0.000   0.000   0.000   0.000   0.000   0.000   0.000   0.000   0.000   0.000   0.000
  0.000   0.000   0.000   0.000   0.000   0.000   0.000   0.000   0.000   0.000   0.000   0.000   0.000   0.000   0.000   0.000
  0.000   0.000   0.000   0.000   0.000   0.000   0.000   0.000   0.000   0.000   0.000   0.000   0.000   0.000   0.000   0.000
  0.000   0.000   0.000   0.000   0.000   0.000   0.000   0.000   0.000   0.000   0.000   0.000   0.000   0.000   0.000   0.000
  0.000   0.000   0.000   0.000   0.000   0.000   0.000   0.000   0.000   0.000   0.000   0.000   0.000   0.000   0.000   0.000
  0.000   0.000   0.000   0.000   0.000   0.000   0.000   0.000   0.000   0.000   0.000   0.000   0.000   0.000   0.000   0.000
  0.000   0.000   0.000   0.000   0.000   0.000   0.000   0.000   0.000   0.000   0.000   0.000   0.000   0.000   0.000   0.000


--------------------------------------- Iteration      1(   2)  ---------------------------------------


     EDDAV:  cpu time      0.2175: real time      0.2200
       DOS:  cpu time      0.0004: real time      0.0004
    --------------------------------------------
      LOOP:  cpu time      0.2179: real time      0.2204

 eigenvalue-minimisations  :  1216
 total energy-change (2. order) :-0.3505122E+02  (-0.3505122E+02)
 number of electron      10.0000000 magnetization 
 augmentation part       10.0000000 magnetization 

 Free energy of the ion-electron system (eV)
  ---------------------------------------------------
  alpha Z        PSCENC =         3.71007814
  Ewald energy   TEWEN  =       534.42243236
  -Hartree energ DENC   =      -833.34816100
  -exchange      EXHF   =         0.00000000
  -V(xc)+E(xc)   XCENC  =        -7.57089016
  PAW double counting   =       293.95507915     -263.19716017
  entropy T*S    EENTRO =        -0.00000000
  eigenvalues    EBANDS =       -89.99737639
  atomic energy  EATOM  =       352.07568098
  Solvation  Ediel_sol  =         0.00000000
  ---------------------------------------------------
  free energy    TOTEN  =        -9.95031708 eV

  energy without entropy =       -9.95031708  energy(sigma->0) =       -9.95031708


--------------------------------------------------------------------------------------------------------




 average (electrostatic) potential at core
  the test charge radii are     1.0220
  (the norm of the test charge is              1.0000)
       1 -83.2019       2 -83.2019
 
 
 
 E-fermi :  -3.7417     XC(G=0):  -3.3734     alpha+bet : -2.8518

 Fermi energy:        -3.7416602062

 k-point     1 :       0.0000    0.0000    0.0000
  band No.  band energies     occupation 
      1     -18.0128      2.00000
      2     -10.1753      2.00000
      3      -4.1333      2.00000
      4      -3.9499      2.00000
      5      -3.7851      2.00000
      6      -0.1302      0.00000
      7       0.2616      0.00000
      8       0.3776      0.00000
      9       1.9623      0.00000
     10       2.4647      0.00000
     11       3.8388      0.00000
     12       4.4178      0.00000
     13       6.6680      0.00000
     14       6.9277      0.00000
     15       7.6109      0.00000
     16       7.7303      0.00000

 k-point     2 :       0.0714    0.0000    0.0000
  band No.  band energies     occupation 
      1     -17.9283      2.00000
      2     -10.1142      2.00000
      3      -4.4479      2.00000
      4      -4.1593      2.00000
      5      -4.1102      2.00000
      6       0.0786      0.00000
      7       0.6078      0.00000
      8       0.9945      0.00000
      9       2.0691      0.00000
     10       2.5401      0.00000
     11       3.8740      0.00000
     12       4.4988      0.00000
     13       5.8950      0.00000
     14       6.3311      0.00000
     15       7.1340      0.00000
     16       7.5033      0.00000

 k-point     3 :       0.1429    0.0000    0.0000
  band No.  band energies     occupation 
      1     -17.6879      2.00000
      2      -9.9724      2.00000
      3      -6.0671      2.00000
      4      -4.6241      2.00000
      5      -3.9628      2.00000
      6      -0.5441      0.00000
      7       1.1755      0.00000
      8       2.1938      0.00000
      9       2.3922      0.00000
     10       2.8474      0.00000
     11       4.0260      0.00000
     12       4.7935      0.00000
     13       5.1028      0.00000
     14       6.3445      0.00000
     15       7.0652      0.00000
     16       8.0427      0.00000

 k-point     4 :       0.2143   -0.0000    0.0000
  band No.  band energies     occupation 
      1     -17.2788      2.00000
      2      -9.8633      2.00000
      3      -7.2840      2.00000
      4      -5.1074      2.00000
      5      -3.8086      2.00000
      6      -1.1033      0.00000
      7       1.7645      0.00000
      8       2.0785      0.00000
      9       2.8165      0.00000
     10       3.3503      0.00000
     11       4.4573      0.00000
     12       5.2751      0.00000
     13       5.3378      0.00000
     14       6.2518      0.00000
     15       6.7616      0.00000
     16       8.4705      0.00000

 k-point     5 :       0.2857    0.0000    0.0000
  band No.  band energies     occupation 
      1     -16.7402      2.00000
      2     -10.2725      2.00000
      3      -7.9213      2.00000
      4      -5.4892      2.00000
      5      -3.8427      2.00000
      6      -1.6962      0.00000
      7       0.9881      0.00000
      8       1.9041      0.00000
      9       3.3992      0.00000
     10       3.8299      0.00000
     11       4.6200      0.00000
     12       5.6295      0.00000
     13       6.0147      0.00000
     14       6.7964      0.00000
     15       7.2562      0.00000
     16       8.3566      0.00000

 k-point     6 :       0.3571    0.0000    0.0000
  band No.  band energies     occupation 
      1     -16.0038      2.00000
      2     -11.2566      2.00000
      3      -7.6961      2.00000
      4      -5.8558      2.00000
      5      -4.0157      2.00000
      6      -1.6125      0.00000
      7       0.3476      0.00000
      8       2.2320      0.00000
      9       3.7906      0.00000
     10       4.2825      0.00000
     11       5.0757      0.00000
     12       6.2979      0.00000
     13       6.8354      0.00000
     14       7.9858      0.00000
     15       9.5208      0.00000
     16       9.8523      0.00000

 k-point     7 :       0.4286   -0.0000    0.0000
  band No.  band energies     occupation 
      1     -15.3177      2.00000
      2     -12.2697      2.00000
      3      -7.1807      2.00000
      4      -6.0351      2.00000
      5      -4.7106      2.00000
      6      -1.5541      0.00000
      7       0.1229      0.00000
      8       2.2724      0.00000
      9       3.2622      0.00000
     10       5.3381      0.00000
     11       5.9735      0.00000
     12       7.1172      0.00000
     13       7.7247      0.00000
     14       7.9866      0.00000
     15       8.2586      0.00000
     16       9.0285      0.00000

 k-point     8 :       0.5000   -0.0000    0.0000
  band No.  band energies     occupation 
      1     -14.9275      2.00000
      2     -12.8445      2.00000
      3      -6.9201      2.00000
      4      -6.1375      2.00000
      5      -5.1476      2.00000
      6      -1.6975      0.00000
      7      -0.1175      0.00000
      8       1.9194      0.00000
      9       2.8237      0.00000
     10       6.3097      0.00000
     11       6.3723      0.00000
     12       6.8091      0.00000
     13       7.2398      0.00000
     14       7.6989      0.00000
     15       8.5097      0.00000
     16       8.9433      0.00000

 k-point     9 :       0.0714    0.0714    0.0000
  band No.  band energies     occupation 
      1     -17.7550      2.00000
      2     -10.0123      2.00000
      3      -5.6147      2.00000
      4      -4.3937      2.00000
      5      -3.9972      2.00000
      6       0.1766      0.00000
      7       0.6159      0.00000
      8       2.0228      0.00000
      9       2.3915      0.00000
     10       2.7079      0.00000
     11       3.9548      0.00000
     12       4.6835      0.00000
     13       5.1056      0.00000
     14       6.8602      0.00000
     15       7.4082      0.00000
     16       7.8850      0.00000

 k-point    10 :       0.1429    0.0714    0.0000
  band No.  band energies     occupation 
      1     -17.4231      2.00000
      2      -9.8847      2.00000
      3      -6.7382      2.00000
      4      -4.9362      2.00000
      5      -3.8762      2.00000
      6      -0.3635      0.00000
      7       0.9568      0.00000
      8       2.5634      0.00000
      9       2.6263      0.00000
     10       3.0935      0.00000
     11       3.9414      0.00000
     12       4.8816      0.00000
     13       5.0789      0.00000
     14       6.4914      0.00000
     15       7.7662      0.00000
     16       7.8802      0.00000

 k-point    11 :       0.2143    0.0714    0.0000
  band No.  band energies     occupation 
      1     -16.9466      2.00000
      2      -9.9979      2.00000
      3      -7.7267      2.00000
      4      -5.5637      2.00000
      5      -3.7955      2.00000
      6      -0.9132      0.00000
      7       1.5281      0.00000
      8       2.0120      0.00000
      9       3.1600      0.00000
     10       3.5823      0.00000
     11       4.3179      0.00000
     12       5.3339      0.00000
     13       5.6641      0.00000
     14       6.8809      0.00000
     15       8.2458      0.00000
     16       9.1398      0.00000

 k-point    12 :       0.2857    0.0714    0.0000
  band No.  band energies     occupation 
      1     -16.2971      2.00000
      2     -10.7470      2.00000
      3      -7.8275      2.00000
      4      -6.0096      2.00000
      5      -3.9447      2.00000
      6      -1.2887      0.00000
      7       0.7442      0.00000
      8       1.5766      0.00000
      9       3.8242      0.00000
     10       4.1586      0.00000
     11       4.8087      0.00000
     12       6.0550      0.00000
     13       6.4374      0.00000
     14       6.7698      0.00000
     15       8.9277      0.00000
     16       9.7665      0.00000

 k-point    13 :       0.3571    0.0714    0.0000
  band No.  band energies     occupation 
      1     -15.5785      2.00000
      2     -11.7939      2.00000
      3      -7.4554      2.00000
      4      -6.2570      2.00000
      5      -4.3919      2.00000
      6      -1.1217      0.00000
      7       0.4186      0.00000
      8       1.8101      0.00000
      9       3.5897      0.00000
     10       4.8989      0.00000
     11       5.5334      0.00000
     12       6.8079      0.00000
     13       7.3819      0.00000
     14       7.8759      0.00000
     15       8.8455      0.00000
     16       9.3005      0.00000

 k-point    14 :       0.4286    0.0714    0.0000
  band No.  band energies     occupation 
      1     -14.9510      2.00000
      2     -12.6565      2.00000
      3      -7.0228      2.00000
      4      -6.2695      2.00000
      5      -4.8737      2.00000
      6      -1.1080      0.00000
      7       0.0763      0.00000
      8       1.7739      0.00000
      9       3.0898      0.00000
     10       6.0044      0.00000
     11       6.5594      0.00000
     12       7.2197      0.00000
     13       7.5751      0.00000
     14       8.0779      0.00000
     15       8.5447      0.00000
     16       8.7258      0.00000

 k-point    15 :       0.1429    0.1429    0.0000
  band No.  band energies     occupation 
      1     -17.0560      2.00000
      2      -9.9338      2.00000
      3      -7.4795      2.00000
      4      -5.9806      2.00000
      5      -3.7873      2.00000
      6      -0.1186      0.00000
      7       0.7075      0.00000
      8       2.3754      0.00000
      9       2.8942      0.00000
     10       3.0760      0.00000
     11       3.8771      0.00000
     12       5.1719      0.00000
     13       5.4537      0.00000
     14       6.3305      0.00000
     15       7.5520      0.00000
     16       7.9972      0.00000

 k-point    16 :       0.2143    0.1429    0.0000
  band No.  band energies     occupation 
      1     -16.5044      2.00000
      2     -10.4239      2.00000
      3      -7.7543      2.00000
      4      -6.6991      2.00000
      5      -3.8434      2.00000
      6      -0.4171      0.00000
      7       0.7354      0.00000
      8       1.7179      0.00000
      9       3.3579      0.00000
     10       3.7157      0.00000
     11       4.4606      0.00000
     12       5.4595      0.00000
     13       5.7674      0.00000
     14       6.3411      0.00000
     15       8.0918      0.00000
     16       9.5375      0.00000

 k-point    17 :       0.2857    0.1429    0.0000
  band No.  band energies     occupation 
      1     -15.7811      2.00000
      2     -11.3176      2.00000
      3      -7.5490      2.00000
      4      -6.9921      2.00000
      5      -3.9389      2.00000
      6      -0.4864      0.00000
      7       0.6418      0.00000
      8       1.4525      0.00000
      9       3.8881      0.00000
     10       4.6293      0.00000
     11       5.2576      0.00000
     12       5.9865      0.00000
     13       6.5319      0.00000
     14       7.1725      0.00000
     15       8.8447      0.00000
     16       9.7062      0.00000

 k-point    18 :       0.3571    0.1429    0.0000
  band No.  band energies     occupation 
      1     -15.0799      2.00000
      2     -12.3091      2.00000
      3      -7.6711      2.00000
      4      -6.7154      2.00000
      5      -4.6721      2.00000
      6      -0.4890      0.00000
      7       0.3040      0.00000
      8       1.5940      0.00000
      9       3.5228      0.00000
     10       5.5904      0.00000
     11       6.1940      0.00000
     12       7.3012      0.00000
     13       7.4987      0.00000
     14       8.1833      0.00000
     15       8.5487      0.00000
     16       8.9282      0.00000

 k-point    19 :       0.4286    0.1429    0.0000
  band No.  band energies     occupation 
      1     -14.6352      2.00000
      2     -12.8168      2.00000
      3      -7.7055      2.00000
      4      -6.2992      2.00000
      5      -5.0039      2.00000
      6      -0.3559      0.00000
      7       0.3773      0.00000
      8       1.6474      0.00000
      9       3.2256      0.00000
     10       6.6253      0.00000
     11       6.9144      0.00000
     12       7.1579      0.00000
     13       7.3513      0.00000
     14       7.8453      0.00000
[...]
     14       0.1946      0.00000
     15       0.7771      0.00000
     16      -3.7635      0.00000

 k-point  17 :       0.2857    0.1429    0.0000
  band No.  band energies     occupation 
      1      -5.6502      0.00000
      2      -4.3123      0.00000
      3      -2.5359      0.00000
      4      -4.8888      0.00000
      5       0.5337      0.00000
      6       0.6201      0.00000
      7       0.3517      0.00000
      8      -1.8502      0.00000
      9       0.9759      0.00000
     10       0.3913      0.00000
     11       0.6457      0.00000
     12      -4.9060      0.00000
     13       0.7082      0.00000
     14       0.5821      0.00000
     15       1.1231      0.00000
     16       0.2087      0.00000

 k-point  18 :       0.3571    0.1429    0.0000
  band No.  band energies     occupation 
      1      -5.5946      0.00000
      2      -5.0084      0.00000
      3      -4.6968      0.00000
      4      -2.0259      0.00000
      5       0.2207      0.00000
      6       1.3647      0.00000
      7      -2.2754      0.00000
      8       1.1163      0.00000
      9       1.0127      0.00000
     10       0.8100      0.00000
     11       0.6038      0.00000
     12      -3.0092      0.00000
     13       0.3211      0.00000
     14       0.3900      0.00000
     15       0.6379      0.00000
     16       0.0795      0.00000

 k-point  19 :       0.4286    0.1429    0.0000
  band No.  band energies     occupation 
      1      -5.5511      0.00000
      2      -5.2106      0.00000
      3      -5.0754      0.00000
      4      -1.5326      0.00000
      5       0.2026      0.00000
      6       1.9629      0.00000
      7      -3.7022      0.00000
      8       2.6442      0.00000
      9       0.3815      0.00000
     10       1.4164      0.00000
     11       0.2652      0.00000
     12       0.5516      0.00000
     13       0.3075      0.00000
     14       0.2072      0.00000
     15      -0.7534      0.00000
     16      -0.6358      0.00000

 k-point  20 :       0.2143    0.2143    0.0000
  band No.  band energies     occupation 
      1      -5.6540      0.00000
      2      -4.0252      0.00000
      3      -6.1175      0.00000
      4      -1.5612      0.00000
      5       0.6072      0.00000
      6       1.2968      0.00000
      7       1.4063      0.00000
      8      -1.3557      0.00000
      9      -5.4024      0.00000
     10       0.3897      0.00000
     11       0.4409      0.00000
     12      -0.7375      0.00000
     13       0.6174      0.00000
     14       0.5092      0.00000
     15       1.1347      0.00000
     16       0.3706      0.00000

 k-point  21 :       0.2857    0.2143    0.0000
  band No.  band energies     occupation 
      1      -5.6004      0.00000
      2      -4.8071      0.00000
      3      -5.9153      0.00000
      4      -0.9483      0.00000
      5       0.2143      0.00000
      6       1.5191      0.00000
      7       1.9210      0.00000
      8      -0.8065      0.00000
      9      -2.2081      0.00000
     10      -3.6884      0.00000
     11      -0.4242      0.00000
     12       0.7230      0.00000
     13       0.7392      0.00000
     14       0.7302      0.00000
     15       0.5997      0.00000
     16       0.8713      0.00000

 k-point  22 :       0.3571    0.2143    0.0000
  band No.  band energies     occupation 
      1      -5.5275      0.00000
      2      -5.1713      0.00000
      3      -5.8361      0.00000
      4      -0.7094      0.00000
      5       0.0442      0.00000
      6       1.5860      0.00000
      7       1.8245      0.00000
      8       0.4779      0.00000
      9      -2.2052      0.00000
     10      -0.0317      0.00000
     11       0.4991      0.00000
     12      -2.4174      0.00000
     13      -0.6784      0.00000
     14       0.7520      0.00000
     15      -1.2784      0.00000
     16       0.4511      0.00000

 k-point  23 :       0.2857    0.2857    0.0000
  band No.  band energies     occupation 
      1      -5.5210      0.00000
      2      -5.1265      0.00000
      3      -6.0189      0.00000
      4      -0.5264      0.00000
      5      -0.0415      0.00000
      6       1.5070      0.00000
      7       2.8723      0.00000
      8       2.9439      0.00000
      9      -5.7010      0.00000
     10      -5.3512      0.00000
     11       0.6069      0.00000
     12       0.7268      0.00000
     13       0.5349      0.00000
     14      -0.7216      0.00000
     15       0.0266      0.00000
     16       0.6850      0.00000

 k-point  24 :       0.3571    0.2857    0.0000
  band No.  band energies     occupation 
      1      -5.4373      0.00000
      2      -5.2904      0.00000
      3      -6.0084      0.00000
      4      -0.4079      0.00000
      5      -0.1588      0.00000
      6       1.5310      0.00000
      7       3.4563      0.00000
      8       2.9589      0.00000
      9      -4.6618      0.00000
     10      -1.7817      0.00000
     11      -4.7969      0.00000
     12      -3.9452      0.00000
     13       0.6267      0.00000
     14       0.7713      0.00000
     15      -0.0026      0.00000
     16       0.5264      0.00000


------------------------ aborting loop because EDIFF is reached ----------------------------------------


    FORLOC:  cpu time      0.0005: real time      0.0005
    FORNL :  cpu time      0.0733: real time      0.0735
    STRESS:  cpu time      0.3568: real time      0.3581
    FORCOR:  cpu time      0.0091: real time      0.0091
    OFIELD:  cpu time      0.0001: real time      0.0001
    FORLOC:  cpu time      0.0006: real time      0.0006
    FORNL :  cpu time      0.0469: real time      0.0470
    STRESS:  cpu time      0.3256: real time      0.3264
    FORCOR:  cpu time      0.0088: real time      0.0088
    OFIELD:  cpu time      0.0001: real time      0.0001
    FORLOC:  cpu time      0.0003: real time      0.0003
    FORNL :  cpu time      0.0485: real time      0.0486
    STRESS:  cpu time      0.3353: real time      0.3360
    FORCOR:  cpu time      0.0097: real time      0.0632
    OFIELD:  cpu time      0.0001: real time      0.0001
    FORLOC:  cpu time      0.0003: real time      0.0003
    FORNL :  cpu time      0.0464: real time      0.0465
    STRESS:  cpu time      0.3179: real time      0.3187
    FORCOR:  cpu time      0.0090: real time      0.0090
    OFIELD:  cpu time      0.0001: real time      0.0001

 INTERNAL STRAIN TENSOR  FOR ION    1  DIRECTION 3   (eV/Angst):
 -----------------------------------------------------------------------------
     5.66380  0.00000 -0.00000
    -0.00000  5.66380  0.00000
    -0.00000 -0.00000 19.87655


 POSITION                   FORCE-CONSTANT FOR ION    1 DIRECTION 3 (eV/Angst/Angst)
 -----------------------------------------------------------------------------------
      1.64117      0.94753      7.37893         0.000000      0.000000    -16.179114
      0.00000      1.89506      8.62107        -0.000000     -0.000000     16.179114
 -----------------------------------------------------------------------------------
    total drift:                                0.000000      0.000000      0.000000




--------------------------------------------------------------------------------------------------------


  LATTYP: Found a hexagonal cell.
 ALAT       =     3.2823434942
 C/A-ratio  =     4.8745660009
  
  Lattice vectors:
  
 A1 = (   3.2823434942,   0.0000000000,   0.0000000000)
 A2 = (  -1.6411717471,   2.8425928499,   0.0000000000)
 A3 = (   0.0000000000,   0.0000000000,  16.0000000000)


Analysis of symmetry for initial positions (statically):
=====================================================================
 Subroutine PRICEL returns:
 Original cell was already a primitive cell.
 

 Routine SETGRP: Setting up the symmetry group for a 
 hexagonal supercell.


 Subroutine GETGRP returns: Found 12 space group operations
 (whereof 12 operations were pure point group operations)
 out of a pool of 24 trial point group operations.


The static configuration has the point symmetry D_3d.


Analysis of symmetry for dynamics (positions and initial velocities):
=====================================================================
 Subroutine PRICEL returns:
 Original cell was already a primitive cell.
 

 Routine SETGRP: Setting up the symmetry group for a 
 hexagonal supercell.


 Subroutine GETGRP returns: Found 12 space group operations
 (whereof 12 operations were pure point group operations)
 out of a pool of 24 trial point group operations.


The dynamic configuration has the point symmetry D_3d.


 Subroutine INISYM returns: Found 12 space group operations
 (whereof 12 operations are pure point group operations),
 and found     1 'primitive' translations

 
 KPOINTS: kpoints                                 

Automatic generation of k-mesh.
 Grid dimensions read from file:
 generate k-points for:   14   14    1

 Generating k-lattice:

  Cartesian coordinates                     Fractional coordinates (reciprocal lattice)
     0.021761455  0.012563982  0.000000000     0.071428571  0.000000000  0.000000000
     0.000000000  0.025127964  0.000000000     0.000000000  0.071428571  0.000000000
     0.000000000  0.000000000  0.062500000     0.000000000  0.000000000  1.000000000

  Length of vectors
     0.025127964  0.025127964  0.062500000

  Shift w.r.t. Gamma in fractional coordinates (k-lattice)
     0.000000000  0.000000000  0.000000000

 
 Subroutine IBZKPT returns following result:
 ===========================================
 
 Found     24 irreducible k-points:
 
 Following reciprocal coordinates:
            Coordinates               Weight
  0.000000  0.000000  0.000000      1.000000
  0.071429  0.000000  0.000000      6.000000
  0.142857  0.000000  0.000000      6.000000
  0.214286 -0.000000  0.000000      6.000000
  0.285714  0.000000  0.000000      6.000000
  0.357143  0.000000  0.000000      6.000000
  0.428571 -0.000000  0.000000      6.000000
  0.500000 -0.000000  0.000000      3.000000
  0.071429  0.071429  0.000000      6.000000
  0.142857  0.071429  0.000000     12.000000
  0.214286  0.071429  0.000000     12.000000
  0.285714  0.071429  0.000000     12.000000
  0.357143  0.071429  0.000000     12.000000
  0.428571  0.071429  0.000000     12.000000
  0.142857  0.142857  0.000000      6.000000
  0.214286  0.142857  0.000000     12.000000
  0.285714  0.142857  0.000000     12.000000
  0.357143  0.142857  0.000000     12.000000
  0.428571  0.142857  0.000000      6.000000
  0.214286  0.214286  0.000000      6.000000
  0.285714  0.214286  0.000000     12.000000
  0.357143  0.214286  0.000000     12.000000
  0.285714  0.285714  0.000000      6.000000
  0.357143  0.285714  0.000000      6.000000
 
 Following cartesian coordinates:
            Coordinates               Weight
  0.000000  0.000000  0.000000      1.000000
  0.021761  0.012564  0.000000      6.000000
  0.043523  0.025128  0.000000      6.000000
  0.065284  0.037692  0.000000      6.000000
  0.087046  0.050256  0.000000      6.000000
  0.108807  0.062820  0.000000      6.000000
  0.130569  0.075384  0.000000      6.000000
  0.152330  0.087948  0.000000      3.000000
  0.021761  0.037692  0.000000      6.000000
  0.043523  0.050256  0.000000     12.000000
  0.065284  0.062820  0.000000     12.000000
  0.087046  0.075384  0.000000     12.000000
  0.108807  0.087948  0.000000     12.000000
  0.130569  0.100512  0.000000     12.000000
  0.043523  0.075384  0.000000      6.000000
  0.065284  0.087948  0.000000     12.000000
  0.087046  0.100512  0.000000     12.000000
  0.108807  0.113076  0.000000     12.000000
  0.130569  0.125640  0.000000      6.000000
  0.065284  0.113076  0.000000      6.000000
  0.087046  0.125640  0.000000     12.000000
  0.108807  0.138204  0.000000     12.000000
  0.087046  0.150768  0.000000      6.000000
  0.108807  0.163332  0.000000      6.000000
 


--------------------------------------------------------------------------------------------------------



 INTERNAL STRAIN TENSOR FOR ION    1 for displacements in x,y,z  (eV/Angst):
          X           Y           Z          XY          YZ          ZX
  --------------------------------------------------------------------------------
  x     0.00000    -0.00000     0.00000     2.67114     0.00000    12.07727
  y     2.67114    -2.67114     0.00000    -0.00000    11.99974     0.00000
  z     5.66380     5.66380    19.87655     0.00000     0.00000     0.00000

 INTERNAL STRAIN TENSOR FOR ION    2 for displacements in x,y,z  (eV/Angst):
          X           Y           Z          XY          YZ          ZX
  --------------------------------------------------------------------------------
  x    -0.00000     0.00000    -0.00000    -2.67114    -0.00000   -12.07727
  y    -2.67114     2.67114    -0.00000     0.00000   -11.99974    -0.00000
  z    -5.66380    -5.66380   -19.87655    -0.00000     0.00000     0.00000


--------------------------------------------------------------------------------------------------------


 
 SECOND DERIVATIVES (NOT SYMMETRIZED)
 ------------------------------------
               1X          1Y          1Z          2X          2Y          2Z 
  1X   -10.221380   -0.000000   -0.000000   10.221380    0.000000    0.000000
  1Y    -0.000000  -10.221380   -0.000000    0.000000   10.221380    0.000000
  1Z     0.000000    0.000000  -16.179114   -0.000000    0.000000   16.179114
  2X    10.221380    0.000000    0.000000  -10.221380   -0.000000   -0.000000
  2Y     0.000000   10.221380    0.000000   -0.000000  -10.221380   -0.000000
  2Z    -0.000000    0.000000   16.179114    0.000000    0.000000  -16.179114
 
 
 Eigenvectors and eigenvalues of the dynamical matrix
 ----------------------------------------------------
 
 
   1 f  =   15.978811 THz   100.397828 2PiTHz  532.995750 cm-1    66.083021 meV
             X         Y         Z           dx          dy          dz
      1.641172  0.947531  7.378925     0.000000    0.000000    0.707107  
      0.000000  1.895062  8.621075    -0.000000   -0.000000   -0.707107  
 
   2 f  =   12.700530 THz    79.799785 2PiTHz  423.644089 cm-1    52.525149 meV
             X         Y         Z           dx          dy          dz
      1.641172  0.947531  7.378925     0.500004    0.499996    0.000000  
      0.000000  1.895062  8.621075    -0.500004   -0.499996    0.000000  
 
   3 f  =   12.700530 THz    79.799785 2PiTHz  423.644089 cm-1    52.525149 meV
             X         Y         Z           dx          dy          dz
      1.641172  0.947531  7.378925     0.499996   -0.500004    0.000000  
      0.000000  1.895062  8.621075    -0.499996    0.500004   -0.000000  
 
   4 f  =    0.000000 THz     0.000001 2PiTHz    0.000008 cm-1     0.000001 meV
             X         Y         Z           dx          dy          dz
      1.641172  0.947531  7.378925    -0.018063   -0.132355    0.694374  
      0.000000  1.895062  8.621075    -0.018063   -0.132355    0.694374  
 
   5 f  =    0.000000 THz     0.000001 2PiTHz    0.000007 cm-1     0.000001 meV
             X         Y         Z           dx          dy          dz
      1.641172  0.947531  7.378925     0.705407    0.041383    0.026238  
      0.000000  1.895062  8.621075     0.705407    0.041383    0.026238  
 
   6 f/i=    0.000000 THz     0.000000 2PiTHz    0.000000 cm-1     0.000000 meV
             X         Y         Z           dx          dy          dz
      1.641172  0.947531  7.378925     0.045550   -0.693376   -0.130980  
      0.000000  1.895062  8.621075     0.045550   -0.693376   -0.130980  
 
 Eigenvectors after division by SQRT(mass)
 
 Eigenvectors and eigenvalues of the dynamical matrix
 ----------------------------------------------------
 
 
   1 f  =   15.978811 THz   100.397828 2PiTHz  532.995750 cm-1    66.083021 meV
             X         Y         Z           dx          dy          dz
      1.641172  0.947531  7.378925     0.000000    0.000000    0.127053  
      0.000000  1.895062  8.621075    -0.000000   -0.000000   -0.127053  
 
   2 f  =   12.700530 THz    79.799785 2PiTHz  423.644089 cm-1    52.525149 meV
             X         Y         Z           dx          dy          dz
      1.641172  0.947531  7.378925     0.089841    0.089840    0.000000  
      0.000000  1.895062  8.621075    -0.089841   -0.089840    0.000000  
 
   3 f  =   12.700530 THz    79.799785 2PiTHz  423.644089 cm-1    52.525149 meV
             X         Y         Z           dx          dy          dz
      1.641172  0.947531  7.378925     0.089840   -0.089841    0.000000  
      0.000000  1.895062  8.621075    -0.089840    0.089841   -0.000000  
 
   4 f  =    0.000000 THz     0.000001 2PiTHz    0.000008 cm-1     0.000001 meV
             X         Y         Z           dx          dy          dz
      1.641172  0.947531  7.378925    -0.003246   -0.023782    0.124766  
      0.000000  1.895062  8.621075    -0.003246   -0.023782    0.124766  
 
   5 f  =    0.000000 THz     0.000001 2PiTHz    0.000007 cm-1     0.000001 meV
             X         Y         Z           dx          dy          dz
      1.641172  0.947531  7.378925     0.126748    0.007436    0.004715  
      0.000000  1.895062  8.621075     0.126748    0.007436    0.004715  
 
   6 f/i=    0.000000 THz     0.000000 2PiTHz    0.000000 cm-1     0.000000 meV
             X         Y         Z           dx          dy          dz
      1.641172  0.947531  7.378925     0.008184   -0.124586   -0.023534  
      0.000000  1.895062  8.621075     0.008184   -0.124586   -0.023534  
 


--------------------------------------------------------------------------------------------------------



 ELASTIC MODULI CONTR FROM IONIC RELAXATION (kBar)
 Direction    XX          YY          ZZ          XY          YZ          ZX
 --------------------------------------------------------------------------------
 XX         -28.7707    -13.7874    -74.6768     -0.0000    -33.6551     -0.0000
 YY         -13.7874    -28.7707    -74.6768     -0.0000     33.6551      0.0000
 ZZ         -74.6768    -74.6768   -262.0711     -0.0000     -0.0000      0.0000
 XY          -0.0000     -0.0000     -0.0000     -7.4916     -0.0000    -33.8726
 YZ         -33.6551     33.6551     -0.0000     -0.0000   -151.1911     -0.0000
 ZX          -0.0000      0.0000      0.0000    -33.8726     -0.0000   -153.1510
 --------------------------------------------------------------------------------



--------------------------------------------------------------------------------------------------------


     LOOP+:  cpu time     35.0788: real time     36.0462
    4ORBIT:  cpu time      0.0000: real time      0.0000



 total charge

# of ion       s       p       d       tot
------------------------------------------
    1        1.216   1.532   0.096   2.845
    2        1.216   1.532   0.096   2.845
--------------------------------------------------
tot          2.432   3.065   0.193   5.690
 

 total amount of memory used by VASP MPI-rank0    41216. kBytes
=======================================================================

   base      :      30000. kBytes
   nonl-proj :       5915. kBytes
   fftplans  :       2490. kBytes
   grid      :       2111. kBytes
   one-center:         31. kBytes
   wavefun   :        669. kBytes
 
  
  
 General timing and accounting informations for this job:
 ========================================================
  
                  Total CPU time used (sec):       35.699
                            User time (sec):       35.375
                          System time (sec):        0.324
                         Elapsed time (sec):       37.631
  
                   Maximum memory used (kb):      174096.
                   Average memory used (kb):          N/A
  
                          Minor page faults:        43348
                          Major page faults:         3187
                 Voluntary context switches:          882
