 vasp.6.4.2 20Jul23 (build Nov 14 2023 12:59:38) complex                        
  
 executed on             LinuxIFC date 2023.12.29  16:09:20
 running   16 mpi-ranks, on    1 nodes
 distrk:  each k-point on   16 cores,    1 groups
 distr:  one band on NCORE=   1 cores,   16 groups


--------------------------------------------------------------------------------------------------------


 INCAR:
   ENCUT = 286.920000
   ALGO = Normal
   NELM = 200
   NELMIN = 6
   NELMDL = -12
   EDIFF = 1.0E-6
   AMIX = 0.1
   BMIX = 0.0001
   PREC = Accurate
   IVDW = 0
   ISPIN = 1
   ADDGRID = .TRUE.
   LASPH = .TRUE.
   LREAL = .FALSE.
   LEPSILON = .TRUE.
   ISMEAR = 0
   SIGMA = 0.01
   LORBIT = 10
   NEDOS = 6001
   NWRITE = 3
   LWAVE = .FALSE.
   LCHARG = .FALSE.
   ICHARG = 2
   LELF = .FALSE.
   LVTOT = .FALSE.
   LPLANE = .TRUE.

 POTCAR:    PAW_PBE P_GW 19Mar2012                
 -----------------------------------------------------------------------------
|                                                                             |
|           W    W    AA    RRRRR   N    N  II  N    N   GGGG   !!!           |
|           W    W   A  A   R    R  NN   N  II  NN   N  G    G  !!!           |
|           W    W  A    A  R    R  N N  N  II  N N  N  G       !!!           |
|           W WW W  AAAAAA  RRRRR   N  N N  II  N  N N  G  GGG   !            |
|           WW  WW  A    A  R   R   N   NN  II  N   NN  G    G                |
|           W    W  A    A  R    R  N    N  II  N    N   GGGG   !!!           |
|                                                                             |
|     For optimal performance we recommend to set                             |
|       NCORE = 2 up to number-of-cores-per-socket                            |
|     NCORE specifies how many cores store one orbital (NPAR=cpu/NCORE).      |
|     This setting can greatly improve the performance of VASP for DFT.       |
|     The default, NCORE=1 might be grossly inefficient on modern             |
|     multi-core architectures or massively parallel machines. Do your        |
|     own testing! More info at https://www.vasp.at/wiki/index.php/NCORE      |
|     Unfortunately you need to use the default for GW and RPA                |
|     calculations (for HF NCORE is supported but not extensively tested      |
|     yet).                                                                   |
|                                                                             |
 -----------------------------------------------------------------------------

 POTCAR:    PAW_PBE P_GW 19Mar2012                
   SHA256 =  715c28f2291d37b61637ce89646c59f66f71c8b8d8bfba631e5feb9f7b42defe P_GW/POTCAR           
   COPYR  = (c) Copyright 19Mar2012 Georg Kresse                                                    
   COPYR  = This file is part of the software VASP. Any use, copying, and all other rights are regul
   COPYR  = If you do not have a valid VASP license, you may not use, copy or distribute this file. 
   VRHFIN =P : s2p3                                                                                 
   LEXCH  = PE                                                                                      
   EATOM  =   176.0430 eV,   12.9388 Ry                                                             
                                                                                                    
   TITEL  = PAW_PBE P_GW 19Mar2012                                                                  
   LULTRA =        F    use ultrasoft PP ?                                                          
   IUNSCR =        1    unscreen: 0-lin 1-nonlin 2-no                                               
   RPACOR =    1.400    partial core radius                                                         
   POMASS =   30.974; ZVAL   =    5.000    mass and valenz                                          
   RCORE  =    2.000    outmost cutoff radius                                                       
   RWIGS  =    1.900; RWIGS  =    1.005    wigner-seitz radius (au A)                               
   ENMAX  =  255.040; ENMIN  =  191.280 eV                                                          
   ICORE  =        3    local potential                                                             
   LCOR   =        T    correct aug charges                                                         
   LPAW   =        T    paw PP                                                                      
   EAUG   =  499.732                                                                                
   DEXC   =    0.000                                                                                
   RMAX   =    2.047    core radius for proj-oper                                                   
   RAUG   =    1.300    factor for augmentation sphere                                              
   RDEP   =    2.059    radius for radial grids                                                     
   RDEPT  =    1.900    core radius for aug-charge                                                  
                                                                                                    
   Atomic configuration                                                                             
    7 entries                                                                                       
     n  l   j            E        occ.                                                              
     1  0  0.50     -2084.0982   2.0000                                                             
     2  0  0.50      -173.9859   2.0000                                                             
     2  1  1.50      -124.4865   6.0000                                                             
     3  0  0.50       -13.9692   2.0000                                                             
     3  1  0.50        -5.5067   3.0000                                                             
     3  2  1.50        -6.8029   0.0000                                                             
     4  3  2.50        -1.3606   0.0000                                                             
   Description                                                                                      
     l       E           TYP  RCUT    TYP  RCUT                                                     
     0    -13.9691528     23  1.900                                                                 
     0    102.0436950     23  1.900                                                                 
     1     -5.5066939     23  1.900                                                                 
     1    102.0436950     23  1.900                                                                 
     2     -8.1634956     23  2.000                                                                 
     2     81.6349560     23  2.000                                                                 
     3     27.2116520     23  2.000                                                                 
  local pseudopotential read in
  partial core-charges read in
  partial kinetic energy density read in
  kinetic energy density of atom read in
  atomic valenz-charges read in
  non local Contribution for L=           0  read in
    real space projection operators read in
  non local Contribution for L=           0  read in
    real space projection operators read in
  non local Contribution for L=           1  read in
    real space projection operators read in
  non local Contribution for L=           1  read in
    real space projection operators read in
  non local Contribution for L=           2  read in
    real space projection operators read in
  non local Contribution for L=           2  read in
    real space projection operators read in
    PAW grid and wavefunctions read in
 
   number of l-projection  operators is LMAX  =           6
   number of lm-projection operators is LMMAX =          18
 
  PAW_PBE P_GW 19Mar2012                :
 energy of atom  1       EATOM= -176.0430
 kinetic energy error for atom=    0.0052 (will be added to EATOM!!)
 
 
 POSCAR: OUTCAR.0001.-1.out 1.0e-02
  positions in cartesian coordinates
  No initial velocities read in
 exchange correlation table for  LEXCH =        8
   RHO(1)=    0.500       N(1)  =     2000
   RHO(2)=  100.500       N(2)  =     4000
 


--------------------------------------------------------------------------------------------------------


 ion  position               nearest neighbor table
   1  0.667  0.333  0.461-   2 2.27   2 2.27   2 2.27
   2  0.333  0.667  0.539-   1 2.27   1 2.27   1 2.27
 
  LATTYP: Found a hexagonal cell.
 ALAT       =     3.2823434942
 C/A-ratio  =     4.8745660009
  
  Lattice vectors:
  
 A1 = (   3.2823434942,   0.0000000000,   0.0000000000)
 A2 = (  -1.6411717471,   2.8425928499,   0.0000000000)
 A3 = (   0.0000000000,   0.0000000000,  16.0000000000)


Analysis of symmetry for initial positions (statically):
=====================================================================
 Subroutine PRICEL returns:
 Original cell was already a primitive cell.
 

 Routine SETGRP: Setting up the symmetry group for a 
 hexagonal supercell.


 Subroutine GETGRP returns: Found 12 space group operations
 (whereof 12 operations were pure point group operations)
 out of a pool of 24 trial point group operations.


The static configuration has the point symmetry D_3d.


Analysis of symmetry for dynamics (positions and initial velocities):
=====================================================================
 Subroutine PRICEL returns:
 Original cell was already a primitive cell.
 

 Routine SETGRP: Setting up the symmetry group for a 
 hexagonal supercell.


 Subroutine GETGRP returns: Found 12 space group operations
 (whereof 12 operations were pure point group operations)
 out of a pool of 24 trial point group operations.


The dynamic configuration has the point symmetry D_3d.


 Subroutine INISYM returns: Found 12 space group operations
 (whereof 12 operations are pure point group operations),
 and found     1 'primitive' translations



 irot  :   1
 --------------------------------------------------------------------
 isymop:   1   0   0
           0   1   0
           0   0   1

 gtrans:     0.0000000     0.0000000     0.0000000

 ptrans:     0.0000000     0.0000000     0.0000000
 
 rotmap:
 (   1->   1)  (   2->   2) 


 irot  :   2
 --------------------------------------------------------------------
 isymop:  -1   0   0
           0  -1   0
           0   0  -1

 gtrans:     0.0000000     0.0000000     0.0000000

 ptrans:     0.0000000     0.0000000     0.0000000
 
 rotmap:
 (   1->   2)  (   2->   1) 


 irot  :   3
 --------------------------------------------------------------------
 isymop:   0  -1   0
           1  -1   0
           0   0   1

 gtrans:     0.0000000     0.0000000     0.0000000

 ptrans:     0.0000000     0.0000000     0.0000000
 
 rotmap:
 (   1->   1)  (   2->   2) 


 irot  :   4
 --------------------------------------------------------------------
 isymop:   0   1   0
          -1   1   0
           0   0  -1

 gtrans:     0.0000000     0.0000000     0.0000000

 ptrans:     0.0000000     0.0000000     0.0000000
 
 rotmap:
 (   1->   2)  (   2->   1) 


 irot  :   5
 --------------------------------------------------------------------
 isymop:  -1   1   0
          -1   0   0
           0   0   1

 gtrans:     0.0000000     0.0000000     0.0000000

 ptrans:     0.0000000     0.0000000     0.0000000
 
 rotmap:
 (   1->   1)  (   2->   2) 


 irot  :   6
 --------------------------------------------------------------------
 isymop:   1  -1   0
           1   0   0
           0   0  -1

 gtrans:     0.0000000     0.0000000     0.0000000

 ptrans:     0.0000000     0.0000000     0.0000000
 
 rotmap:
 (   1->   2)  (   2->   1) 


 irot  :   7
 --------------------------------------------------------------------
 isymop:   1  -1   0
           0  -1   0
           0   0  -1

 gtrans:     0.0000000     0.0000000     0.0000000

 ptrans:     0.0000000     0.0000000     0.0000000
 
 rotmap:
 (   1->   2)  (   2->   1) 


 irot  :   8
 --------------------------------------------------------------------
 isymop:  -1   1   0
           0   1   0
           0   0   1

 gtrans:     0.0000000     0.0000000     0.0000000

 ptrans:     0.0000000     0.0000000     0.0000000
 
 rotmap:
 (   1->   1)  (   2->   2) 


 irot  :   9
 --------------------------------------------------------------------
 isymop:  -1   0   0
          -1   1   0
           0   0  -1

 gtrans:     0.0000000     0.0000000     0.0000000

 ptrans:     0.0000000     0.0000000     0.0000000
 
 rotmap:
 (   1->   2)  (   2->   1) 


 irot  :  10
 --------------------------------------------------------------------
 isymop:   1   0   0
           1  -1   0
           0   0   1

 gtrans:     0.0000000     0.0000000     0.0000000

 ptrans:     0.0000000     0.0000000     0.0000000
 
 rotmap:
 (   1->   1)  (   2->   2) 


 irot  :  11
 --------------------------------------------------------------------
 isymop:   0   1   0
           1   0   0
           0   0  -1

 gtrans:     0.0000000     0.0000000     0.0000000

 ptrans:     0.0000000     0.0000000     0.0000000
 
 rotmap:
 (   1->   2)  (   2->   1) 


 irot  :  12
 --------------------------------------------------------------------
 isymop:   0  -1   0
          -1   0   0
           0   0   1

 gtrans:     0.0000000     0.0000000     0.0000000

 ptrans:     0.0000000     0.0000000     0.0000000
 
 rotmap:
 (   1->   1)  (   2->   2) 

----------------------------------------------------------------------------------------

                                     Primitive cell                                     

  volume of cell :     149.2859

  direct lattice vectors                    reciprocal lattice vectors
     3.282343494  0.000000000  0.000000000     0.304660375  0.175895750  0.000000000
    -1.641171747  2.842592850  0.000000000     0.000000000  0.351791499  0.000000000
     0.000000000  0.000000000 16.000000000     0.000000000  0.000000000  0.062500000

  length of vectors
     3.282343494  3.282343494 16.000000000     0.351791499  0.351791499  0.062500000

  position of ions in fractional coordinates (direct lattice)
     0.666666667  0.333333333  0.460740897
     0.333333333  0.666666667  0.539259103

  ion indices of the primitive-cell ions
   primitive index   ion index
                 1           1
                 2           2

----------------------------------------------------------------------------------------

 
 
 KPOINTS: kpoints                                 

Automatic generation of k-mesh.
 Grid dimensions read from file:
 generate k-points for:   14   14    1

 Generating k-lattice:

  Cartesian coordinates                     Fractional coordinates (reciprocal lattice)
     0.021761455  0.012563982  0.000000000     0.071428571  0.000000000  0.000000000
     0.000000000  0.025127964  0.000000000     0.000000000  0.071428571  0.000000000
     0.000000000  0.000000000  0.062500000     0.000000000  0.000000000  1.000000000

  Length of vectors
     0.025127964  0.025127964  0.062500000

  Shift w.r.t. Gamma in fractional coordinates (k-lattice)
     0.000000000  0.000000000  0.000000000

 
 Subroutine IBZKPT returns following result:
 ===========================================
 
 Found     24 irreducible k-points:
 
 Following reciprocal coordinates:
            Coordinates               Weight
  0.000000  0.000000  0.000000      1.000000
  0.071429  0.000000  0.000000      6.000000
  0.142857  0.000000  0.000000      6.000000
  0.214286 -0.000000  0.000000      6.000000
  0.285714  0.000000  0.000000      6.000000
  0.357143  0.000000  0.000000      6.000000
  0.428571 -0.000000  0.000000      6.000000
  0.500000 -0.000000  0.000000      3.000000
  0.071429  0.071429  0.000000      6.000000
  0.142857  0.071429  0.000000     12.000000
  0.214286  0.071429  0.000000     12.000000
  0.285714  0.071429  0.000000     12.000000
  0.357143  0.071429  0.000000     12.000000
  0.428571  0.071429  0.000000     12.000000
  0.142857  0.142857  0.000000      6.000000
  0.214286  0.142857  0.000000     12.000000
  0.285714  0.142857  0.000000     12.000000
  0.357143  0.142857  0.000000     12.000000
  0.428571  0.142857  0.000000      6.000000
  0.214286  0.214286  0.000000      6.000000
  0.285714  0.214286  0.000000     12.000000
  0.357143  0.214286  0.000000     12.000000
  0.285714  0.285714  0.000000      6.000000
  0.357143  0.285714  0.000000      6.000000
 
 Following cartesian coordinates:
            Coordinates               Weight
  0.000000  0.000000  0.000000      1.000000
  0.021761  0.012564  0.000000      6.000000
  0.043523  0.025128  0.000000      6.000000
  0.065284  0.037692  0.000000      6.000000
  0.087046  0.050256  0.000000      6.000000
  0.108807  0.062820  0.000000      6.000000
  0.130569  0.075384  0.000000      6.000000
  0.152330  0.087948  0.000000      3.000000
  0.021761  0.037692  0.000000      6.000000
  0.043523  0.050256  0.000000     12.000000
  0.065284  0.062820  0.000000     12.000000
  0.087046  0.075384  0.000000     12.000000
  0.108807  0.087948  0.000000     12.000000
  0.130569  0.100512  0.000000     12.000000
  0.043523  0.075384  0.000000      6.000000
  0.065284  0.087948  0.000000     12.000000
  0.087046  0.100512  0.000000     12.000000
  0.108807  0.113076  0.000000     12.000000
  0.130569  0.125640  0.000000      6.000000
  0.065284  0.113076  0.000000      6.000000
  0.087046  0.125640  0.000000     12.000000
  0.108807  0.138204  0.000000     12.000000
  0.087046  0.150768  0.000000      6.000000
  0.108807  0.163332  0.000000      6.000000
 
 
 Subroutine IBZKPT_HF returns following result:
 ==============================================
 
 Found    196 k-points in 1st BZ
 the following    196 k-points will be used (e.g. in the exchange kernel)
 Following reciprocal coordinates:   # in IRBZ
  0.000000  0.000000  0.000000    0.00510204   1 t-inv F
  0.071429  0.000000  0.000000    0.00510204   2 t-inv F
  0.142857  0.000000  0.000000    0.00510204   3 t-inv F
  0.214286 -0.000000  0.000000    0.00510204   4 t-inv F
  0.285714  0.000000  0.000000    0.00510204   5 t-inv F
  0.357143  0.000000  0.000000    0.00510204   6 t-inv F
  0.428571 -0.000000  0.000000    0.00510204   7 t-inv F
  0.500000 -0.000000  0.000000    0.00510204   8 t-inv F
  0.071429  0.071429  0.000000    0.00510204   9 t-inv F
  0.142857  0.071429  0.000000    0.00510204  10 t-inv F
  0.214286  0.071429  0.000000    0.00510204  11 t-inv F
  0.285714  0.071429  0.000000    0.00510204  12 t-inv F
  0.357143  0.071429  0.000000    0.00510204  13 t-inv F
  0.428571  0.071429  0.000000    0.00510204  14 t-inv F
  0.142857  0.142857  0.000000    0.00510204  15 t-inv F
  0.214286  0.142857  0.000000    0.00510204  16 t-inv F
  0.285714  0.142857  0.000000    0.00510204  17 t-inv F
  0.357143  0.142857  0.000000    0.00510204  18 t-inv F
  0.428571  0.142857  0.000000    0.00510204  19 t-inv F
  0.214286  0.214286  0.000000    0.00510204  20 t-inv F
  0.285714  0.214286  0.000000    0.00510204  21 t-inv F
  0.357143  0.214286  0.000000    0.00510204  22 t-inv F
  0.285714  0.285714  0.000000    0.00510204  23 t-inv F
  0.357143  0.285714  0.000000    0.00510204  24 t-inv F
 -0.071429  0.000000  0.000000    0.00510204   2 t-inv F
 -0.071429  0.071429  0.000000    0.00510204   2 t-inv F
  0.071429 -0.071429  0.000000    0.00510204   2 t-inv F
  0.000000 -0.071429  0.000000    0.00510204   2 t-inv F
  0.000000  0.071429  0.000000    0.00510204   2 t-inv F
 -0.142857  0.000000  0.000000    0.00510204   3 t-inv F
 -0.142857  0.142857  0.000000    0.00510204   3 t-inv F
  0.142857 -0.142857  0.000000    0.00510204   3 t-inv F
  0.000000 -0.142857  0.000000    0.00510204   3 t-inv F
  0.000000  0.142857  0.000000    0.00510204   3 t-inv F
 -0.214286  0.000000  0.000000    0.00510204   4 t-inv F
 -0.214286  0.214286  0.000000    0.00510204   4 t-inv F
  0.214286 -0.214286  0.000000    0.00510204   4 t-inv F
 -0.000000 -0.214286  0.000000    0.00510204   4 t-inv F
  0.000000  0.214286  0.000000    0.00510204   4 t-inv F
 -0.285714  0.000000  0.000000    0.00510204   5 t-inv F
 -0.285714  0.285714  0.000000    0.00510204   5 t-inv F
  0.285714 -0.285714  0.000000    0.00510204   5 t-inv F
  0.000000 -0.285714  0.000000    0.00510204   5 t-inv F
  0.000000  0.285714  0.000000    0.00510204   5 t-inv F
 -0.357143  0.000000  0.000000    0.00510204   6 t-inv F
 -0.357143  0.357143  0.000000    0.00510204   6 t-inv F
  0.357143 -0.357143  0.000000    0.00510204   6 t-inv F
  0.000000 -0.357143  0.000000    0.00510204   6 t-inv F
  0.000000  0.357143  0.000000    0.00510204   6 t-inv F
 -0.428571  0.000000  0.000000    0.00510204   7 t-inv F
 -0.428571  0.428571  0.000000    0.00510204   7 t-inv F
  0.428571 -0.428571  0.000000    0.00510204   7 t-inv F
 -0.000000 -0.428571  0.000000    0.00510204   7 t-inv F
  0.000000  0.428571  0.000000    0.00510204   7 t-inv F
 -0.500000  0.500000  0.000000    0.00510204   8 t-inv F
 -0.000000 -0.500000  0.000000    0.00510204   8 t-inv F
 -0.071429 -0.071429  0.000000    0.00510204   9 t-inv F
 -0.142857  0.071429  0.000000    0.00510204   9 t-inv F
  0.142857 -0.071429  0.000000    0.00510204   9 t-inv F
  0.071429 -0.142857  0.000000    0.00510204   9 t-inv F
 -0.071429  0.142857  0.000000    0.00510204   9 t-inv F
 -0.142857 -0.071429  0.000000    0.00510204  10 t-inv F
 -0.214286  0.142857  0.000000    0.00510204  10 t-inv F
  0.214286 -0.142857  0.000000    0.00510204  10 t-inv F
  0.071429 -0.214286  0.000000    0.00510204  10 t-inv F
 -0.071429  0.214286  0.000000    0.00510204  10 t-inv F
  0.142857 -0.214286  0.000000    0.00510204  10 t-inv F
 -0.142857  0.214286  0.000000    0.00510204  10 t-inv F
 -0.214286  0.071429  0.000000    0.00510204  10 t-inv F
  0.214286 -0.071429  0.000000    0.00510204  10 t-inv F
  0.071429  0.142857  0.000000    0.00510204  10 t-inv F
 -0.071429 -0.142857  0.000000    0.00510204  10 t-inv F
 -0.214286 -0.071429  0.000000    0.00510204  11 t-inv F
 -0.285714  0.214286  0.000000    0.00510204  11 t-inv F
  0.285714 -0.214286  0.000000    0.00510204  11 t-inv F
  0.071429 -0.285714  0.000000    0.00510204  11 t-inv F
 -0.071429  0.285714  0.000000    0.00510204  11 t-inv F
  0.214286 -0.285714  0.000000    0.00510204  11 t-inv F
 -0.214286  0.285714  0.000000    0.00510204  11 t-inv F
 -0.285714  0.071429  0.000000    0.00510204  11 t-inv F
  0.285714 -0.071429  0.000000    0.00510204  11 t-inv F
  0.071429  0.214286  0.000000    0.00510204  11 t-inv F
 -0.071429 -0.214286  0.000000    0.00510204  11 t-inv F
 -0.285714 -0.071429  0.000000    0.00510204  12 t-inv F
 -0.357143  0.285714  0.000000    0.00510204  12 t-inv F
  0.357143 -0.285714  0.000000    0.00510204  12 t-inv F
  0.071429 -0.357143  0.000000    0.00510204  12 t-inv F
 -0.071429  0.357143  0.000000    0.00510204  12 t-inv F
  0.285714 -0.357143  0.000000    0.00510204  12 t-inv F
 -0.285714  0.357143  0.000000    0.00510204  12 t-inv F
 -0.357143  0.071429  0.000000    0.00510204  12 t-inv F
  0.357143 -0.071429  0.000000    0.00510204  12 t-inv F
  0.071429  0.285714  0.000000    0.00510204  12 t-inv F
 -0.071429 -0.285714  0.000000    0.00510204  12 t-inv F
 -0.357143 -0.071429  0.000000    0.00510204  13 t-inv F
 -0.428571  0.357143  0.000000    0.00510204  13 t-inv F
  0.428571 -0.357143  0.000000    0.00510204  13 t-inv F
  0.071429 -0.428571  0.000000    0.00510204  13 t-inv F
 -0.071429  0.428571  0.000000    0.00510204  13 t-inv F
  0.357143 -0.428571  0.000000    0.00510204  13 t-inv F
 -0.357143  0.428571  0.000000    0.00510204  13 t-inv F
 -0.428571  0.071429  0.000000    0.00510204  13 t-inv F
  0.428571 -0.071429  0.000000    0.00510204  13 t-inv F
  0.071429  0.357143  0.000000    0.00510204  13 t-inv F
 -0.071429 -0.357143  0.000000    0.00510204  13 t-inv F
 -0.428571 -0.071429  0.000000    0.00510204  14 t-inv F
 -0.500000  0.428571  0.000000    0.00510204  14 t-inv F
  0.500000 -0.428571  0.000000    0.00510204  14 t-inv F
  0.071429 -0.500000  0.000000    0.00510204  14 t-inv F
 -0.071429  0.500000  0.000000    0.00510204  14 t-inv F
  0.428571 -0.500000  0.000000    0.00510204  14 t-inv F
 -0.428571  0.500000  0.000000    0.00510204  14 t-inv F
 -0.500000  0.071429  0.000000    0.00510204  14 t-inv F
  0.500000 -0.071429  0.000000    0.00510204  14 t-inv F
  0.071429  0.428571  0.000000    0.00510204  14 t-inv F
 -0.071429 -0.428571  0.000000    0.00510204  14 t-inv F
 -0.142857 -0.142857  0.000000    0.00510204  15 t-inv F
 -0.285714  0.142857  0.000000    0.00510204  15 t-inv F
  0.285714 -0.142857  0.000000    0.00510204  15 t-inv F
  0.142857 -0.285714  0.000000    0.00510204  15 t-inv F
 -0.142857  0.285714  0.000000    0.00510204  15 t-inv F
 -0.214286 -0.142857  0.000000    0.00510204  16 t-inv F
 -0.357143  0.214286  0.000000    0.00510204  16 t-inv F
  0.357143 -0.214286  0.000000    0.00510204  16 t-inv F
  0.142857 -0.357143  0.000000    0.00510204  16 t-inv F
 -0.142857  0.357143  0.000000    0.00510204  16 t-inv F
  0.214286 -0.357143  0.000000    0.00510204  16 t-inv F
 -0.214286  0.357143  0.000000    0.00510204  16 t-inv F
 -0.357143  0.142857  0.000000    0.00510204  16 t-inv F
  0.357143 -0.142857  0.000000    0.00510204  16 t-inv F
  0.142857  0.214286  0.000000    0.00510204  16 t-inv F
 -0.142857 -0.214286  0.000000    0.00510204  16 t-inv F
 -0.285714 -0.142857  0.000000    0.00510204  17 t-inv F
 -0.428571  0.285714  0.000000    0.00510204  17 t-inv F
  0.428571 -0.285714  0.000000    0.00510204  17 t-inv F
  0.142857 -0.428571  0.000000    0.00510204  17 t-inv F
 -0.142857  0.428571  0.000000    0.00510204  17 t-inv F
  0.285714 -0.428571  0.000000    0.00510204  17 t-inv F
 -0.285714  0.428571  0.000000    0.00510204  17 t-inv F
 -0.428571  0.142857  0.000000    0.00510204  17 t-inv F
  0.428571 -0.142857  0.000000    0.00510204  17 t-inv F
  0.142857  0.285714  0.000000    0.00510204  17 t-inv F
 -0.142857 -0.285714  0.000000    0.00510204  17 t-inv F
 -0.357143 -0.142857  0.000000    0.00510204  18 t-inv F
 -0.500000  0.357143  0.000000    0.00510204  18 t-inv F
  0.500000 -0.357143  0.000000    0.00510204  18 t-inv F
  0.142857 -0.500000  0.000000    0.00510204  18 t-inv F
 -0.142857  0.500000  0.000000    0.00510204  18 t-inv F
  0.357143 -0.500000  0.000000    0.00510204  18 t-inv F
 -0.357143  0.500000  0.000000    0.00510204  18 t-inv F
 -0.500000  0.142857  0.000000    0.00510204  18 t-inv F
  0.500000 -0.142857  0.000000    0.00510204  18 t-inv F
  0.142857  0.357143  0.000000    0.00510204  18 t-inv F
 -0.142857 -0.357143  0.000000    0.00510204  18 t-inv F
 -0.428571 -0.142857  0.000000    0.00510204  19 t-inv F
 -0.571429  0.428571  0.000000    0.00510204  19 t-inv F
  0.571429 -0.428571  0.000000    0.00510204  19 t-inv F
  0.142857 -0.571429  0.000000    0.00510204  19 t-inv F
 -0.142857  0.571429  0.000000    0.00510204  19 t-inv F
 -0.214286 -0.214286  0.000000    0.00510204  20 t-inv F
 -0.428571  0.214286  0.000000    0.00510204  20 t-inv F
  0.428571 -0.214286  0.000000    0.00510204  20 t-inv F
  0.214286 -0.428571  0.000000    0.00510204  20 t-inv F
 -0.214286  0.428571  0.000000    0.00510204  20 t-inv F
 -0.285714 -0.214286  0.000000    0.00510204  21 t-inv F
 -0.500000  0.285714  0.000000    0.00510204  21 t-inv F
  0.500000 -0.285714  0.000000    0.00510204  21 t-inv F
  0.214286 -0.500000  0.000000    0.00510204  21 t-inv F
 -0.214286  0.500000  0.000000    0.00510204  21 t-inv F
  0.285714 -0.500000  0.000000    0.00510204  21 t-inv F
 -0.285714  0.500000  0.000000    0.00510204  21 t-inv F
 -0.500000  0.214286  0.000000    0.00510204  21 t-inv F
  0.500000 -0.214286  0.000000    0.00510204  21 t-inv F
  0.214286  0.285714  0.000000    0.00510204  21 t-inv F
 -0.214286 -0.285714  0.000000    0.00510204  21 t-inv F
 -0.357143 -0.214286  0.000000    0.00510204  22 t-inv F
 -0.571429  0.357143  0.000000    0.00510204  22 t-inv F
  0.571429 -0.357143  0.000000    0.00510204  22 t-inv F
  0.214286 -0.571429  0.000000    0.00510204  22 t-inv F
 -0.214286  0.571429  0.000000    0.00510204  22 t-inv F
  0.357143 -0.571429  0.000000    0.00510204  22 t-inv F
 -0.357143  0.571429  0.000000    0.00510204  22 t-inv F
 -0.571429  0.214286  0.000000    0.00510204  22 t-inv F
  0.571429 -0.214286  0.000000    0.00510204  22 t-inv F
  0.214286  0.357143  0.000000    0.00510204  22 t-inv F
 -0.214286 -0.357143  0.000000    0.00510204  22 t-inv F
 -0.285714 -0.285714  0.000000    0.00510204  23 t-inv F
 -0.571429  0.285714  0.000000    0.00510204  23 t-inv F
  0.571429 -0.285714  0.000000    0.00510204  23 t-inv F
  0.285714 -0.571429  0.000000    0.00510204  23 t-inv F
 -0.285714  0.571429  0.000000    0.00510204  23 t-inv F
 -0.357143 -0.285714  0.000000    0.00510204  24 t-inv F
 -0.642857  0.357143  0.000000    0.00510204  24 t-inv F
  0.642857 -0.357143  0.000000    0.00510204  24 t-inv F
  0.285714 -0.642857  0.000000    0.00510204  24 t-inv F
 -0.285714  0.642857  0.000000    0.00510204  24 t-inv F


--------------------------------------------------------------------------------------------------------




 Dimension of arrays:
   k-points           NKPTS =     24   k-points in BZ     NKDIM =     24   number of bands    NBANDS=     16
   number of dos      NEDOS =   6001   number of ions     NIONS =      2
   non local maximal  LDIM  =      6   non local SUM 2l+1 LMDIM =     18
   total plane-waves  NPLWV =  29160
   max r-space proj   IRMAX =      1   max aug-charges    IRDMAX=  57812
   dimension x,y,z NGX =    18 NGY =   18 NGZ =   90
   dimension x,y,z NGXF=    36 NGYF=   36 NGZF=  180
   support grid    NGXF=    72 NGYF=   72 NGZF=  360
   ions per type =               2
   NGX,Y,Z   is equivalent  to a cutoff of   9.12,  9.12,  9.35 a.u.
   NGXF,Y,Z  is equivalent  to a cutoff of  18.23, 18.23, 18.70 a.u.

 SYSTEM =  unknown system                          
 POSCAR =  OUTCAR.0001.-1.out 1.0e-02              

 Startparameter for this run:
   NWRITE =      3    write-flag & timer
   PREC   = accura    normal or accurate (medium, high low for compatibility)
   ISTART =      0    job   : 0-new  1-cont  2-samecut
   ICHARG =      2    charge: 1-file 2-atom 10-const
   ISPIN  =      1    spin polarized calculation?
   LNONCOLLINEAR =      F non collinear calculations
   LSORBIT =      F    spin-orbit coupling
   INIWAV =      1    electr: 0-lowe 1-rand  2-diag
   LASPH  =      T    aspherical Exc in radial PAW
 Electronic Relaxation 1
   ENCUT  =  286.9 eV  21.09 Ry    4.59 a.u.   4.53  4.53 22.10*2*pi/ulx,y,z
   ENINI  =  286.9     initial cutoff
   ENAUG  =  499.7 eV  augmentation charge cutoff
   NELM   =    200;   NELMIN=  6; NELMDL=-12     # of ELM steps 
   EDIFF  = 0.1E-05   stopping-criterion for ELM
   LREAL  =      F    real-space projection
   NLSPLINE    = F    spline interpolate recip. space projectors
   LCOMPAT=      F    compatible to vasp.4.4
   GGA_COMPAT  = T    GGA compatible to vasp.4.4-vasp.4.6
   LMAXPAW     = -100 max onsite density
   LMAXMIX     =    2 max onsite mixed and CHGCAR
   VOSKOWN=      0    Vosko Wilk Nusair interpolation
   ROPT   =    0.00000
 Ionic relaxation
   EDIFFG = 0.1E-04   stopping-criterion for IOM
   NSW    =      0    number of steps for IOM
   NBLOCK =      1;   KBLOCK =      1    inner block; outer block 
   IBRION =     -1    ionic relax: 0-MD 1-quasi-New 2-CG
   NFREE  =      0    steps in history (QN), initial steepest desc. (CG)
   ISIF   =      2    stress and relaxation
   IWAVPR =     10    prediction:  0-non 1-charg 2-wave 3-comb
   ISYM   =      2    0-nonsym 1-usesym 2-fastsym
   LCORR  =      T    Harris-Foulkes like correction to forces

   POTIM  = 0.5000    time-step for ionic-motion
   TEIN   =    0.0    initial temperature
   TEBEG  =    0.0;   TEEND  =   0.0 temperature during run
   SMASS  =  -3.00    Nose mass-parameter (am)
   estimated Nose-frequenzy (Omega)   =  0.10E-29 period in steps = 0.13E+47 mass=  -0.246E-27a.u.
   SCALEE = 1.0000    scale energy and forces
   NPACO  =    256;   APACO  = 10.0  distance and # of slots for P.C.
   PSTRESS=    0.0 pullay stress

  Mass of Ions in am
   POMASS =  30.97
  Ionic Valenz
   ZVAL   =   5.00
  Atomic Wigner-Seitz radii
   RWIGS  =  -1.00
  virtual crystal weights 
   VCA    =   1.00
   NELECT =      10.0000    total number of electrons
   NUPDOWN=      -1.0000    fix difference up-down

 DOS related values:
   EMIN   =  10.00;   EMAX   =-10.00  energy-range for DOS
   EFERMI =   0.00;   METHOD = LEGACY      
   ISMEAR =     0;   SIGMA  =   0.01  broadening in eV -4-tet -1-fermi 0-gaus

 Electronic relaxation 2 (details)
   IALGO  =     38    algorithm
   LDIAG  =      T    sub-space diagonalisation (order eigenvalues)
   LSUBROT=      F    optimize rotation matrix (better conditioning)
   TURBO    =      0    0=normal 1=particle mesh
   IRESTART =      0    0=no restart 2=restart with 2 vectors
   NREBOOT  =      0    no. of reboots
   NMIN     =      0    reboot dimension
   EREF     =   0.00    reference energy to select bands
   IMIX   =      4    mixing-type and parameters
     AMIX     =   0.10;   BMIX     =  0.00
     AMIX_MAG =   0.40;   BMIX_MAG =  0.00
     AMIN     =   0.10
     WC   =   100.;   INIMIX=   1;  MIXPRE=   1;  MAXMIX= -45

 Intra band minimization:
   WEIMIN = 0.0000     energy-eigenvalue tresh-hold
   EBREAK =  0.16E-07  absolut break condition
   DEPER  =   0.30     relativ break condition  

   TIME   =   0.40     timestep for ELM

  volume/ion in A,a.u.               =      74.64       503.72
  Fermi-wavevector in a.u.,A,eV,Ry     =   0.664868  1.256418  6.014444  0.442049
  Thomas-Fermi vector in A             =   1.738688
 
 Write flags
   LWAVE        =      F    write WAVECAR
   LDOWNSAMPLE  =      F    k-point downsampling of WAVECAR
   LCHARG       =      F    write CHGCAR
   LVTOT        =      F    write LOCPOT, total local potential
   LVHAR        =      F    write LOCPOT, Hartree potential only
   LELF         =      F    write electronic localiz. function (ELF)
   LORBIT       =     10    0 simple, 1 ext, 2 COOP (PROOUT), +10 PAW based schemes


 Dipole corrections
   LMONO  =      F    monopole corrections only (constant potential shift)
   LDIPOL =      F    correct potential (dipole corrections)
   IDIPOL =      0    1-x, 2-y, 3-z, 4-all directions 
   EPSILON=  1.0000000 bulk dielectric constant

 Exchange correlation treatment:
   GGA     =    --    GGA type
   LEXCH   =     8    internal setting for exchange type
   LIBXC   =     F    Libxc                    
   VOSKOWN =     0    Vosko Wilk Nusair interpolation
   LHFCALC =     F    Hartree Fock is set to
   LHFONE  =     F    Hartree Fock one center treatment
   AEXX    =    0.0000 exact exchange contribution

 Linear response parameters
   LEPSILON=     T    determine dielectric tensor
   LRPA    =     F    only Hartree local field effects (RPA)
   LNABLA  =     F    use nabla operator in PAW spheres
   LVEL    =     F    velocity operator in full k-point grid
   CSHIFT  =0.1000    complex shift for real part using Kramers Kronig
   OMEGAMAX=  -1.0    maximum frequency
   DEG_THRESHOLD= 0.2000000E-02 threshold for treating states as degnerate
   RTIME   =   -0.100 relaxation time in fs
  (WPLASMAI=    0.000 imaginary part of plasma frequency in eV, 0.658/RTIME)
   DFIELD  = 0.0000000 0.0000000 0.0000000 field for delta impulse in time
 
  Optional k-point grid parameters
   LKPOINTS_OPT  =     F    use optional k-point grid
   KPOINTS_OPT_MODE=     1    mode for optional k-point grid
 
 Orbital magnetization related:
   ORBITALMAG=     F  switch on orbital magnetization
   LCHIMAG   =     F  perturbation theory with respect to B field
   DQ        =  0.001000  dq finite difference perturbation B field
   LLRAUG    =     F  two centre corrections for induced B field
   LBONE     =     F  B-component reconstruction in AE one-centre
   LVGVCALC  =     T  calculate vGv susceptibility
   LVGVAPPL  =     F  apply vGv susceptibility instead of pGv for G=0

 Random number generation:
   RANDOM_GENERATOR = DEFAULT
   PCG_SEED         = not used


--------------------------------------------------------------------------------------------------------


 Static calculation
 charge density and potential will be updated during run
 non-spin polarized calculation
 Variant of blocked Davidson
 Davidson routine will perform the subspace rotation
 perform sub-space diagonalisation
    after iterative eigenvector-optimisation
 modified Broyden-mixing scheme, WC =      100.0
 initial mixing is a Kerker type mixing with AMIX =  0.1000 and BMIX =      0.0001
 Hartree-type preconditioning will be used
 using additional bands           11
 reciprocal scheme for non local part
 use partial core corrections
 calculate Harris-corrections to forces 
   (improved forces if not selfconsistent)
 use gradient corrections 
 use of overlap-Matrix (Vanderbilt PP)
 Gauss-broadening in eV      SIGMA  =   0.01


--------------------------------------------------------------------------------------------------------


  energy-cutoff  :      286.92
  volume of cell :      149.29
      direct lattice vectors                 reciprocal lattice vectors
     3.282343494  0.000000000  0.000000000     0.304660375  0.175895750  0.000000000
    -1.641171747  2.842592850  0.000000000     0.000000000  0.351791499  0.000000000
     0.000000000  0.000000000 16.000000000     0.000000000  0.000000000  0.062500000

  length of vectors
     3.282343494  3.282343494 16.000000000     0.351791499  0.351791499  0.062500000


 
 k-points in units of 2pi/SCALE and weight: kpoints                                 
   0.00000000  0.00000000  0.00000000       0.005
   0.02176146  0.01256398  0.00000000       0.031
   0.04352291  0.02512796  0.00000000       0.031
   0.06528437  0.03769195  0.00000000       0.031
   0.08704582  0.05025593  0.00000000       0.031
   0.10880728  0.06281991  0.00000000       0.031
   0.13056873  0.07538389  0.00000000       0.031
   0.15233019  0.08794787  0.00000000       0.015
   0.02176146  0.03769195  0.00000000       0.031
   0.04352291  0.05025593  0.00000000       0.061
   0.06528437  0.06281991  0.00000000       0.061
   0.08704582  0.07538389  0.00000000       0.061
   0.10880728  0.08794787  0.00000000       0.061
   0.13056873  0.10051186  0.00000000       0.061
   0.04352291  0.07538389  0.00000000       0.031
   0.06528437  0.08794787  0.00000000       0.061
   0.08704582  0.10051186  0.00000000       0.061
   0.10880728  0.11307584  0.00000000       0.061
   0.13056873  0.12563982  0.00000000       0.031
   0.06528437  0.11307584  0.00000000       0.031
   0.08704582  0.12563982  0.00000000       0.061
   0.10880728  0.13820380  0.00000000       0.061
   0.08704582  0.15076779  0.00000000       0.031
   0.10880728  0.16333177  0.00000000       0.031
 
 k-points in reciprocal lattice and weights: kpoints                                 
   0.00000000  0.00000000  0.00000000       0.005
   0.07142857  0.00000000  0.00000000       0.031
   0.14285714  0.00000000  0.00000000       0.031
   0.21428571 -0.00000000  0.00000000       0.031
   0.28571429  0.00000000  0.00000000       0.031
   0.35714286  0.00000000  0.00000000       0.031
   0.42857143 -0.00000000  0.00000000       0.031
   0.50000000 -0.00000000  0.00000000       0.015
   0.07142857  0.07142857  0.00000000       0.031
   0.14285714  0.07142857  0.00000000       0.061
   0.21428571  0.07142857  0.00000000       0.061
   0.28571429  0.07142857  0.00000000       0.061
   0.35714286  0.07142857  0.00000000       0.061
   0.42857143  0.07142857  0.00000000       0.061
   0.14285714  0.14285714  0.00000000       0.031
   0.21428571  0.14285714  0.00000000       0.061
   0.28571429  0.14285714  0.00000000       0.061
   0.35714286  0.14285714  0.00000000       0.061
   0.42857143  0.14285714  0.00000000       0.031
   0.21428571  0.21428571  0.00000000       0.031
   0.28571429  0.21428571  0.00000000       0.061
   0.35714286  0.21428571  0.00000000       0.061
   0.28571429  0.28571429  0.00000000       0.031
   0.35714286  0.28571429  0.00000000       0.031
 
 position of ions in fractional coordinates (direct lattice) 
   0.66666667  0.33333333  0.46074090
   0.33333333  0.66666667  0.53925910
 
 position of ions in cartesian coordinates  (Angst):
   1.64117175  0.94753095  7.37185436
   0.00000000  1.89506190  8.62814564
 


--------------------------------------------------------------------------------------------------------


 k-point   1 :   0.0000 0.0000 0.0000  plane waves:    1671
 k-point   2 :   0.0714 0.0000 0.0000  plane waves:    1663
 k-point   3 :   0.1429 0.0000 0.0000  plane waves:    1666
 k-point   4 :   0.2143-0.0000 0.0000  plane waves:    1684
 k-point   5 :   0.2857 0.0000 0.0000  plane waves:    1668
 k-point   6 :   0.3571 0.0000 0.0000  plane waves:    1650
 k-point   7 :   0.4286-0.0000 0.0000  plane waves:    1628
 k-point   8 :   0.5000-0.0000 0.0000  plane waves:    1636
 k-point   9 :   0.0714 0.0714 0.0000  plane waves:    1669
 k-point  10 :   0.1429 0.0714 0.0000  plane waves:    1677
 k-point  11 :   0.2143 0.0714 0.0000  plane waves:    1667
 k-point  12 :   0.2857 0.0714 0.0000  plane waves:    1651
 k-point  13 :   0.3571 0.0714 0.0000  plane waves:    1637
 k-point  14 :   0.4286 0.0714 0.0000  plane waves:    1630
 k-point  15 :   0.1429 0.1429 0.0000  plane waves:    1665
 k-point  16 :   0.2143 0.1429 0.0000  plane waves:    1655
 k-point  17 :   0.2857 0.1429 0.0000  plane waves:    1640
 k-point  18 :   0.3571 0.1429 0.0000  plane waves:    1634
 k-point  19 :   0.4286 0.1429 0.0000  plane waves:    1636
 k-point  20 :   0.2143 0.2143 0.0000  plane waves:    1635
 k-point  21 :   0.2857 0.2143 0.0000  plane waves:    1629
 k-point  22 :   0.3571 0.2143 0.0000  plane waves:    1628
 k-point  23 :   0.2857 0.2857 0.0000  plane waves:    1628
 k-point  24 :   0.3571 0.2857 0.0000  plane waves:    1626

 maximum and minimum number of plane-waves per node :      1684     1626

 maximum number of plane-waves:      1684
 maximum index in each direction: 
   IXMAX=    4   IYMAX=    4   IZMAX=   22
   IXMIN=   -5   IYMIN=   -4   IZMIN=  -22


 serial   3D FFT for wavefunctions
 parallel 3D FFT for charge:
    minimum data exchange during FFTs selected (reduces bandwidth)


 total amount of memory used by VASP MPI-rank0    41216. kBytes
=======================================================================

   base      :      30000. kBytes
   nonl-proj :       5915. kBytes
   fftplans  :       2490. kBytes
   grid      :       2111. kBytes
   one-center:         31. kBytes
   wavefun   :        669. kBytes
 
     INWAV:  cpu time      0.0000: real time      0.0004
 Broyden mixing: mesh for mixing (old mesh)
   NGX =  9   NGY =  9   NGZ = 45
  (NGX  = 36   NGY  = 36   NGZ  =180)
  gives a total of   3645 points

 initial charge density was supplied:
 charge density of overlapping atoms calculated
 number of electron      10.0000000 magnetization 
 keeping initial charge density in first step


--------------------------------------------------------------------------------------------------------


 Maximum index for augmentation-charges         3847 (set IRDMAX)


--------------------------------------------------------------------------------------------------------


 First call to EWALD:  gamma=   0.334
 Maximum number of real-space cells 5x 5x 1
 Maximum number of reciprocal cells 2x 2x 7

    FEWALD:  cpu time      0.0012: real time      0.0012


--------------------------------------- Ionic step        1  -------------------------------------------




--------------------------------------- Iteration      1(   1)  ---------------------------------------


    POTLOK:  cpu time      0.0109: real time      0.0109
    SETDIJ:  cpu time      0.1229: real time      0.1230
     EDDAV:  cpu time      0.1406: real time      0.1408
       DOS:  cpu time      0.0006: real time      0.0006
    --------------------------------------------
      LOOP:  cpu time      0.2750: real time      0.2752

 eigenvalue-minimisations  :   768
 total energy-change (2. order) : 0.2589724E+02  (-0.2904205E+03)
 number of electron      10.0000000 magnetization 
 augmentation part       10.0000000 magnetization 

 Free energy of the ion-electron system (eV)
  ---------------------------------------------------
  alpha Z        PSCENC =         3.71007814
  Ewald energy   TEWEN  =       532.05671883
  -Hartree energ DENC   =      -831.27649906
  -exchange      EXHF   =         0.00000000
  -V(xc)+E(xc)   XCENC  =        -7.59803197
  PAW double counting   =       293.95507915     -263.19716017
  entropy T*S    EENTRO =        -0.00013275
  eigenvalues    EBANDS =       -53.82849468
  atomic energy  EATOM  =       352.07568098
  Solvation  Ediel_sol  =         0.00000000
  ---------------------------------------------------
  free energy    TOTEN  =        25.89723848 eV

  energy without entropy =       25.89737122  energy(sigma->0) =       25.89730485


--------------------------------------------------------------------------------------------------------




 average (electrostatic) potential at core
  the test charge radii are     1.0220
  (the norm of the test charge is              1.0000)
       1 -83.1835       2 -83.1835
 
 
 
 E-fermi :   2.5138     XC(G=0):  -3.3790     alpha+bet : -2.8518

 Fermi energy:         2.5138471412

 k-point     1 :       0.0000    0.0000    0.0000
  band No.  band energies     occupation 
      1     -16.7930      2.00000
      2      -8.4918      2.00000
      3      -1.1933      2.00000
      4       2.3380      2.00000
      5       2.8117      0.00000
      6       4.0740      0.00000
      7       4.4392      0.00000
      8       5.0994      0.00000
      9       6.0023      0.00000
     10       8.1562      0.00000
     11      10.9184      0.00000
     12      11.6087      0.00000
     13      12.9860      0.00000
     14      15.1039      0.00000
     15      16.0283      0.00000
     16      18.2458      0.00000

 k-point     2 :       0.0714    0.0000    0.0000
  band No.  band energies     occupation 
      1     -16.5915      2.00000
      2      -8.3021      2.00000
      3      -2.2215      2.00000
      4      -0.8762      2.00000
      5       1.0821      2.00000
      6       2.4410      2.00000
      7       2.8577      0.00000
      8       4.4564      0.00000
      9       5.1819      0.00000
     10       7.8423      0.00000
     11       8.8040      0.00000
     12       9.9858      0.00000
     13      11.3107      0.00000
     14      13.3948      0.00000
     15      15.7872      0.00000
     16      16.8633      0.00000

 k-point     3 :       0.1429    0.0000    0.0000
  band No.  band energies     occupation 
      1     -16.6584      2.00000
      2      -8.9424      2.00000
      3      -1.5341      2.00000
      4      -0.2758      2.00000
      5       1.0163      2.00000
      6       2.6467      0.00000
      7       3.4383      0.00000
      8       4.9400      0.00000
      9       5.7255      0.00000
     10       6.9004      0.00000
     11       8.9878      0.00000
     12       9.7425      0.00000
     13      12.0692      0.00000
     14      13.7388      0.00000
     15      14.7018      0.00000
     16      16.0866      0.00000

 k-point     4 :       0.2143   -0.0000    0.0000
  band No.  band energies     occupation 
      1     -16.3505      2.00000
      2      -7.7984      2.00000
      3      -4.9639      2.00000
      4      -1.2135      2.00000
      5       1.7477      2.00000
      6       3.4270      0.00000
      7       3.6104      0.00000
      8       5.1918      0.00000
      9       6.0664      0.00000
     10       8.5339      0.00000
     11       9.3117      0.00000
     12      11.1297      0.00000
     13      12.1191      0.00000
     14      13.4707      0.00000
     15      14.8051      0.00000
     16      16.0896      0.00000

 k-point     5 :       0.2857    0.0000    0.0000
  band No.  band energies     occupation 
      1     -15.9150      2.00000
      2      -7.0168      2.00000
      3      -4.9491      2.00000
      4      -0.1997      2.00000
      5       2.4516      2.00000
      6       3.9864      0.00000
      7       4.6208      0.00000
      8       4.8890      0.00000
      9       6.8720      0.00000
     10       7.9840      0.00000
     11       9.9176      0.00000
     12      10.7695      0.00000
     13      11.7269      0.00000
     14      13.0437      0.00000
     15      14.4167      0.00000
     16      15.6875      0.00000

 k-point     6 :       0.3571    0.0000    0.0000
  band No.  band energies     occupation 
      1     -14.7501      2.00000
      2      -8.6164      2.00000
      3      -6.1032      2.00000
      4       0.1891      2.00000
      5       1.3388      2.00000
      6       3.6973      0.00000
      7       5.1464      0.00000
      8       5.8141      0.00000
      9       6.8096      0.00000
     10       7.0676      0.00000
     11       8.0152      0.00000
     12       9.4727      0.00000
     13      10.9004      0.00000
     14      11.9562      0.00000
     15      13.0840      0.00000
     16      15.1192      0.00000

 k-point     7 :       0.4286   -0.0000    0.0000
  band No.  band energies     occupation 
      1     -13.3735      2.00000
      2      -9.4451      2.00000
      3      -3.3678      2.00000
      4       0.0961      2.00000
      5       1.7409      2.00000
      6       4.2687      0.00000
      7       6.3849      0.00000
      8       6.9714      0.00000
      9       7.3167      0.00000
     10       8.4047      0.00000
     11       9.2961      0.00000
     12      10.3588      0.00000
     13      11.0054      0.00000
     14      11.9300      0.00000
     15      13.2765      0.00000
     16      15.1296      0.00000

 k-point     8 :       0.5000   -0.0000    0.0000
  band No.  band energies     occupation 
      1     -12.8942      2.00000
      2     -10.4114      2.00000
      3      -3.5959      2.00000
      4      -2.8366      2.00000
      5       2.3448      2.00000
      6       3.0674      0.00000
      7       5.7531      0.00000
      8       7.0805      0.00000
      9       8.2456      0.00000
     10       8.7116      0.00000
     11      10.0918      0.00000
     12      10.2270      0.00000
     13      11.4568      0.00000
     14      11.9704      0.00000
     15      13.1664      0.00000
     16      14.9225      0.00000

 k-point     9 :       0.0714    0.0714    0.0000
  band No.  band energies     occupation 
      1     -16.3656      2.00000
      2      -8.2503      2.00000
      3      -1.7788      2.00000
      4      -0.5808      2.00000
      5       1.8393      2.00000
      6       2.9181      0.00000
      7       3.1183      0.00000
      8       4.9327      0.00000
      9       5.5098      0.00000
     10       8.1836      0.00000
     11       9.4234      0.00000
     12      10.2681      0.00000
     13      11.5481      0.00000
     14      13.6727      0.00000
     15      14.8945      0.00000
     16      17.3587      0.00000

 k-point    10 :       0.1429    0.0714    0.0000
  band No.  band energies     occupation 
      1     -16.2970      2.00000
      2      -8.0549      2.00000
      3      -2.1102      2.00000
      4      -0.8093      2.00000
      5      -0.4083      2.00000
      6       3.0059      0.00000
      7       3.4556      0.00000
      8       5.0495      0.00000
      9       5.9546      0.00000
     10       6.3941      0.00000
     11       8.9966      0.00000
     12       9.6085      0.00000
     13      11.2256      0.00000
     14      11.7658      0.00000
     15      12.5665      0.00000
     16      15.3443      0.00000

 k-point    11 :       0.2143    0.0714    0.0000
  band No.  band energies     occupation 
      1     -15.7592      2.00000
      2      -7.5499      2.00000
      3      -4.3208      2.00000
      4      -3.2132      2.00000
      5      -0.1113      2.00000
      6       3.6324      0.00000
      7       4.2751      0.00000
      8       6.1133      0.00000
      9       6.5202      0.00000
     10       7.4759      0.00000
     11       8.5121      0.00000
     12      10.2975      0.00000
     13      11.6885      0.00000
     14      13.1923      0.00000
     15      14.6087      0.00000
     16      17.1301      0.00000

 k-point    12 :       0.2857    0.0714    0.0000
  band No.  band energies     occupation 
      1     -15.3955      2.00000
      2      -7.0578      2.00000
      3      -5.2941      2.00000
      4      -0.4198      2.00000
      5       1.2871      2.00000
      6       4.1407      0.00000
      7       4.9054      0.00000
      8       6.1882      0.00000
      9       7.1664      0.00000
     10       8.0166      0.00000
     11       8.8841      0.00000
     12      10.1280      0.00000
     13      11.5918      0.00000
     14      12.5598      0.00000
     15      14.1945      0.00000
     16      14.9416      0.00000

 k-point    13 :       0.3571    0.0714    0.0000
  band No.  band energies     occupation 
      1     -13.7036      2.00000
      2      -8.9435      2.00000
      3      -5.2641      2.00000
      4      -1.5898      2.00000
      5       0.2187      2.00000
      6       4.0529      0.00000
      7       5.6241      0.00000
      8       6.2088      0.00000
      9       7.5980      0.00000
     10       8.4492      0.00000
     11       9.0440      0.00000
     12      10.3822      0.00000
     13      11.4603      0.00000
     14      12.2697      0.00000
     15      14.4190      0.00000
     16      16.2279      0.00000

 k-point    14 :       0.4286    0.0714    0.0000
  band No.  band energies     occupation 
      1     -13.2867      2.00000
      2      -9.2392      2.00000
      3      -3.6086      2.00000
      4      -2.0937      2.00000
      5       1.0374      2.00000
      6       3.5455      0.00000
      7       6.0028      0.00000
      8       7.4919      0.00000
      9       7.8889      0.00000
     10       9.2158      0.00000
     11       9.5080      0.00000
     12      10.5237      0.00000
     13      11.2710      0.00000
     14      12.3965      0.00000
     15      13.7260      0.00000
     16      15.1806      0.00000

 k-point    15 :       0.1429    0.1429    0.0000
  band No.  band energies     occupation 
      1     -16.2740      2.00000
      2      -8.2504      2.00000
      3      -4.0950      2.00000
      4      -2.5611      2.00000
      5       1.4458      2.00000
      6       3.6209      0.00000
      7       4.2935      0.00000
      8       5.1293      0.00000
      9       6.3476      0.00000
     10       6.8058      0.00000
     11       8.5690      0.00000
     12      10.5596      0.00000
     13      12.0352      0.00000
     14      13.3425      0.00000
     15      15.0998      0.00000
     16      15.8515      0.00000

 k-point    16 :       0.2143    0.1429    0.0000
  band No.  band energies     occupation 
      1     -15.1021      2.00000
      2      -7.3888      2.00000
      3      -5.2276      2.00000
      4       0.1100      2.00000
      5       2.5236      0.16667
      6       4.0335      0.00000
      7       4.5887      0.00000
      8       5.3350      0.00000
      9       6.5623      0.00000
     10       7.8555      0.00000
     11       8.6263      0.00000
     12      10.1936      0.00000
     13      11.4862      0.00000
     14      12.6327      0.00000
     15      15.0563      0.00000
     16      16.1897      0.00000

 k-point    17 :       0.2857    0.1429    0.0000
  band No.  band energies     occupation 
      1     -13.4070      2.00000
      2      -7.7617      2.00000
      3      -4.4867      2.00000
      4      -0.1492      2.00000
      5       1.7675      2.00000
      6       5.2146      0.00000
      7       5.9498      0.00000
      8       7.1617      0.00000
      9       8.0329      0.00000
     10       8.7590      0.00000
     11      10.1499      0.00000
     12      11.4358      0.00000
     13      11.8970      0.00000
     14      13.0024      0.00000
     15      13.4112      0.00000
     16      15.0626      0.00000

 k-point    18 :       0.3571    0.1429    0.0000
  band No.  band energies     occupation 
      1     -13.2191      2.00000
      2      -8.9795      2.00000
      3      -3.5306      2.00000
      4      -0.6764      2.00000
      5      -0.0933      2.00000
      6       5.1601      0.00000
      7       5.9494      0.00000
      8       7.0043      0.00000
      9       8.7638      0.00000
     10       8.9987      0.00000
     11       9.2082      0.00000
     12      10.1122      0.00000
     13      10.9608      0.00000
     14      12.7485      0.00000
     15      13.7417      0.00000
     16      14.7095      0.00000

 k-point    19 :       0.4286    0.1429    0.0000
  band No.  band energies     occupation 
      1     -11.5201      2.00000
      2      -8.3386      2.00000
      3      -4.2294      2.00000
      4      -2.2161      2.00000
      5       0.4519      2.00000
      6       4.3805      0.00000
      7       5.9752      0.00000
      8       7.5689      0.00000
      9       8.1393      0.00000
     10       8.9002      0.00000
     11       9.5157      0.00000
     12      10.4183      0.00000
     13      10.7683      0.00000
     14      11.1098      0.00000
     15      13.1590      0.00000
     16      15.4755      0.00000

 k-point    20 :       0.2143    0.2143    0.0000
  band No.  band energies     occupation 
      1     -14.2459      2.00000
      2      -6.5073      2.00000
      3      -4.8536      2.00000
      4       0.3001      2.00000
      5       1.2067      2.00000
      6       2.7016      0.00000
      7       5.2647      0.00000
      8       6.2224      0.00000
      9       7.4479      0.00000
     10       7.6871      0.00000
     11       9.0399      0.00000
     12      10.0515      0.00000
     13      11.3010      0.00000
     14      12.3935      0.00000
     15      13.3100      0.00000
     16      14.5935      0.00000

 k-point    21 :       0.2857    0.2143    0.0000
  band No.  band energies     occupation 
      1     -13.2322      2.00000
      2      -8.5795      2.00000
      3      -5.1082      2.00000
      4      -3.3016      2.00000
      5      -0.0416      2.00000
      6       3.5888      0.00000
      7       5.7803      0.00000
      8       6.6007      0.00000
      9       7.8299      0.00000
     10       9.0662      0.00000
     11       9.7480      0.00000
     12      10.2049      0.00000
     13      11.6429      0.00000
     14      13.0573      0.00000
     15      14.0793      0.00000
     16      15.4094      0.00000

 k-point    22 :       0.3571    0.2143    0.0000
  band No.  band energies     occupation 
      1     -12.0176      2.00000
      2      -5.8047      2.00000
      3      -3.5600      2.00000
      4      -0.2799      2.00000
      5       1.3586      2.00000
      6       4.1837      0.00000
      7       5.7352      0.00000
      8       7.7197      0.00000
      9       8.3190      0.00000
     10       8.8899      0.00000
     11       9.6525      0.00000
     12      11.5501      0.00000
     13      12.6918      0.00000
     14      13.2049      0.00000
     15      14.1024      0.00000
     16      16.3285      0.00000

 k-point    23 :       0.2857    0.2857    0.0000
  band No.  band energies     occupation 
      1     -11.8906      2.00000
      2     -10.5735      2.00000
      3      -6.0606      2.00000
      4      -1.4040      2.00000
      5       0.2816      2.00000
      6       3.5097      0.00000
      7       5.1976      0.00000
      8       7.4608      0.00000
      9       8.6456      0.00000
     10       9.3043      0.00000
     11      10.0930      0.00000
     12      10.5070      0.00000
     13      10.9598      0.00000
     14      11.5229      0.00000
     15      12.7080      0.00000
     16      14.1326      0.00000

 k-point    24 :       0.3571    0.2857    0.0000
  band No.  band energies     occupation 
      1     -11.7699      2.00000
      2      -9.8339      2.00000
      3      -5.6263      2.00000
      4      -2.0099      2.00000
      5      -1.5982      2.00000
      6       2.1673      2.00000
      7       6.6582      0.00000
      8       8.5787      0.00000
      9       9.2317      0.00000
     10       9.5135      0.00000
     11       9.7499      0.00000
     12      10.9422      0.00000
     13      11.5937      0.00000
     14      11.6930      0.00000
     15      13.0436      0.00000
     16      14.2066      0.00000


--------------------------------------------------------------------------------------------------------


 soft charge-density along one line, spin component           1
         0         1         2         3         4         5         6         7         8         9
 total charge-density along one line
 
 pseudopotential strength for first ion, spin component:           1
 28.328 -61.922   0.000   0.039   0.000  -0.000  -0.059  -0.000
-61.922 120.541  -0.000  -0.092  -0.000   0.000   0.191   0.000
  0.000  -0.000   5.966  -0.000  -0.000  -8.523   0.000   0.000
  0.039  -0.092  -0.000   5.963  -0.000   0.000  -8.521   0.000
  0.000  -0.000  -0.000  -0.000   5.966   0.000   0.000  -8.523
 -0.000   0.000  -8.523   0.000   0.000  26.378  -0.000  -0.000
 -0.059   0.191   0.000  -8.521   0.000  -0.000  26.375  -0.000
 -0.000   0.000   0.000   0.000  -8.523  -0.000  -0.000  26.378
 -0.000   0.000   0.000  -0.000   0.002  -0.000  -0.000   0.001
 -0.000   0.000   0.009   0.000  -0.000   0.003   0.000  -0.000
 -0.002   0.003   0.000   0.008  -0.000   0.000   0.001  -0.000
 -0.000   0.000  -0.000  -0.000   0.009  -0.000  -0.000   0.003
  0.000  -0.000   0.002   0.000   0.000   0.001   0.000   0.000
 -0.000   0.000   0.000  -0.000   0.006  -0.000   0.000  -0.008
 -0.000   0.000   0.026   0.000  -0.000  -0.056  -0.000   0.000
 -0.003   0.001   0.000   0.020  -0.000  -0.000  -0.051   0.000
 -0.000   0.000  -0.000  -0.000   0.026   0.000   0.000  -0.056
  0.000  -0.000   0.006   0.000   0.000  -0.008  -0.000  -0.000
 total augmentation occupancy for first ion, spin component:           1
  2.000   0.000   0.000   0.000   0.000   0.000   0.000   0.000   0.000   0.000   0.000   0.000   0.000   0.000   0.000   0.000
  0.000   0.000   0.000   0.000   0.000   0.000   0.000   0.000   0.000   0.000   0.000   0.000   0.000   0.000   0.000   0.000
  0.000   0.000   1.000   0.000   0.000   0.000   0.000   0.000   0.000   0.000   0.000   0.000   0.000   0.000   0.000   0.000
  0.000   0.000   0.000   1.000   0.000   0.000   0.000   0.000   0.000   0.000   0.000   0.000   0.000   0.000   0.000   0.000
  0.000   0.000   0.000   0.000   1.000   0.000   0.000   0.000   0.000   0.000   0.000   0.000   0.000   0.000   0.000   0.000
  0.000   0.000   0.000   0.000   0.000   0.000   0.000   0.000   0.000   0.000   0.000   0.000   0.000   0.000   0.000   0.000
  0.000   0.000   0.000   0.000   0.000   0.000   0.000   0.000   0.000   0.000   0.000   0.000   0.000   0.000   0.000   0.000
  0.000   0.000   0.000   0.000   0.000   0.000   0.000   0.000   0.000   0.000   0.000   0.000   0.000   0.000   0.000   0.000
  0.000   0.000   0.000   0.000   0.000   0.000   0.000   0.000   0.000   0.000   0.000   0.000   0.000   0.000   0.000   0.000
  0.000   0.000   0.000   0.000   0.000   0.000   0.000   0.000   0.000   0.000   0.000   0.000   0.000   0.000   0.000   0.000
  0.000   0.000   0.000   0.000   0.000   0.000   0.000   0.000   0.000   0.000   0.000   0.000   0.000   0.000   0.000   0.000
  0.000   0.000   0.000   0.000   0.000   0.000   0.000   0.000   0.000   0.000   0.000   0.000   0.000   0.000   0.000   0.000
  0.000   0.000   0.000   0.000   0.000   0.000   0.000   0.000   0.000   0.000   0.000   0.000   0.000   0.000   0.000   0.000
  0.000   0.000   0.000   0.000   0.000   0.000   0.000   0.000   0.000   0.000   0.000   0.000   0.000   0.000   0.000   0.000
  0.000   0.000   0.000   0.000   0.000   0.000   0.000   0.000   0.000   0.000   0.000   0.000   0.000   0.000   0.000   0.000
  0.000   0.000   0.000   0.000   0.000   0.000   0.000   0.000   0.000   0.000   0.000   0.000   0.000   0.000   0.000   0.000
  0.000   0.000   0.000   0.000   0.000   0.000   0.000   0.000   0.000   0.000   0.000   0.000   0.000   0.000   0.000   0.000
  0.000   0.000   0.000   0.000   0.000   0.000   0.000   0.000   0.000   0.000   0.000   0.000   0.000   0.000   0.000   0.000


--------------------------------------- Iteration      1(   2)  ---------------------------------------


     EDDAV:  cpu time      0.2686: real time      0.2692
       DOS:  cpu time      0.0006: real time      0.0006
    --------------------------------------------
      LOOP:  cpu time      0.2692: real time      0.2699

 eigenvalue-minimisations  :  1232
 total energy-change (2. order) :-0.3586979E+02  (-0.3548435E+02)
 number of electron      10.0000000 magnetization 
 augmentation part       10.0000000 magnetization 

 Free energy of the ion-electron system (eV)
  ---------------------------------------------------
  alpha Z        PSCENC =         3.71007814
  Ewald energy   TEWEN  =       532.05671883
  -Hartree energ DENC   =      -831.27649906
  -exchange      EXHF   =         0.00000000
  -V(xc)+E(xc)   XCENC  =        -7.59803197
  PAW double counting   =       293.95507915     -263.19716017
  entropy T*S    EENTRO =        -0.00000000
  eigenvalues    EBANDS =       -89.69841985
  atomic energy  EATOM  =       352.07568098
  Solvation  Ediel_sol  =         0.00000000
  ---------------------------------------------------
  free energy    TOTEN  =        -9.97255395 eV

  energy without entropy =       -9.97255395  energy(sigma->0) =       -9.97255395


--------------------------------------------------------------------------------------------------------




 average (electrostatic) potential at core
  the test charge radii are     1.0220
  (the norm of the test charge is              1.0000)
       1 -83.1835       2 -83.1835
 
 
 
 E-fermi :  -3.5874     XC(G=0):  -3.3790     alpha+bet : -2.8518

 Fermi energy:        -3.5873869436

 k-point     1 :       0.0000    0.0000    0.0000
  band No.  band energies     occupation 
      1     -17.9557      2.00000
      2     -10.1770      2.00000
      3      -4.1273      2.00000
      4      -3.7902      2.00000
      5      -3.6293      2.00000
      6       0.2071      0.00000
      7       0.4038      0.00000
      8       1.2063      0.00000
      9       1.9862      0.00000
     10       2.4619      0.00000
     11       3.8323      0.00000
     12       4.4054      0.00000
     13       6.2867      0.00000
     14       6.8957      0.00000
     15       7.4519      0.00000
     16       7.7332      0.00000

 k-point     2 :       0.0714    0.0000    0.0000
  band No.  band energies     occupation 
      1     -17.8685      2.00000
      2     -10.1208      2.00000
      3      -4.6587      2.00000
      4      -4.1428      2.00000
      5      -4.0873      2.00000
      6       0.2324      0.00000
      7       0.6471      0.00000
      8       1.0262      0.00000
      9       2.0577      0.00000
     10       2.5458      0.00000
     11       3.8879      0.00000
     12       4.5066      0.00000
     13       5.9298      0.00000
     14       7.1133      0.00000
     15       7.5441      0.00000
     16       7.9784      0.00000

 k-point     3 :       0.1429    0.0000    0.0000
  band No.  band energies     occupation 
      1     -17.6347      2.00000
      2     -10.0187      2.00000
      3      -5.9537      2.00000
      4      -4.4745      2.00000
      5      -4.0221      2.00000
      6      -0.5527      0.00000
      7       1.0472      0.00000
      8       1.7237      0.00000
      9       2.3404      0.00000
     10       2.7935      0.00000
     11       3.9554      0.00000
     12       4.7488      0.00000
     13       4.8393      0.00000
     14       6.2866      0.00000
     15       6.7068      0.00000
     16       7.5644      0.00000

 k-point     4 :       0.2143   -0.0000    0.0000
  band No.  band energies     occupation 
      1     -17.2127      2.00000
      2      -9.8863      2.00000
      3      -7.2510      2.00000
      4      -4.9756      2.00000
      5      -3.8595      2.00000
      6      -1.0707      0.00000
      7       1.6359      0.00000
      8       1.9508      0.00000
      9       2.7729      0.00000
     10       3.3919      0.00000
     11       4.5882      0.00000
     12       5.1785      0.00000
     13       5.7023      0.00000
     14       6.5322      0.00000
     15       7.0522      0.00000
     16       8.1537      0.00000

 k-point     5 :       0.2857    0.0000    0.0000
  band No.  band energies     occupation 
      1     -16.6873      2.00000
      2     -10.2733      2.00000
      3      -7.8814      2.00000
      4      -5.3961      2.00000
      5      -3.8485      2.00000
      6      -1.6129      0.00000
      7       0.9485      0.00000
      8       1.8165      0.00000
      9       3.3922      0.00000
     10       3.8389      0.00000
     11       4.6499      0.00000
     12       5.6268      0.00000
     13       6.0502      0.00000
     14       6.8200      0.00000
     15       7.5159      0.00000
     16       8.7638      0.00000

 k-point     6 :       0.3571    0.0000    0.0000
  band No.  band energies     occupation 
      1     -15.9670      2.00000
      2     -11.2317      2.00000
      3      -7.6986      2.00000
      4      -5.7074      2.00000
      5      -4.2004      2.00000
      6      -1.6413      0.00000
      7       0.3855      0.00000
      8       1.8630      0.00000
      9       3.5809      0.00000
     10       4.2787      0.00000
     11       5.0501      0.00000
     12       6.3186      0.00000
     13       6.8238      0.00000
     14       8.0886      0.00000
     15       9.3289      0.00000
     16       9.7141      0.00000

 k-point     7 :       0.4286   -0.0000    0.0000
  band No.  band energies     occupation 
      1     -15.2409      2.00000
      2     -12.2175      2.00000
      3      -7.1630      2.00000
      4      -5.9225      2.00000
      5      -4.6907      2.00000
      6      -1.6029      0.00000
      7       0.0737      0.00000
      8       1.9892      0.00000
      9       3.2421      0.00000
     10       5.2844      0.00000
     11       5.9638      0.00000
     12       6.9813      0.00000
     13       7.7245      0.00000
     14       7.9461      0.00000
     15       8.2527      0.00000
     16       8.9254      0.00000

 k-point     8 :       0.5000   -0.0000    0.0000
  band No.  band energies     occupation 
      1     -14.8304      2.00000
      2     -12.7512      2.00000
      3      -6.9171      2.00000
      4      -5.8907      2.00000
      5      -5.1371      2.00000
      6      -1.6233      0.00000
      7      -0.0889      0.00000
      8       1.9961      0.00000
      9       2.8924      0.00000
     10       6.3669      0.00000
     11       6.4312      0.00000
     12       6.8525      0.00000
     13       7.2701      0.00000
     14       7.7724      0.00000
     15       8.5855      0.00000
     16       8.9889      0.00000

 k-point     9 :       0.0714    0.0714    0.0000
  band No.  band energies     occupation 
      1     -17.7007      2.00000
      2     -10.0166      2.00000
      3      -5.4616      2.00000
      4      -4.5129      2.00000
      5      -4.0685      2.00000
      6       0.1644      0.00000
      7       0.6153      0.00000
      8       2.0622      0.00000
      9       2.3754      0.00000
     10       2.6962      0.00000
     11       3.9641      0.00000
     12       4.7068      0.00000
     13       5.1900      0.00000
     14       6.0354      0.00000
     15       7.4261      0.00000
     16       7.6836      0.00000

 k-point    10 :       0.1429    0.0714    0.0000
  band No.  band energies     occupation 
      1     -17.3740      2.00000
      2      -9.9038      2.00000
      3      -6.6984      2.00000
      4      -5.0846      2.00000
      5      -3.9476      2.00000
      6      -0.4280      0.00000
      7       1.0373      0.00000
      8       2.3516      0.00000
      9       2.6262      0.00000
     10       3.0799      0.00000
     11       3.9375      0.00000
     12       4.8705      0.00000
     13       5.0417      0.00000
     14       6.8921      0.00000
     15       7.8085      0.00000
     16       8.1629      0.00000

 k-point    11 :       0.2143    0.0714    0.0000
  band No.  band energies     occupation 
      1     -16.8856      2.00000
      2      -9.9676      2.00000
      3      -7.6750      2.00000
      4      -5.6831      2.00000
      5      -3.7779      2.00000
      6      -0.8627      0.00000
      7       1.3328      0.00000
      8       1.6563      0.00000
      9       3.1321      0.00000
     10       3.6396      0.00000
     11       4.4996      0.00000
     12       5.4374      0.00000
     13       5.6574      0.00000
     14       6.3533      0.00000
     15       8.1252      0.00000
     16       8.8613      0.00000

 k-point    12 :       0.2857    0.0714    0.0000
  band No.  band energies     occupation 
      1     -16.2998      2.00000
      2     -10.7181      2.00000
      3      -7.8020      2.00000
      4      -5.9928      2.00000
      5      -3.8834      2.00000
      6      -1.2821      0.00000
      7       0.7728      0.00000
      8       1.5389      0.00000
      9       3.7950      0.00000
     10       3.9888      0.00000
     11       4.7363      0.00000
     12       5.9315      0.00000
     13       6.2967      0.00000
     14       6.4401      0.00000
     15       8.4262      0.00000
     16       9.0851      0.00000

 k-point    13 :       0.3571    0.0714    0.0000
  band No.  band energies     occupation 
      1     -15.5359      2.00000
      2     -11.7597      2.00000
      3      -7.4448      2.00000
      4      -6.3045      2.00000
      5      -4.4367      2.00000
      6      -1.1706      0.00000
      7       0.4379      0.00000
      8       1.7705      0.00000
      9       3.7151      0.00000
     10       4.8309      0.00000
     11       5.5311      0.00000
     12       6.8005      0.00000
     13       7.3611      0.00000
     14       8.0804      0.00000
     15       8.9780      0.00000
     16       9.4863      0.00000

 k-point    14 :       0.4286    0.0714    0.0000
  band No.  band energies     occupation 
      1     -14.9071      2.00000
      2     -12.5704      2.00000
      3      -7.0043      2.00000
      4      -6.2323      2.00000
      5      -5.0015      2.00000
      6      -0.9009      0.00000
      7       0.0667      0.00000
      8       1.8688      0.00000
      9       2.9803      0.00000
     10       6.0324      0.00000
     11       6.5512      0.00000
     12       7.2586      0.00000
     13       7.7561      0.00000
     14       8.0395      0.00000
     15       8.5597      0.00000
     16       8.9869      0.00000

 k-point    15 :       0.1429    0.1429    0.0000
  band No.  band energies     occupation 
      1     -16.9946      2.00000
      2      -9.9552      2.00000
      3      -7.4372      2.00000
      4      -5.9627      2.00000
      5      -3.7299      2.00000
      6      -0.2573      0.00000
      7       0.7470      0.00000
      8       2.5032      0.00000
      9       2.9220      0.00000
     10       3.0718      0.00000
     11       3.8673      0.00000
     12       5.1571      0.00000
     13       5.4447      0.00000
     14       6.4363      0.00000
     15       7.9189      0.00000
     16       8.4942      0.00000

 k-point    16 :       0.2143    0.1429    0.0000
  band No.  band energies     occupation 
      1     -16.4106      2.00000
      2     -10.3813      2.00000
      3      -7.6761      2.00000
      4      -6.4262      2.00000
      5      -3.7358      2.00000
      6      -0.4527      0.00000
      7       0.9420      0.00000
      8       1.7969      0.00000
      9       3.4846      0.00000
     10       3.7697      0.00000
     11       4.4719      0.00000
     12       5.7089      0.00000
     13       5.8761      0.00000
     14       6.3868      0.00000
     15       8.8101      0.00000
     16       9.6551      0.00000

 k-point    17 :       0.2857    0.1429    0.0000
  band No.  band energies     occupation 
      1     -15.6917      2.00000
      2     -11.2746      2.00000
      3      -7.5570      2.00000
      4      -6.8428      2.00000
      5      -4.0414      2.00000
      6      -0.3828      0.00000
      7       0.6761      0.00000
      8       1.6750      0.00000
      9       4.2752      0.00000
     10       4.6006      0.00000
     11       5.2803      0.00000
     12       6.3325      0.00000
     13       6.5538      0.00000
     14       7.1669      0.00000
     15       8.5686      0.00000
     16       9.5583      0.00000

 k-point    18 :       0.3571    0.1429    0.0000
  band No.  band energies     occupation 
      1     -15.0050      2.00000
      2     -12.2384      2.00000
      3      -7.5045      2.00000
      4      -6.6596      2.00000
      5      -4.6956      2.00000
      6      -0.3384      0.00000
      7       0.5517      0.00000
      8       1.5497      0.00000
      9       3.6834      0.00000
     10       5.6080      0.00000
     11       6.1664      0.00000
     12       7.1332      0.00000
     13       7.4038      0.00000
     14       8.1902      0.00000
     15       8.2961      0.00000
     16       8.9309      0.00000

 k-point    19 :       0.4286    0.1429    0.0000
  band No.  band energies     occupation 
      1     -14.5651      2.00000
      2     -12.6962      2.00000
      3      -7.7114      2.00000
      4      -6.3131      2.00000
      5      -4.9784      2.00000
      6      -0.4881      0.00000
      7       0.2170      0.00000
      8       1.3847      0.00000
      9       3.2855      0.00000
     10       6.6904      0.00000
     11       6.9626      0.00000
     12       7.1884      0.00000
     13       7.2613      0.00000
     14       7.9681      0.00000
     15       8.5180      0.00000
     16       9.3134      0.00000

 k-point    20 :       0.2143    0.2143    0.0000
  band No.  band energies     occupation 
      1     -15.7776      2.00000
      2     -11.0412      2.00000
      3      -7.4727      2.00000
      4      -7.3401      2.00000
      5      -4.0041      2.00000
      6      -0.0772      0.00000
      7       0.1416      0.00000
      8       2.8088      0.00000
      9       3.4158      0.00000
     10       4.5055      0.00000
     11       5.1234      0.00000
     12       5.1896      0.00000
     13       6.4575      0.00000
     14       7.0186      0.00000
     15       8.0287      0.00000
     16      10.0518      0.00000

 k-point    21 :       0.2857    0.2143    0.0000
  band No.  band energies     occupation 
      1     -15.1227      2.00000
      2     -11.9334      2.00000
      3      -8.1458      2.00000
      4      -6.8518      2.00000
      5      -4.4853      2.00000
      6      -0.6819      0.00000
      7       0.5286      0.00000
      8       2.2422      0.00000
      9       3.7494      0.00000
     10       5.2069      0.00000
     11       5.4257      0.00000
     12       5.8021      0.00000
     13       6.6300      0.00000
     14       7.8045      0.00000
     15       7.9073      0.00000
[...]

 eigenvalues of (default mixing * dielectric matrix)
  average eigenvalue GAMMA=   4.2461
  8.7751  8.7751  6.3967  5.3803  1.6371  0.9937  1.0053  1.0053

 Free energy of the ion-electron system (eV)
  ---------------------------------------------------
  -Hartree energ DENC   =        -0.09149160
  -V(xc)+E(xc)   XCENC  =         0.00193493
  PAW double counting   =         0.00526848       -0.00526646
  entropy T*S    EENTRO =         0.00000000
  eigenvalues    EBANDS =        -0.04566800
  ---------------------------------------------------
  free energy    TOTEN  =        -0.13522266 eV

  energy without entropy =       -0.13522266


----------------------------------------- Iteration    3(  11)  ---------------------------------------


   POT+DIJ:  cpu time      0.2745: real time      0.2746
    HAMIL1:  cpu time      0.0259: real time      0.0259
    LRDIAG:  cpu time      0.0117: real time      0.0117
    LRDIIS:  cpu time      0.1413: real time      0.1414
    LRDIAG:  cpu time      0.0105: real time      0.0105
    MIXING:  cpu time      0.0007: real time      0.0007
    --------------------------------------------
      LOOP:  cpu time      0.4937: real time      0.4939

 Broyden mixing:
  rms(total) = 0.46099E-04    rms(broyden)= 0.46091E-04
  rms(prec ) = 0.53785E-04
  weight for this iteration     100.00

 eigenvalues of (default mixing * dielectric matrix)
  average eigenvalue GAMMA=   4.0368
 10.2200  8.3066  6.9210  5.2430  1.6371  1.0312  1.0312  0.9705  0.9705

 Free energy of the ion-electron system (eV)
  ---------------------------------------------------
  -Hartree energ DENC   =        -0.09147699
  -V(xc)+E(xc)   XCENC  =         0.00193563
  PAW double counting   =         0.00531129       -0.00531007
  entropy T*S    EENTRO =         0.00000000
  eigenvalues    EBANDS =        -0.04568371
  ---------------------------------------------------
  free energy    TOTEN  =        -0.13522385 eV

  energy without entropy =       -0.13522385


----------------------------------------- Iteration    3(  12)  ---------------------------------------


   POT+DIJ:  cpu time      0.2713: real time      0.2715
    HAMIL1:  cpu time      0.0275: real time      0.0275
    LRDIAG:  cpu time      0.0118: real time      0.0118
    LRDIIS:  cpu time      0.1337: real time      0.1337
    LRDIAG:  cpu time      0.0104: real time      0.0104
    MIXING:  cpu time      0.0007: real time      0.0007
    --------------------------------------------
      LOOP:  cpu time      0.4843: real time      0.4845

 Broyden mixing:
  rms(total) = 0.13775E-04    rms(broyden)= 0.13774E-04
  rms(prec ) = 0.15695E-04
  weight for this iteration     100.00

 eigenvalues of (default mixing * dielectric matrix)
  average eigenvalue GAMMA=   3.9601
 10.2281  8.2506  7.0287  5.2619  3.1809  1.6371  1.0270  0.9956  0.9956  0.9958

 Free energy of the ion-electron system (eV)
  ---------------------------------------------------
  -Hartree energ DENC   =        -0.09148777
  -V(xc)+E(xc)   XCENC  =         0.00193639
  PAW double counting   =         0.00530340       -0.00530237
  entropy T*S    EENTRO =         0.00000000
  eigenvalues    EBANDS =        -0.04567633
  ---------------------------------------------------
  free energy    TOTEN  =        -0.13522667 eV

  energy without entropy =       -0.13522667


----------------------------------------- Iteration    3(  13)  ---------------------------------------


   POT+DIJ:  cpu time      0.2672: real time      0.2673
    HAMIL1:  cpu time      0.0256: real time      0.0256
    LRDIAG:  cpu time      0.0118: real time      0.0118
    LRDIIS:  cpu time      0.1443: real time      0.1444
    LRDIAG:  cpu time      0.0133: real time      0.0134
    MIXING:  cpu time      0.0010: real time      0.0010
    --------------------------------------------
      LOOP:  cpu time      0.4942: real time      0.4944

 Broyden mixing:
  rms(total) = 0.81134E-05    rms(broyden)= 0.81133E-05
  rms(prec ) = 0.93875E-05
  weight for this iteration     100.00

 eigenvalues of (default mixing * dielectric matrix)
  average eigenvalue GAMMA=   4.2777
 10.3996  9.9148  7.9157  6.9513  5.2175  1.6371  1.0411  1.0094  1.0094  0.9795
  0.9795

 Free energy of the ion-electron system (eV)
  ---------------------------------------------------
  -Hartree energ DENC   =        -0.09148840
  -V(xc)+E(xc)   XCENC  =         0.00193640
  PAW double counting   =         0.00530157       -0.00530052
  entropy T*S    EENTRO =         0.00000000
  eigenvalues    EBANDS =        -0.04567580
  ---------------------------------------------------
  free energy    TOTEN  =        -0.13522677 eV

  energy without entropy =       -0.13522677


------------------------ aborting loop because EDIFF is reached ----------------------------------------


 change of polarisation eV/A/(eV/A) component  3 :    -0.006    -0.002     0.253
 dielectric tensor                  component  3 :    -0.008    -0.003     1.307


--------------------------------------------------------------------------------------------------------


    FORLOC:  cpu time      0.0006: real time      0.0006
    FORNL :  cpu time      0.0466: real time      0.0467
    STRESS:  cpu time      0.2553: real time      0.2556
    FORCOR:  cpu time      0.0092: real time      0.0092
    OFIELD:  cpu time      0.0001: real time      0.0001
    FORLOC:  cpu time      0.0006: real time      0.0006
    FORNL :  cpu time      0.0462: real time      0.0463
    STRESS:  cpu time      0.2630: real time      0.2714
    FORCOR:  cpu time      0.0101: real time      0.0102
    OFIELD:  cpu time      0.0001: real time      0.0001
    FORNLD:  cpu time      0.0820: real time      0.0820

 PIEZOELECTRIC TENSOR FIELD DIRECTION 3  (e Angst)
 -----------------------------------------------------------------------------
    -0.00015 -0.00000 -0.00000           ( -0.00000 -0.00000 -0.00000)
     0.00000 -0.00015  0.00000           ( -0.00000 -0.00000  0.00000)
    -0.00000  0.00000  0.00006           ( -0.00000  0.00000  0.00000)

 PIEZOELECTRIC TENSOR FIELD DIRECTION 3  (C/m^2)
 -----------------------------------------------------------------------------
    -0.00002 -0.00000 -0.00000
     0.00000 -0.00002  0.00000
    -0.00000  0.00000  0.00001


      POSITION         DIRECTION 3           BORN EFFECTIVE CHARGE    (rigid.aug.   ionic)
 -----------------------------------------------------------------------------------------
      1.64117      0.94753      7.37185     0.00000 -0.00000  0.00350 (  0.53946  5.00000)
      0.00000      1.89506      8.62815    -0.00000 -0.00000  0.00364 (  0.53946  5.00000)
 -----------------------------------------------------------------------------------------
    total drift (improves with k-points):  -0.00000 -0.00000  0.00715




--------------------------------------------------------------------------------------------------------


  LATTYP: Found a hexagonal cell.
 ALAT       =     3.2823434942
 C/A-ratio  =     4.8745660009
  
  Lattice vectors:
  
 A1 = (   3.2823434942,   0.0000000000,   0.0000000000)
 A2 = (  -1.6411717471,   2.8425928499,   0.0000000000)
 A3 = (   0.0000000000,   0.0000000000,  16.0000000000)


Analysis of symmetry for initial positions (statically):
=====================================================================
 Subroutine PRICEL returns:
 Original cell was already a primitive cell.
 

 Routine SETGRP: Setting up the symmetry group for a 
 hexagonal supercell.


 Subroutine GETGRP returns: Found 12 space group operations
 (whereof 12 operations were pure point group operations)
 out of a pool of 24 trial point group operations.


The static configuration has the point symmetry D_3d.


Analysis of symmetry for dynamics (positions and initial velocities):
=====================================================================
 Subroutine PRICEL returns:
 Original cell was already a primitive cell.
 

 Routine SETGRP: Setting up the symmetry group for a 
 hexagonal supercell.


 Subroutine GETGRP returns: Found 12 space group operations
 (whereof 12 operations were pure point group operations)
 out of a pool of 24 trial point group operations.


The dynamic configuration has the point symmetry D_3d.


 Subroutine INISYM returns: Found 12 space group operations
 (whereof 12 operations are pure point group operations),
 and found     1 'primitive' translations

 
 KPOINTS: kpoints                                 

Automatic generation of k-mesh.
 Grid dimensions read from file:
 generate k-points for:   14   14    1

 Generating k-lattice:

  Cartesian coordinates                     Fractional coordinates (reciprocal lattice)
     0.021761455  0.012563982  0.000000000     0.071428571  0.000000000  0.000000000
     0.000000000  0.025127964  0.000000000     0.000000000  0.071428571  0.000000000
     0.000000000  0.000000000  0.062500000     0.000000000  0.000000000  1.000000000

  Length of vectors
     0.025127964  0.025127964  0.062500000

  Shift w.r.t. Gamma in fractional coordinates (k-lattice)
     0.000000000  0.000000000  0.000000000

 
 Subroutine IBZKPT returns following result:
 ===========================================
 
 Found     24 irreducible k-points:
 
 Following reciprocal coordinates:
            Coordinates               Weight
  0.000000  0.000000  0.000000      1.000000
  0.071429  0.000000  0.000000      6.000000
  0.142857  0.000000  0.000000      6.000000
  0.214286 -0.000000  0.000000      6.000000
  0.285714  0.000000  0.000000      6.000000
  0.357143  0.000000  0.000000      6.000000
  0.428571 -0.000000  0.000000      6.000000
  0.500000 -0.000000  0.000000      3.000000
  0.071429  0.071429  0.000000      6.000000
  0.142857  0.071429  0.000000     12.000000
  0.214286  0.071429  0.000000     12.000000
  0.285714  0.071429  0.000000     12.000000
  0.357143  0.071429  0.000000     12.000000
  0.428571  0.071429  0.000000     12.000000
  0.142857  0.142857  0.000000      6.000000
  0.214286  0.142857  0.000000     12.000000
  0.285714  0.142857  0.000000     12.000000
  0.357143  0.142857  0.000000     12.000000
  0.428571  0.142857  0.000000      6.000000
  0.214286  0.214286  0.000000      6.000000
  0.285714  0.214286  0.000000     12.000000
  0.357143  0.214286  0.000000     12.000000
  0.285714  0.285714  0.000000      6.000000
  0.357143  0.285714  0.000000      6.000000
 
 Following cartesian coordinates:
            Coordinates               Weight
  0.000000  0.000000  0.000000      1.000000
  0.021761  0.012564  0.000000      6.000000
  0.043523  0.025128  0.000000      6.000000
  0.065284  0.037692  0.000000      6.000000
  0.087046  0.050256  0.000000      6.000000
  0.108807  0.062820  0.000000      6.000000
  0.130569  0.075384  0.000000      6.000000
  0.152330  0.087948  0.000000      3.000000
  0.021761  0.037692  0.000000      6.000000
  0.043523  0.050256  0.000000     12.000000
  0.065284  0.062820  0.000000     12.000000
  0.087046  0.075384  0.000000     12.000000
  0.108807  0.087948  0.000000     12.000000
  0.130569  0.100512  0.000000     12.000000
  0.043523  0.075384  0.000000      6.000000
  0.065284  0.087948  0.000000     12.000000
  0.087046  0.100512  0.000000     12.000000
  0.108807  0.113076  0.000000     12.000000
  0.130569  0.125640  0.000000      6.000000
  0.065284  0.113076  0.000000      6.000000
  0.087046  0.125640  0.000000     12.000000
  0.108807  0.138204  0.000000     12.000000
  0.087046  0.150768  0.000000      6.000000
  0.108807  0.163332  0.000000      6.000000
 


 MACROSCOPIC STATIC DIELECTRIC TENSOR (including local field effects in DFT)
 ------------------------------------------------------
           4.097290     0.000000     0.000000
           0.000000     4.097290    -0.000000
          -0.000000    -0.000000     1.306714
 ------------------------------------------------------



--------------------------------------------------------------------------------------------------------


  LATTYP: Found a hexagonal cell.
 ALAT       =     3.2823434942
 C/A-ratio  =     4.8745660009
  
  Lattice vectors:
  
 A1 = (   3.2823434942,   0.0000000000,   0.0000000000)
 A2 = (  -1.6411717471,   2.8425928499,   0.0000000000)
 A3 = (   0.0000000000,   0.0000000000,  16.0000000000)


Analysis of symmetry for initial positions (statically):
=====================================================================
 Subroutine PRICEL returns:
 Original cell was already a primitive cell.
 

 Routine SETGRP: Setting up the symmetry group for a 
 hexagonal supercell.


 Subroutine GETGRP returns: Found 12 space group operations
 (whereof 12 operations were pure point group operations)
 out of a pool of 24 trial point group operations.


The static configuration has the point symmetry D_3d.


Analysis of symmetry for dynamics (positions and initial velocities):
=====================================================================
 Subroutine PRICEL returns:
 Original cell was already a primitive cell.
 

 Routine SETGRP: Setting up the symmetry group for a 
 hexagonal supercell.


 Subroutine GETGRP returns: Found 12 space group operations
 (whereof 12 operations were pure point group operations)
 out of a pool of 24 trial point group operations.


The dynamic configuration has the point symmetry D_3d.


 Subroutine INISYM returns: Found 12 space group operations
 (whereof 12 operations are pure point group operations),
 and found     1 'primitive' translations

 
 KPOINTS: kpoints                                 

Automatic generation of k-mesh.
 Grid dimensions read from file:
 generate k-points for:   14   14    1

 Generating k-lattice:

  Cartesian coordinates                     Fractional coordinates (reciprocal lattice)
     0.021761455  0.012563982  0.000000000     0.071428571  0.000000000  0.000000000
     0.000000000  0.025127964  0.000000000     0.000000000  0.071428571  0.000000000
     0.000000000  0.000000000  0.062500000     0.000000000  0.000000000  1.000000000

  Length of vectors
     0.025127964  0.025127964  0.062500000

  Shift w.r.t. Gamma in fractional coordinates (k-lattice)
     0.000000000  0.000000000  0.000000000

 
 Subroutine IBZKPT returns following result:
 ===========================================
 
 Found     24 irreducible k-points:
 
 Following reciprocal coordinates:
            Coordinates               Weight
  0.000000  0.000000  0.000000      1.000000
  0.071429  0.000000  0.000000      6.000000
  0.142857  0.000000  0.000000      6.000000
  0.214286 -0.000000  0.000000      6.000000
  0.285714  0.000000  0.000000      6.000000
  0.357143  0.000000  0.000000      6.000000
  0.428571 -0.000000  0.000000      6.000000
  0.500000 -0.000000  0.000000      3.000000
  0.071429  0.071429  0.000000      6.000000
  0.142857  0.071429  0.000000     12.000000
  0.214286  0.071429  0.000000     12.000000
  0.285714  0.071429  0.000000     12.000000
  0.357143  0.071429  0.000000     12.000000
  0.428571  0.071429  0.000000     12.000000
  0.142857  0.142857  0.000000      6.000000
  0.214286  0.142857  0.000000     12.000000
  0.285714  0.142857  0.000000     12.000000
  0.357143  0.142857  0.000000     12.000000
  0.428571  0.142857  0.000000      6.000000
  0.214286  0.214286  0.000000      6.000000
  0.285714  0.214286  0.000000     12.000000
  0.357143  0.214286  0.000000     12.000000
  0.285714  0.285714  0.000000      6.000000
  0.357143  0.285714  0.000000      6.000000
 
 Following cartesian coordinates:
            Coordinates               Weight
  0.000000  0.000000  0.000000      1.000000
  0.021761  0.012564  0.000000      6.000000
  0.043523  0.025128  0.000000      6.000000
  0.065284  0.037692  0.000000      6.000000
  0.087046  0.050256  0.000000      6.000000
  0.108807  0.062820  0.000000      6.000000
  0.130569  0.075384  0.000000      6.000000
  0.152330  0.087948  0.000000      3.000000
  0.021761  0.037692  0.000000      6.000000
  0.043523  0.050256  0.000000     12.000000
  0.065284  0.062820  0.000000     12.000000
  0.087046  0.075384  0.000000     12.000000
  0.108807  0.087948  0.000000     12.000000
  0.130569  0.100512  0.000000     12.000000
  0.043523  0.075384  0.000000      6.000000
  0.065284  0.087948  0.000000     12.000000
  0.087046  0.100512  0.000000     12.000000
  0.108807  0.113076  0.000000     12.000000
  0.130569  0.125640  0.000000      6.000000
  0.065284  0.113076  0.000000      6.000000
  0.087046  0.125640  0.000000     12.000000
  0.108807  0.138204  0.000000     12.000000
  0.087046  0.150768  0.000000      6.000000
  0.108807  0.163332  0.000000      6.000000
 


--------------------------------------------------------------------------------------------------------




 MACROSCOPIC STATIC DIELECTRIC TENSOR (including local field effects in DFT)
 ------------------------------------------------------
           4.097290     0.000000     0.000000
           0.000000     4.097290    -0.000000
          -0.000000    -0.000000     1.306714
 ------------------------------------------------------


 PIEZOELECTRIC TENSOR (including local field effects)  for field in x, y, z        (e  Angst)
          XX          YY          ZZ          XY          YZ          ZX
  --------------------------------------------------------------------------------
  x     0.00000     0.00000     0.00000     0.00000     0.00000     0.00000
  y     0.00000     0.00000     0.00000     0.00000     0.00000     0.00000
  z     0.00000     0.00000     0.00000     0.00000     0.00000     0.00000

 PIEZOELECTRIC TENSOR (including local field effects)  for field in x, y, z        (C/m^2)
          XX          YY          ZZ          XY          YZ          ZX
  --------------------------------------------------------------------------------
  x     0.00000     0.00000     0.00000     0.00000     0.00000     0.00000
  y     0.00000     0.00000     0.00000     0.00000     0.00000     0.00000
  z     0.00000     0.00000     0.00000     0.00000     0.00000     0.00000
 
 BORN EFFECTIVE CHARGES (including local field effects) (in |e|, cummulative output)
 ---------------------------------------------------------------------------------
 ion    1
    1     0.00000     0.00000     0.00000
    2     0.00000     0.00000     0.00000
    3     0.00000     0.00000     0.00000
 ion    2
    1     0.00000     0.00000     0.00000
    2     0.00000     0.00000     0.00000
    3     0.00000     0.00000     0.00000


--------------------------------------------------------------------------------------------------------


     LOOP+:  cpu time     54.5093: real time     59.5116
    4ORBIT:  cpu time      0.0000: real time      0.0000



 total charge

# of ion       s       p       d       tot
------------------------------------------
    1        1.218   1.526   0.094   2.838
    2        1.218   1.526   0.094   2.838
--------------------------------------------------
tot          2.436   3.051   0.189   5.676
 

 total amount of memory used by VASP MPI-rank0    41216. kBytes
=======================================================================

   base      :      30000. kBytes
   nonl-proj :       5915. kBytes
   fftplans  :       2490. kBytes
   grid      :       2111. kBytes
   one-center:         31. kBytes
   wavefun   :        669. kBytes
 
  
  
 General timing and accounting informations for this job:
 ========================================================
  
                  Total CPU time used (sec):       55.118
                            User time (sec):       54.782
                          System time (sec):        0.336
                         Elapsed time (sec):       61.022
  
                   Maximum memory used (kb):      166436.
                   Average memory used (kb):          N/A
  
                          Minor page faults:        53312
                          Major page faults:         2822
                 Voluntary context switches:          571
