PROCAR new format
# of k-points:  100         # of bands:   16         # of ions:    2

 k-point     1 :    0.00000000 0.00000000 0.00000000     weight = 0.00510204

band     1 # energy  -17.47317127 # occ.  2.00000000
 
ion      s      p      d    tot
    1  0.261  0.016  0.000  0.277
    2  0.261  0.016  0.000  0.277
tot    0.522  0.032  0.001  0.554
 
band     2 # energy   -9.75921364 # occ.  2.00000000
 
ion      s      p      d    tot
    1  0.212  0.052  0.003  0.268
    2  0.212  0.052  0.003  0.268
tot    0.424  0.105  0.007  0.535
 
band     3 # energy   -3.76869838 # occ.  2.00000000
 
ion      s      p      d    tot
    1  0.005  0.207  0.004  0.215
    2  0.005  0.207  0.004  0.215
tot    0.009  0.413  0.008  0.431
 
band     4 # energy   -3.55534553 # occ.  2.00000000
 
ion      s      p      d    tot
    1  0.000  0.311  0.034  0.345
    2  0.000  0.311  0.034  0.345
tot    0.000  0.621  0.068  0.690
 
band     5 # energy   -3.43513491 # occ.  2.00000000
 
ion      s      p      d    tot
    1  0.000  0.309  0.034  0.342
    2  0.000  0.309  0.034  0.342
tot    0.000  0.617  0.067  0.685
 
band     6 # energy    0.36775288 # occ.  0.00000000
 
ion      s      p      d    tot
    1  0.207  0.112  0.038  0.356
    2  0.207  0.112  0.038  0.356
tot    0.413  0.225  0.075  0.713
 
band     7 # energy    0.46868798 # occ.  0.00000000
 
ion      s      p      d    tot
    1  0.012  0.252  0.047  0.310
    2  0.012  0.252  0.047  0.310
tot    0.024  0.503  0.094  0.620
 
band     8 # energy    0.59158775 # occ.  0.00000000
 
ion      s      p      d    tot
    1  0.000  0.259  0.048  0.307
    2  0.000  0.259  0.048  0.307
tot    0.001  0.518  0.095  0.614
 
band     9 # energy    2.02445203 # occ.  0.00000000
 
ion      s      p      d    tot
    1  0.002  0.004  0.023  0.030
    2  0.002  0.004  0.023  0.030
tot    0.005  0.008  0.046  0.059
 
band    10 # energy    2.46208843 # occ.  0.00000000
 
ion      s      p      d    tot
    1  0.003  0.017  0.000  0.020
    2  0.003  0.017  0.000  0.020
tot    0.006  0.034  0.000  0.040
 
band    11 # energy    3.81396871 # occ.  0.00000000
 
ion      s      p      d    tot
    1  0.006  0.026  0.000  0.032
    2  0.006  0.026  0.000  0.032
tot    0.012  0.052  0.000  0.063
 
band    12 # energy    4.43932877 # occ.  0.00000000
 
ion      s      p      d    tot
    1  0.008  0.000  0.022  0.030
    2  0.008  0.000  0.022  0.030
tot    0.016  0.000  0.044  0.060
 
band    13 # energy    6.44161544 # occ.  0.00000000
 
ion      s      p      d    tot
    1  0.000  0.062  0.189  0.250
    2  0.000  0.062  0.189  0.250
tot    0.000  0.124  0.377  0.501
 
band    14 # energy    6.51603853 # occ.  0.00000000
 
ion      s      p      d    tot
    1  0.000  0.061  0.189  0.251
    2  0.000  0.061  0.189  0.251
tot    0.000  0.122  0.379  0.501
 
band    15 # energy    6.91615450 # occ.  0.00000000
 
ion      s      p      d    tot
    1  0.024  0.040  0.000  0.064
    2  0.024  0.040  0.000  0.064
tot    0.048  0.080  0.000  0.128
 
band    16 # energy    7.56559007 # occ.  0.00000000
 
ion      s      p      d    tot
    1  0.010  0.028  0.055  0.093
    2  0.010  0.028  0.055  0.093
tot    0.019  0.056  0.110  0.185
 

 k-point     2 :    0.07142857 0.00000000 0.00000000     weight = 0.01020408

band     1 # energy  -17.39106955 # occ.  2.00000000
 
ion      s      p      d    tot
    1  0.260  0.017  0.001  0.278
    2  0.260  0.017  0.001  0.278
tot    0.521  0.033  0.001  0.555
 
band     2 # energy   -9.70458830 # occ.  2.00000000
 
ion      s      p      d    tot
    1  0.216  0.051  0.004  0.271
    2  0.216  0.051  0.004  0.271
tot    0.433  0.102  0.007  0.542
 
band     3 # energy   -4.19598779 # occ.  2.00000000
 
ion      s      p      d    tot
    1  0.022  0.278  0.033  0.332
    2  0.022  0.278  0.033  0.332
tot    0.043  0.555  0.065  0.664
 
band     4 # energy   -3.72722001 # occ.  2.00000000
 
ion      s      p      d    tot
    1  0.005  0.220  0.007  0.232
    2  0.005  0.220  0.007  0.232
tot    0.010  0.440  0.015  0.464
 
band     5 # energy   -3.65438570 # occ.  2.00000000
 
ion      s      p      d    tot
    1  0.001  0.292  0.029  0.323
    2  0.001  0.292  0.029  0.323
tot    0.002  0.585  0.059  0.645
 
band     6 # energy    0.27899586 # occ.  0.00000000
 
ion      s      p      d    tot
    1  0.045  0.219  0.044  0.309
    2  0.045  0.219  0.044  0.309
tot    0.090  0.439  0.089  0.618
 
band     7 # energy    0.75937728 # occ.  0.00000000
 
ion      s      p      d    tot
    1  0.001  0.270  0.044  0.316
    2  0.001  0.270  0.044  0.316
tot    0.003  0.540  0.089  0.632
 
band     8 # energy    1.05809130 # occ.  0.00000000
 
ion      s      p      d    tot
    1  0.153  0.168  0.033  0.355
    2  0.153  0.168  0.033  0.355
tot    0.307  0.336  0.067  0.710
 
band     9 # energy    2.12881508 # occ.  0.00000000
 
ion      s      p      d    tot
    1  0.001  0.007  0.026  0.034
    2  0.001  0.007  0.026  0.034
tot    0.002  0.015  0.052  0.068
 
band    10 # energy    2.54655666 # occ.  0.00000000
 
ion      s      p      d    tot
    1  0.003  0.018  0.001  0.021
    2  0.003  0.018  0.001  0.021
tot    0.006  0.036  0.002  0.043
 
band    11 # energy    3.87453034 # occ.  0.00000000
 
ion      s      p      d    tot
    1  0.006  0.026  0.003  0.035
    2  0.006  0.026  0.003  0.035
tot    0.011  0.052  0.006  0.070
 
band    12 # energy    4.53142903 # occ.  0.00000000
 
ion      s      p      d    tot
    1  0.008  0.000  0.022  0.030
    2  0.008  0.000  0.022  0.030
tot    0.015  0.000  0.045  0.061
 
band    13 # energy    5.79329648 # occ.  0.00000000
 
ion      s      p      d    tot
    1  0.002  0.049  0.151  0.201
    2  0.002  0.049  0.151  0.201
tot    0.003  0.097  0.302  0.402
 
band    14 # energy    6.35307107 # occ.  0.00000000
 
ion      s      p      d    tot
    1  0.000  0.048  0.193  0.241
    2  0.000  0.048  0.193  0.241
tot    0.000  0.097  0.385  0.482
 
band    15 # energy    7.12519813 # occ.  0.00000000
 
ion      s      p      d    tot
    1  0.021  0.045  0.021  0.088
    2  0.021  0.045  0.021  0.088
tot    0.043  0.091  0.042  0.175
 
band    16 # energy    7.51874404 # occ.  0.00000000
 
ion      s      p      d    tot
    1  0.005  0.049  0.078  0.132
    2  0.005  0.049  0.078  0.132
tot    0.011  0.098  0.156  0.265
 

 k-point     3 :    0.00000000 0.07142857 0.00000000     weight = 0.01020408

band     1 # energy  -17.39096188 # occ.  2.00000000
 
ion      s      p      d    tot
    1  0.260  0.017  0.001  0.278
    2  0.260  0.017  0.001  0.278
tot    0.521  0.033  0.001  0.555
 
band     2 # energy   -9.70471031 # occ.  2.00000000
 
ion      s      p      d    tot
    1  0.217  0.051  0.004  0.271
    2  0.217  0.051  0.004  0.271
tot    0.433  0.102  0.007  0.542
 
band     3 # energy   -4.21564004 # occ.  2.00000000
 
ion      s      p      d    tot
    1  0.022  0.278  0.033  0.332
    2  0.022  0.278  0.033  0.332
tot    0.044  0.556  0.065  0.664
 
band     4 # energy   -3.72233616 # occ.  2.00000000
 
ion      s      p      d    tot
    1  0.005  0.213  0.005  0.223
    2  0.005  0.213  0.005  0.223
tot    0.010  0.426  0.010  0.446
 
band     5 # energy   -3.63830075 # occ.  2.00000000
 
ion      s      p      d    tot
    1  0.000  0.299  0.032  0.331
    2  0.000  0.299  0.032  0.331
tot    0.001  0.599  0.063  0.663
 
band     6 # energy    0.29690570 # occ.  0.00000000
 
ion      s      p      d    tot
    1  0.048  0.218  0.044  0.310
    2  0.048  0.218  0.044  0.310
tot    0.096  0.435  0.088  0.619
 
band     7 # energy    0.73008240 # occ.  0.00000000
 
ion      s      p      d    tot
    1  0.001  0.271  0.044  0.316
    2  0.001  0.271  0.044  0.316
tot    0.002  0.543  0.088  0.633
 
band     8 # energy    1.06990929 # occ.  0.00000000
 
ion      s      p      d    tot
    1  0.151  0.169  0.034  0.354
    2  0.151  0.169  0.034  0.354
tot    0.302  0.337  0.068  0.707
 
band     9 # energy    2.12919120 # occ.  0.00000000
 
ion      s      p      d    tot
    1  0.001  0.008  0.026  0.034
    2  0.001  0.008  0.026  0.034
tot    0.001  0.015  0.052  0.069
 
band    10 # energy    2.54647092 # occ.  0.00000000
 
ion      s      p      d    tot
    1  0.003  0.018  0.001  0.021
    2  0.003  0.018  0.001  0.021
tot    0.005  0.036  0.002  0.043
 
band    11 # energy    3.87411681 # occ.  0.00000000
 
ion      s      p      d    tot
    1  0.006  0.026  0.003  0.035
    2  0.006  0.026  0.003  0.035
tot    0.011  0.052  0.006  0.070
 
band    12 # energy    4.53144727 # occ.  0.00000000
 
ion      s      p      d    tot
    1  0.008  0.000  0.023  0.030
    2  0.008  0.000  0.023  0.030
tot    0.015  0.000  0.045  0.061
 
band    13 # energy    5.77863719 # occ.  0.00000000
 
ion      s      p      d    tot
    1  0.001  0.049  0.151  0.201
    2  0.001  0.049  0.151  0.201
tot    0.003  0.098  0.301  0.402
 
band    14 # energy    6.36452009 # occ.  0.00000000
 
ion      s      p      d    tot
    1  0.000  0.048  0.193  0.241
    2  0.000  0.048  0.193  0.241
tot    0.000  0.097  0.386  0.482
 
band    15 # energy    7.12466235 # occ.  0.00000000
 
ion      s      p      d    tot
    1  0.022  0.045  0.020  0.087
    2  0.022  0.045  0.020  0.087
tot    0.043  0.091  0.041  0.175
 
band    16 # energy    7.51902603 # occ.  0.00000000
 
ion      s      p      d    tot
    1  0.005  0.049  0.078  0.132
    2  0.005  0.049  0.078  0.132
tot    0.011  0.097  0.156  0.264
 

 k-point     4 :   -0.07142857 0.07142857 0.00000000     weight = 0.01020408

band     1 # energy  -17.39136871 # occ.  2.00000000
 
ion      s      p      d    tot
    1  0.260  0.017  0.001  0.278
    2  0.260  0.017  0.001  0.278
tot    0.521  0.033  0.001  0.555
 
band     2 # energy   -9.70424874 # occ.  2.00000000
 
ion      s      p      d    tot
    1  0.216  0.051  0.004  0.271
    2  0.216  0.051  0.004  0.271
tot    0.433  0.102  0.007  0.542
 
band     3 # energy   -4.13153911 # occ.  2.00000000
 
ion      s      p      d    tot
    1  0.022  0.276  0.032  0.330
    2  0.022  0.276  0.032  0.330
tot    0.044  0.551  0.064  0.660
 
band     4 # energy   -3.73526831 # occ.  2.00000000
 
ion      s      p      d    tot
    1  0.001  0.298  0.031  0.329
    2  0.001  0.298  0.031  0.329
tot    0.001  0.595  0.062  0.658
 
band     5 # energy   -3.71509447 # occ.  2.00000000
 
ion      s      p      d    tot
    1  0.005  0.216  0.006  0.227
    2  0.005  0.216  0.006  0.227
tot    0.010  0.432  0.013  0.455
 
band     6 # energy    0.24597070 # occ.  0.00000000
 
ion      s      p      d    tot
    1  0.040  0.222  0.045  0.307
    2  0.040  0.222  0.045  0.307
tot    0.080  0.443  0.091  0.614
 
band     7 # energy    0.81995064 # occ.  0.00000000
 
ion      s      p      d    tot
    1  0.000  0.271  0.045  0.316
    2  0.000  0.271  0.045  0.316
tot    0.000  0.542  0.089  0.631
 
band     8 # energy    1.03005863 # occ.  0.00000000
 
ion      s      p      d    tot
    1  0.159  0.166  0.032  0.357
    2  0.159  0.166  0.032  0.357
tot    0.318  0.333  0.064  0.715
 
band     9 # energy    2.12785847 # occ.  0.00000000
 
ion      s      p      d    tot
    1  0.001  0.007  0.026  0.034
    2  0.001  0.007  0.026  0.034
tot    0.002  0.015  0.051  0.068
 
band    10 # energy    2.54680095 # occ.  0.00000000
 
ion      s      p      d    tot
    1  0.003  0.018  0.001  0.021
    2  0.003  0.018  0.001  0.021
tot    0.006  0.036  0.001  0.043
 
band    11 # energy    3.87568682 # occ.  0.00000000
 
ion      s      p      d    tot
    1  0.006  0.026  0.003  0.035
    2  0.006  0.026  0.003  0.035
tot    0.011  0.052  0.006  0.069
 
band    12 # energy    4.53137757 # occ.  0.00000000
 
ion      s      p      d    tot
    1  0.008  0.000  0.022  0.030
    2  0.008  0.000  0.022  0.030
tot    0.015  0.000  0.045  0.061
 
band    13 # energy    5.83862027 # occ.  0.00000000
 
ion      s      p      d    tot
    1  0.002  0.048  0.151  0.200
    2  0.002  0.048  0.151  0.200
tot    0.004  0.095  0.301  0.401
 
band    14 # energy    6.31566363 # occ.  0.00000000
 
ion      s      p      d    tot
    1  0.000  0.049  0.192  0.241
    2  0.000  0.049  0.192  0.241
tot    0.000  0.097  0.385  0.482
 
band    15 # energy    7.12635092 # occ.  0.00000000
 
ion      s      p      d    tot
    1  0.020  0.045  0.023  0.089
    2  0.020  0.045  0.023  0.089
tot    0.041  0.091  0.046  0.177
 
band    16 # energy    7.51772133 # occ.  0.00000000
 
ion      s      p      d    tot
    1  0.006  0.049  0.078  0.133
    2  0.006  0.049  0.078  0.133
tot    0.012  0.098  0.156  0.267
 

 k-point     5 :    0.14285714 0.00000000 0.00000000     weight = 0.01020408

band     1 # energy  -17.14597308 # occ.  2.00000000
 
ion      s      p      d    tot
    1  0.259  0.019  0.001  0.280
    2  0.259  0.019  0.001  0.280
tot    0.519  0.039  0.002  0.559
 
band     2 # energy   -9.56365305 # occ.  2.00000000
 
ion      s      p      d    tot
    1  0.234  0.046  0.004  0.283
    2  0.234  0.046  0.004  0.283
tot    0.467  0.091  0.008  0.566
 
band     3 # energy   -5.51673225 # occ.  2.00000000
 
ion      s      p      d    tot
    1  0.033  0.244  0.028  0.305
    2  0.033  0.244  0.028  0.305
tot    0.066  0.488  0.056  0.610
 
band     4 # energy   -4.10202893 # occ.  2.00000000
 
ion      s      p      d    tot
    1  0.000  0.296  0.031  0.326
    2  0.000  0.296  0.031  0.326
tot    0.000  0.592  0.061  0.653
 
band     5 # energy   -3.58874165 # occ.  2.00000000
 
ion      s      p      d    tot
    1  0.008  0.214  0.004  0.226
    2  0.008  0.214  0.004  0.226
tot    0.015  0.429  0.008  0.452
 
band     6 # energy   -0.25003568 # occ.  0.00000000
 
ion      s      p      d    tot
    1  0.055  0.194  0.043  0.291
    2  0.055  0.194  0.043  0.291
tot    0.109  0.387  0.086  0.582
 
band     7 # energy    1.28670768 # occ.  0.00000000
 
ion      s      p      d    tot
    1  0.000  0.297  0.036  0.333
    2  0.000  0.297  0.036  0.333
tot    0.000  0.595  0.071  0.666
 
band     8 # energy    2.07592452 # occ.  0.00000000
 
ion      s      p      d    tot
    1  0.109  0.161  0.010  0.280
    2  0.109  0.161  0.010  0.280
tot    0.219  0.321  0.021  0.561
 
band     9 # energy    2.46166822 # occ.  0.00000000
 
ion      s      p      d    tot
    1  0.005  0.046  0.037  0.088
    2  0.005  0.046  0.037  0.088
tot    0.010  0.092  0.073  0.175
 
band    10 # energy    2.82563545 # occ.  0.00000000
 
ion      s      p      d    tot
    1  0.007  0.035  0.006  0.049
    2  0.007  0.035  0.006  0.049
tot    0.014  0.071  0.013  0.098
 
band    11 # energy    4.00699014 # occ.  0.00000000
 
ion      s      p      d    tot
    1  0.008  0.031  0.026  0.065
    2  0.008  0.031  0.026  0.065
tot    0.016  0.061  0.052  0.130
 
band    12 # energy    4.80536182 # occ.  0.00000000
 
ion      s      p      d    tot
    1  0.008  0.001  0.024  0.032
    2  0.008  0.001  0.024  0.032
tot    0.015  0.001  0.048  0.064
 
band    13 # energy    5.03091246 # occ.  0.00000000
 
ion      s      p      d    tot
    1  0.008  0.026  0.122  0.155
    2  0.008  0.026  0.122  0.155
tot    0.015  0.052  0.244  0.311
 
band    14 # energy    6.21263564 # occ.  0.00000000
 
ion      s      p      d    tot
    1  0.000  0.022  0.204  0.226
    2  0.000  0.022  0.204  0.226
tot    0.000  0.045  0.407  0.452
 
band    15 # energy    6.86453708 # occ.  0.00000000
 
ion      s      p      d    tot
    1  0.010  0.065  0.106  0.181
    2  0.010  0.065  0.106  0.181
tot    0.020  0.131  0.212  0.362
 
band    16 # energy    7.63520693 # occ.  0.00000000
 
ion      s      p      d    tot
    1  0.010  0.056  0.034  0.099
    2  0.010  0.056  0.034  0.099
tot    0.019  0.111  0.067  0.197
 

 k-point     6 :    0.00000000 0.14285714 0.00000000     weight = 0.01020408

band     1 # energy  -17.14550842 # occ.  2.00000000
 
ion      s      p      d    tot
    1  0.259  0.020  0.001  0.280
    2  0.259  0.020  0.001  0.280
tot    0.519  0.039  0.002  0.559
 
band     2 # energy   -9.56439708 # occ.  2.00000000
 
ion      s      p      d    tot
    1  0.234  0.046  0.004  0.283
    2  0.234  0.046  0.004  0.283
tot    0.467  0.091  0.008  0.567
 
band     3 # energy   -5.53328564 # occ.  2.00000000
 
ion      s      p      d    tot
    1  0.033  0.245  0.028  0.305
    2  0.033  0.245  0.028  0.305
tot    0.066  0.489  0.056  0.611
 
band     4 # energy   -4.08382020 # occ.  2.00000000
 
ion      s      p      d    tot
    1  0.000  0.295  0.031  0.326
    2  0.000  0.295  0.031  0.326
tot    0.000  0.591  0.061  0.652
 
band     5 # energy   -3.58963563 # occ.  2.00000000
 
ion      s      p      d    tot
    1  0.008  0.214  0.004  0.226
    2  0.008  0.214  0.004  0.226
tot    0.015  0.429  0.008  0.452
 
band     6 # energy   -0.23482077 # occ.  0.00000000
 
ion      s      p      d    tot
    1  0.055  0.194  0.043  0.291
    2  0.055  0.194  0.043  0.291
tot    0.110  0.387  0.085  0.582
 
band     7 # energy    1.26687003 # occ.  0.00000000
 
ion      s      p      d    tot
    1  0.000  0.298  0.036  0.333
    2  0.000  0.298  0.036  0.333
tot    0.000  0.596  0.071  0.667
 
band     8 # energy    2.08672146 # occ.  0.00000000
 
ion      s      p      d    tot
    1  0.109  0.157  0.010  0.275
    2  0.109  0.157  0.010  0.275
tot    0.217  0.313  0.020  0.550
 
band     9 # energy    2.46723993 # occ.  0.00000000
 
ion      s      p      d    tot
    1  0.006  0.049  0.037  0.092
    2  0.006  0.049  0.037  0.092
tot    0.012  0.098  0.074  0.185
 
band    10 # energy    2.82527737 # occ.  0.00000000
 
ion      s      p      d    tot
    1  0.007  0.036  0.007  0.050
    2  0.007  0.036  0.007  0.050
tot    0.014  0.072  0.014  0.100
 
band    11 # energy    4.00136032 # occ.  0.00000000
 
ion      s      p      d    tot
    1  0.008  0.031  0.027  0.066
    2  0.008  0.031  0.027  0.066
tot    0.016  0.061  0.054  0.132
 
band    12 # energy    4.80560938 # occ.  0.00000000
 
ion      s      p      d    tot
    1  0.007  0.001  0.024  0.032
    2  0.007  0.001  0.024  0.032
tot    0.015  0.001  0.048  0.064
 
band    13 # energy    5.01404090 # occ.  0.00000000
 
ion      s      p      d    tot
    1  0.007  0.026  0.120  0.154
    2  0.007  0.026  0.120  0.154
tot    0.014  0.053  0.241  0.308
 
band    14 # energy    6.21874652 # occ.  0.00000000
 
ion      s      p      d    tot
    1  0.000  0.022  0.204  0.226
    2  0.000  0.022  0.204  0.226
tot    0.000  0.045  0.408  0.452
 
band    15 # energy    6.86723468 # occ.  0.00000000
 
ion      s      p      d    tot
    1  0.010  0.066  0.106  0.182
    2  0.010  0.066  0.106  0.182
tot    0.020  0.131  0.212  0.363
 
band    16 # energy    7.63199296 # occ.  0.00000000
 
ion      s      p      d    tot
    1  0.010  0.056  0.033  0.098
    2  0.010  0.056  0.033  0.098
tot    0.019  0.111  0.066  0.197
 

 k-point     7 :   -0.14285714 0.14285714 0.00000000     weight = 0.01020408

band     1 # energy  -17.14726378 # occ.  2.00000000
 
ion      s      p      d    tot
    1  0.259  0.019  0.001  0.280
    2  0.259  0.019  0.001  0.280
tot    0.519  0.039  0.002  0.559
 
band     2 # energy   -9.56158807 # occ.  2.00000000
 
ion      s      p      d    tot
    1  0.233  0.046  0.004  0.283
    2  0.233  0.046  0.004  0.283
tot    0.466  0.092  0.008  0.566
 
band     3 # energy   -5.46779539 # occ.  2.00000000
 
ion      s      p      d    tot
    1  0.033  0.243  0.028  0.304
    2  0.033  0.243  0.028  0.304
tot    0.067  0.486  0.055  0.608
 
band     4 # energy   -4.15495859 # occ.  2.00000000
 
ion      s      p      d    tot
    1  0.000  0.297  0.031  0.328
    2  0.000  0.297  0.031  0.328
tot    0.000  0.594  0.062  0.656
 
band     5 # energy   -3.58812242 # occ.  2.00000000
 
ion      s      p      d    tot
    1  0.008  0.214  0.004  0.226
    2  0.008  0.214  0.004  0.226
tot    0.015  0.429  0.008  0.452
 
band     6 # energy   -0.28593028 # occ.  0.00000000
 
ion      s      p      d    tot
    1  0.055  0.193  0.043  0.291
    2  0.055  0.193  0.043  0.291
tot    0.110  0.386  0.087  0.582
 
band     7 # energy    1.33536238 # occ.  0.00000000
 
ion      s      p      d    tot
    1  0.000  0.297  0.036  0.333
    2  0.000  0.297  0.036  0.333
tot    0.000  0.593  0.072  0.665
 
band     8 # energy    2.04656794 # occ.  0.00000000
 
ion      s      p      d    tot
    1  0.110  0.171  0.012  0.293
    2  0.110  0.171  0.012  0.293
tot    0.221  0.342  0.024  0.586
 
band     9 # energy    2.44832223 # occ.  0.00000000
 
ion      s      p      d    tot
    1  0.003  0.039  0.035  0.077
    2  0.003  0.039  0.035  0.077
tot    0.006  0.077  0.070  0.153
 
band    10 # energy    2.82660977 # occ.  0.00000000
 
ion      s      p      d    tot
    1  0.006  0.034  0.006  0.046
    2  0.006  0.034  0.006  0.046
tot    0.013  0.068  0.011  0.092
 
band    11 # energy    4.02138413 # occ.  0.00000000
 
ion      s      p      d    tot
    1  0.008  0.031  0.023  0.062
    2  0.008  0.031  0.023  0.062
tot    0.017  0.062  0.045  0.124
 
band    12 # energy    4.80475739 # occ.  0.00000000
 
ion      s      p      d    tot
    1  0.008  0.001  0.024  0.032
    2  0.008  0.001  0.024  0.032
tot    0.016  0.002  0.047  0.065
 
band    13 # energy    5.07875792 # occ.  0.00000000
 
ion      s      p      d    tot
    1  0.009  0.025  0.125  0.159
    2  0.009  0.025  0.125  0.159
tot    0.018  0.050  0.250  0.318
 
band    14 # energy    6.19297857 # occ.  0.00000000
 
ion      s      p      d    tot
    1  0.000  0.022  0.203  0.226
    2  0.000  0.022  0.203  0.226
tot    0.000  0.045  0.407  0.452
 
band    15 # energy    6.85700965 # occ.  0.00000000
 
ion      s      p      d    tot
    1  0.010  0.065  0.105  0.179
    2  0.010  0.065  0.105  0.179
tot    0.019  0.129  0.210  0.359
 
band    16 # energy    7.64424133 # occ.  0.00000000
 
ion      s      p      d    tot
    1  0.010  0.056  0.034  0.100
    2  0.010  0.056  0.034  0.100
tot    0.019  0.111  0.069  0.199
 

 k-point     8 :    0.21428571-0.00000000 0.00000000     weight = 0.01020408

band     1 # energy  -16.74191474 # occ.  2.00000000
 
ion      s      p      d    tot
    1  0.258  0.024  0.001  0.283
    2  0.258  0.024  0.001  0.283
tot    0.516  0.048  0.003  0.566
 
band     2 # energy   -9.45736321 # occ.  2.00000000
 
ion      s      p      d    tot
    1  0.271  0.035  0.006  0.312
    2  0.271  0.035  0.006  0.312
tot    0.541  0.070  0.012  0.624
 
band     3 # energy   -6.79763699 # occ.  2.00000000
 
ion      s      p      d    tot
    1  0.014  0.231  0.021  0.265
    2  0.014  0.231  0.021  0.265
tot    0.027  0.461  0.041  0.530
 
band     4 # energy   -4.59185101 # occ.  2.00000000
 
ion      s      p      d    tot
    1  0.000  0.289  0.027  0.316
    2  0.000  0.289  0.027  0.316
tot    0.000  0.578  0.054  0.633
 
band     5 # energy   -3.44300959 # occ.  2.00000000
 
ion      s      p      d    tot
    1  0.014  0.226  0.003  0.243
    2  0.014  0.226  0.003  0.243
tot    0.028  0.451  0.007  0.487
 
band     6 # energy   -0.85901192 # occ.  0.00000000
 
ion      s      p      d    tot
    1  0.066  0.164  0.042  0.272
    2  0.066  0.164  0.042  0.272
tot    0.133  0.328  0.083  0.544
 
band     7 # energy    1.76621904 # occ.  0.00000000
 
ion      s      p      d    tot
    1  0.001  0.313  0.027  0.341
    2  0.001  0.313  0.027  0.341
tot    0.001  0.626  0.054  0.682
 
band     8 # energy    2.05346192 # occ.  0.00000000
 
ion      s      p      d    tot
    1  0.041  0.141  0.055  0.237
    2  0.041  0.141  0.055  0.237
tot    0.082  0.282  0.111  0.475
 
band     9 # energy    2.82390108 # occ.  0.00000000
 
ion      s      p      d    tot
    1  0.012  0.003  0.017  0.032
    2  0.012  0.003  0.017  0.032
tot    0.023  0.006  0.035  0.064
 
band    10 # energy    3.35446600 # occ.  0.00000000
 
ion      s      p      d    tot
    1  0.004  0.044  0.004  0.051
    2  0.004  0.044  0.004  0.051
tot    0.008  0.087  0.008  0.103
 
band    11 # energy    4.46812942 # occ.  0.00000000
 
ion      s      p      d    tot
    1  0.014  0.081  0.017  0.113
    2  0.014  0.081  0.017  0.113
tot    0.029  0.163  0.033  0.225
 
band    12 # energy    5.20975972 # occ.  0.00000000
 
ion      s      p      d    tot
    1  0.023  0.024  0.026  0.072
    2  0.023  0.024  0.026  0.072
tot    0.045  0.047  0.051  0.144
 
band    13 # energy    5.38709079 # occ.  0.00000000
 
ion      s      p      d    tot
    1  0.015  0.049  0.100  0.165
    2  0.015  0.049  0.100  0.165
tot    0.031  0.098  0.200  0.329
 
band    14 # energy    6.23264565 # occ.  0.00000000
 
ion      s      p      d    tot
    1  0.017  0.045  0.121  0.183
    2  0.017  0.045  0.121  0.183
tot    0.035  0.090  0.242  0.367
 
band    15 # energy    6.45749170 # occ.  0.00000000
 
ion      s      p      d    tot
    1  0.000  0.003  0.218  0.221
    2  0.000  0.003  0.218  0.221
tot    0.000  0.007  0.435  0.443
 
band    16 # energy    8.04364103 # occ.  0.00000000
 
ion      s      p      d    tot
    1  0.012  0.052  0.021  0.084
    2  0.012  0.052  0.021  0.084
tot    0.023  0.104  0.042  0.169
 

 k-point     9 :    0.00000000 0.21428571 0.00000000     weight = 0.01020408

band     1 # energy  -16.74072671 # occ.  2.00000000
 
ion      s      p      d    tot
    1  0.258  0.024  0.001  0.283
    2  0.258  0.024  0.001  0.283
tot    0.515  0.048  0.003  0.566
 
band     2 # energy   -9.46081915 # occ.  2.00000000
 
ion      s      p      d    tot
    1  0.271  0.035  0.006  0.312
    2  0.271  0.035  0.006  0.312
tot    0.542  0.070  0.012  0.624
 
band     3 # energy   -6.80966391 # occ.  2.00000000
 
ion      s      p      d    tot
    1  0.013  0.231  0.021  0.265
    2  0.013  0.231  0.021  0.265
tot    0.027  0.462  0.042  0.530
 
band     4 # energy   -4.57734969 # occ.  2.00000000
 
ion      s      p      d    tot
    1  0.000  0.289  0.027  0.316
    2  0.000  0.289  0.027  0.316
tot    0.000  0.578  0.054  0.632
 
band     5 # energy   -3.44456711 # occ.  2.00000000
 
ion      s      p      d    tot
    1  0.014  0.226  0.003  0.243
    2  0.014  0.226  0.003  0.243
tot    0.028  0.451  0.007  0.487
 
band     6 # energy   -0.84642117 # occ.  0.00000000
 
ion      s      p      d    tot
    1  0.066  0.164  0.042  0.272
    2  0.066  0.164  0.042  0.272
tot    0.132  0.328  0.083  0.543
 
band     7 # energy    1.75649059 # occ.  0.00000000
 
ion      s      p      d    tot
    1  0.000  0.315  0.027  0.342
    2  0.000  0.315  0.027  0.342
tot    0.001  0.630  0.054  0.684
 
band     8 # energy    2.06513929 # occ.  0.00000000
 
ion      s      p      d    tot
    1  0.041  0.137  0.056  0.235
    2  0.041  0.137  0.056  0.235
tot    0.083  0.275  0.111  0.469
 
band     9 # energy    2.82417080 # occ.  0.00000000
 
ion      s      p      d    tot
    1  0.012  0.003  0.017  0.032
    2  0.012  0.003  0.017  0.032
tot    0.023  0.006  0.035  0.064
 
band    10 # energy    3.35743737 # occ.  0.00000000
 
ion      s      p      d    tot
    1  0.004  0.044  0.004  0.052
    2  0.004  0.044  0.004  0.052
tot    0.008  0.088  0.008  0.104
 
band    11 # energy    4.46546754 # occ.  0.00000000
 
ion      s      p      d    tot
    1  0.015  0.083  0.017  0.116
    2  0.015  0.083  0.017  0.116
tot    0.030  0.167  0.035  0.232
 
band    12 # energy    5.20572209 # occ.  0.00000000
 
ion      s      p      d    tot
    1  0.024  0.026  0.027  0.077
    2  0.024  0.026  0.027  0.077
tot    0.048  0.053  0.054  0.154
 
band    13 # energy    5.37268039 # occ.  0.00000000
 
ion      s      p      d    tot
    1  0.014  0.046  0.098  0.157
    2  0.014  0.046  0.098  0.157
tot    0.027  0.092  0.196  0.315
 
band    14 # energy    6.23034428 # occ.  0.00000000
 
ion      s      p      d    tot
    1  0.018  0.045  0.121  0.184
    2  0.018  0.045  0.121  0.184
tot    0.035  0.090  0.242  0.368
 
band    15 # energy    6.45768393 # occ.  0.00000000
 
ion      s      p      d    tot
    1  0.000  0.003  0.218  0.221
    2  0.000  0.003  0.218  0.221
tot    0.000  0.007  0.436  0.443
 
band    16 # energy    8.04113119 # occ.  0.00000000
 
ion      s      p      d    tot
    1  0.011  0.052  0.021  0.084
    2  0.011  0.052  0.021  0.084
tot    0.023  0.104  0.042  0.168
 

 k-point    10 :   -0.21428571 0.21428571 0.00000000     weight = 0.01020408

band     1 # energy  -16.74521197 # occ.  2.00000000
 
ion      s      p      d    tot
    1  0.258  0.024  0.001  0.283
    2  0.258  0.024  0.001  0.283
tot    0.516  0.047  0.003  0.566
 
band     2 # energy   -9.44779912 # occ.  2.00000000
 
ion      s      p      d    tot
    1  0.269  0.035  0.006  0.311
    2  0.269  0.035  0.006  0.311
tot    0.539  0.071  0.012  0.622
 
band     3 # energy   -6.76273646 # occ.  2.00000000
 
ion      s      p      d    tot
    1  0.014  0.230  0.021  0.265
    2  0.014  0.230  0.021  0.265
tot    0.028  0.459  0.041  0.529
 
band     4 # energy   -4.63425631 # occ.  2.00000000
 
ion      s      p      d    tot
    1  0.000  0.290  0.027  0.318
    2  0.000  0.290  0.027  0.318
tot    0.000  0.580  0.055  0.635
 
band     5 # energy   -3.43952610 # occ.  2.00000000
 
ion      s      p      d    tot
    1  0.014  0.226  0.004  0.243
    2  0.014  0.226  0.004  0.243
tot    0.028  0.451  0.007  0.486
 
band     6 # energy   -0.89006568 # occ.  0.00000000
 
ion      s      p      d    tot
    1  0.067  0.163  0.042  0.272
    2  0.067  0.163  0.042  0.272
tot    0.134  0.327  0.084  0.545
 
band     7 # energy    1.80133871 # occ.  0.00000000
 
ion      s      p      d    tot
    1  0.000  0.315  0.027  0.342
    2  0.000  0.315  0.027  0.342
tot    0.000  0.629  0.055  0.684
 
band     8 # energy    2.01023763 # occ.  0.00000000
 
ion      s      p      d    tot
    1  0.041  0.144  0.055  0.240
    2  0.041  0.144  0.055  0.240
tot    0.083  0.288  0.110  0.481
 
band     9 # energy    2.82298341 # occ.  0.00000000
 
ion      s      p      d    tot