<?xml version="1.0" encoding="ISO-8859-1"?>
<modeling>
 <generator>
  <i name="program" type="string">vasp </i>
  <i name="version" type="string">6.4.2  </i>
  <i name="subversion" type="string">20Jul23 (build Nov 14 2023 12:59:38) complex                          parallel </i>
  <i name="platform" type="string">LinuxIFC </i>
  <i name="date" type="string">2023 12 29 </i>
  <i name="time" type="string">16:17:43 </i>
 </generator>
 <incar>
  <i type="string" name="PREC">Accurate</i>
  <i type="string" name="ALGO">Normal</i>
  <i type="logical" name="ADDGRID"> T  </i>
  <i type="int" name="ISPIN">     1</i>
  <i name="AMIX">      0.10000000</i>
  <i name="BMIX">      0.00010000</i>
  <i type="int" name="ICHARG">     2</i>
  <i type="int" name="NELM">   200</i>
  <i type="int" name="NELMDL">   -12</i>
  <i type="int" name="NELMIN">     6</i>
  <i name="EDIFF">      0.00000100</i>
  <i name="ENCUT">    286.92000000</i>
  <i type="int" name="NEDOS">  6001</i>
  <i type="logical" name="LREAL"> F  </i>
  <i type="logical" name="LPLANE"> T  </i>
  <i type="int" name="ISMEAR">     0</i>
  <i name="SIGMA">      0.01000000</i>
  <i type="int" name="NWRITE">     3</i>
  <i type="logical" name="LWAVE"> F  </i>
  <i type="logical" name="LCHARG"> F  </i>
  <i type="logical" name="LVTOT"> F  </i>
  <i type="int" name="LORBIT">    10</i>
  <i type="logical" name="LELF"> F  </i>
  <i type="logical" name="LASPH"> T  </i>
  <i type="logical" name="LEPSILON"> T  </i>
  <i type="int" name="IVDW">     0</i>
 </incar>
 <primitive_cell>
  <structure name="primitive_cell" >
   <crystal>
    <varray name="basis" >
     <v>       3.28234349       0.00000000       0.00000000 </v>
     <v>      -1.64117175       2.84259285       0.00000000 </v>
     <v>       0.00000000       0.00000000      16.00000000 </v>
    </varray>
    <i name="volume">    149.28585836 </i>
    <varray name="rec_basis" >
     <v>       0.30466038       0.17589575       0.00000000 </v>
     <v>       0.00000000       0.35179150       0.00000000 </v>
     <v>       0.00000000       0.00000000       0.06250000 </v>
    </varray>
   </crystal>
   <varray name="positions" >
    <v>       0.66731048       0.33157437       0.46118284 </v>
    <v>       0.33268952       0.66842563       0.53881716 </v>
   </varray>
  </structure>
  <varray name="primitive_index" >
   <v type="int" >        1 </v>
   <v type="int" >        2 </v>
  </varray>
 </primitive_cell>
 <kpoints>
  <generation param="Gamma">
   <v type="int" name="divisions">      14       14        1 </v>
   <v name="usershift">      0.00000000       0.00000000       0.00000000 </v>
   <v name="genvec1">      0.07142857       0.00000000       0.00000000 </v>
   <v name="genvec2">      0.00000000       0.07142857       0.00000000 </v>
   <v name="genvec3">      0.00000000       0.00000000       1.00000000 </v>
   <v name="shift">      0.00000000       0.00000000       0.00000000 </v>
  </generation>
  <varray name="kpointlist" >
   <v>       0.00000000       0.00000000       0.00000000 </v>
   <v>       0.07142857       0.00000000       0.00000000 </v>
   <v>       0.00000000       0.07142857       0.00000000 </v>
   <v>      -0.07142857       0.07142857       0.00000000 </v>
   <v>       0.14285714       0.00000000       0.00000000 </v>
   <v>       0.00000000       0.14285714       0.00000000 </v>
   <v>      -0.14285714       0.14285714       0.00000000 </v>
   <v>       0.21428571      -0.00000000       0.00000000 </v>
   <v>       0.00000000       0.21428571       0.00000000 </v>
   <v>      -0.21428571       0.21428571       0.00000000 </v>
   <v>       0.28571429       0.00000000       0.00000000 </v>
   <v>       0.00000000       0.28571429       0.00000000 </v>
   <v>      -0.28571429       0.28571429       0.00000000 </v>
   <v>       0.35714286       0.00000000       0.00000000 </v>
   <v>       0.00000000       0.35714286       0.00000000 </v>
   <v>      -0.35714286       0.35714286       0.00000000 </v>
   <v>       0.42857143      -0.00000000       0.00000000 </v>
   <v>       0.00000000       0.42857143       0.00000000 </v>
   <v>      -0.42857143       0.42857143       0.00000000 </v>
   <v>       0.50000000      -0.00000000       0.00000000 </v>
   <v>       0.00000000       0.50000000       0.00000000 </v>
   <v>       0.50000000       0.50000000       0.00000000 </v>
   <v>       0.07142857       0.07142857       0.00000000 </v>
   <v>      -0.07142857       0.14285714       0.00000000 </v>
   <v>      -0.14285714       0.07142857       0.00000000 </v>
   <v>       0.14285714       0.07142857       0.00000000 </v>
   <v>      -0.07142857       0.21428571       0.00000000 </v>
   <v>      -0.21428571       0.14285714       0.00000000 </v>
   <v>      -0.14285714       0.21428571       0.00000000 </v>
   <v>       0.07142857       0.14285714       0.00000000 </v>
   <v>       0.21428571      -0.07142857       0.00000000 </v>
   <v>       0.21428571       0.07142857       0.00000000 </v>
   <v>      -0.07142857       0.28571429       0.00000000 </v>
   <v>      -0.28571429       0.21428571       0.00000000 </v>
   <v>      -0.21428571       0.28571429       0.00000000 </v>
   <v>       0.07142857       0.21428571       0.00000000 </v>
   <v>       0.28571429      -0.07142857       0.00000000 </v>
   <v>       0.28571429       0.07142857       0.00000000 </v>
   <v>      -0.07142857       0.35714286       0.00000000 </v>
   <v>      -0.35714286       0.28571429       0.00000000 </v>
   <v>      -0.28571429       0.35714286       0.00000000 </v>
   <v>       0.07142857       0.28571429       0.00000000 </v>
   <v>       0.35714286      -0.07142857       0.00000000 </v>
   <v>       0.35714286       0.07142857       0.00000000 </v>
   <v>      -0.07142857       0.42857143       0.00000000 </v>
   <v>      -0.42857143       0.35714286       0.00000000 </v>
   <v>      -0.35714286       0.42857143       0.00000000 </v>
   <v>       0.07142857       0.35714286       0.00000000 </v>
   <v>       0.42857143      -0.07142857       0.00000000 </v>
   <v>       0.42857143       0.07142857       0.00000000 </v>
   <v>      -0.07142857       0.50000000       0.00000000 </v>
   <v>       0.50000000       0.42857143       0.00000000 </v>
   <v>      -0.42857143       0.50000000       0.00000000 </v>
   <v>       0.07142857       0.42857143       0.00000000 </v>
   <v>       0.50000000      -0.07142857       0.00000000 </v>
   <v>       0.14285714       0.14285714       0.00000000 </v>
   <v>      -0.14285714       0.28571429       0.00000000 </v>
   <v>      -0.28571429       0.14285714       0.00000000 </v>
   <v>       0.21428571       0.14285714       0.00000000 </v>
   <v>      -0.14285714       0.35714286       0.00000000 </v>
   <v>      -0.35714286       0.21428571       0.00000000 </v>
   <v>      -0.21428571       0.35714286       0.00000000 </v>
   <v>       0.14285714       0.21428571       0.00000000 </v>
   <v>       0.35714286      -0.14285714       0.00000000 </v>
   <v>       0.28571429       0.14285714       0.00000000 </v>
   <v>      -0.14285714       0.42857143       0.00000000 </v>
   <v>      -0.42857143       0.28571429       0.00000000 </v>
   <v>      -0.28571429       0.42857143       0.00000000 </v>
   <v>       0.14285714       0.28571429       0.00000000 </v>
   <v>       0.42857143      -0.14285714       0.00000000 </v>
   <v>       0.35714286       0.14285714       0.00000000 </v>
   <v>      -0.14285714       0.50000000       0.00000000 </v>
   <v>       0.50000000       0.35714286       0.00000000 </v>
   <v>      -0.35714286       0.50000000       0.00000000 </v>
   <v>       0.14285714       0.35714286       0.00000000 </v>
   <v>       0.50000000      -0.14285714       0.00000000 </v>
   <v>       0.42857143       0.14285714       0.00000000 </v>
   <v>      -0.14285714      -0.42857143       0.00000000 </v>
   <v>       0.42857143       0.42857143       0.00000000 </v>
   <v>       0.21428571       0.21428571       0.00000000 </v>
   <v>      -0.21428571       0.42857143       0.00000000 </v>
   <v>      -0.42857143       0.21428571       0.00000000 </v>
   <v>       0.28571429       0.21428571       0.00000000 </v>
   <v>      -0.21428571       0.50000000       0.00000000 </v>
   <v>       0.50000000       0.28571429       0.00000000 </v>
   <v>      -0.28571429       0.50000000       0.00000000 </v>
   <v>       0.21428571       0.28571429       0.00000000 </v>
   <v>       0.50000000      -0.21428571       0.00000000 </v>
   <v>       0.35714286       0.21428571       0.00000000 </v>
   <v>      -0.21428571      -0.42857143       0.00000000 </v>
   <v>       0.42857143       0.35714286       0.00000000 </v>
   <v>      -0.35714286      -0.42857143       0.00000000 </v>
   <v>       0.21428571       0.35714286       0.00000000 </v>
   <v>      -0.42857143      -0.21428571       0.00000000 </v>
   <v>       0.28571429       0.28571429       0.00000000 </v>
   <v>      -0.28571429      -0.42857143       0.00000000 </v>
   <v>       0.42857143       0.28571429       0.00000000 </v>
   <v>       0.35714286       0.28571429       0.00000000 </v>
   <v>      -0.28571429      -0.35714286       0.00000000 </v>
   <v>       0.35714286       0.35714286       0.00000000 </v>
  </varray>
  <varray name="weights" >
   <v>       0.00510204 </v>
   <v>       0.01020408 </v>
   <v>       0.01020408 </v>
   <v>       0.01020408 </v>
   <v>       0.01020408 </v>
   <v>       0.01020408 </v>
   <v>       0.01020408 </v>
   <v>       0.01020408 </v>
   <v>       0.01020408 </v>
   <v>       0.01020408 </v>
   <v>       0.01020408 </v>
   <v>       0.01020408 </v>
   <v>       0.01020408 </v>
   <v>       0.01020408 </v>
   <v>       0.01020408 </v>
   <v>       0.01020408 </v>
   <v>       0.01020408 </v>
   <v>       0.01020408 </v>
   <v>       0.01020408 </v>
   <v>       0.00510204 </v>
   <v>       0.00510204 </v>
   <v>       0.00510204 </v>
   <v>       0.01020408 </v>
   <v>       0.01020408 </v>
   <v>       0.01020408 </v>
   <v>       0.01020408 </v>
   <v>       0.01020408 </v>
   <v>       0.01020408 </v>
   <v>       0.01020408 </v>
   <v>       0.01020408 </v>
   <v>       0.01020408 </v>
   <v>       0.01020408 </v>
   <v>       0.01020408 </v>
   <v>       0.01020408 </v>
   <v>       0.01020408 </v>
   <v>       0.01020408 </v>
   <v>       0.01020408 </v>
   <v>       0.01020408 </v>
   <v>       0.01020408 </v>
   <v>       0.01020408 </v>
   <v>       0.01020408 </v>
   <v>       0.01020408 </v>
   <v>       0.01020408 </v>
   <v>       0.01020408 </v>
   <v>       0.01020408 </v>
   <v>       0.01020408 </v>
   <v>       0.01020408 </v>
   <v>       0.01020408 </v>
   <v>       0.01020408 </v>
   <v>       0.01020408 </v>
   <v>       0.01020408 </v>
   <v>       0.01020408 </v>
   <v>       0.01020408 </v>
   <v>       0.01020408 </v>
   <v>       0.01020408 </v>
   <v>       0.01020408 </v>
   <v>       0.01020408 </v>
   <v>       0.01020408 </v>
   <v>       0.01020408 </v>
   <v>       0.01020408 </v>
   <v>       0.01020408 </v>
   <v>       0.01020408 </v>
   <v>       0.01020408 </v>
   <v>       0.01020408 </v>
   <v>       0.01020408 </v>
   <v>       0.01020408 </v>
   <v>       0.01020408 </v>
   <v>       0.01020408 </v>
   <v>       0.01020408 </v>
   <v>       0.01020408 </v>
   <v>       0.01020408 </v>
   <v>       0.01020408 </v>
   <v>       0.01020408 </v>
   <v>       0.01020408 </v>
   <v>       0.01020408 </v>
   <v>       0.01020408 </v>
   <v>       0.01020408 </v>
   <v>       0.01020408 </v>
   <v>       0.01020408 </v>
   <v>       0.01020408 </v>
   <v>       0.01020408 </v>
   <v>       0.01020408 </v>
   <v>       0.01020408 </v>
   <v>       0.01020408 </v>
   <v>       0.01020408 </v>
   <v>       0.01020408 </v>
   <v>       0.01020408 </v>
   <v>       0.01020408 </v>
   <v>       0.01020408 </v>
   <v>       0.01020408 </v>
   <v>       0.01020408 </v>
   <v>       0.01020408 </v>
   <v>       0.01020408 </v>
   <v>       0.01020408 </v>
   <v>       0.01020408 </v>
   <v>       0.01020408 </v>
   <v>       0.01020408 </v>
   <v>       0.01020408 </v>
   <v>       0.01020408 </v>
   <v>       0.01020408 </v>
  </varray>
 </kpoints>
 <parameters>
  <separator name="general" >
   <i type="string" name="SYSTEM">unknown system</i>
   <i type="logical" name="LCOMPAT"> F  </i>
  </separator>
  <separator name="electronic" >
   <i type="string" name="PREC">accura</i>
   <i name="ENMAX">    286.92000000</i>
   <i name="ENAUG">    499.73200000</i>
   <i name="EDIFF">      0.00000100</i>
   <i type="int" name="IALGO">    38</i>
   <i type="int" name="IWAVPR">    10</i>
   <i type="int" name="NBANDS">    16</i>
   <i type="int" name="NBANDSLOW">    -1</i>
   <i type="int" name="NBANDSHIGH">    -1</i>
   <i name="NELECT">     10.00000000</i>
   <i type="int" name="TURBO">     0</i>
   <i type="int" name="IRESTART">     0</i>
   <i type="int" name="NREBOOT">     0</i>
   <i type="int" name="NMIN">     0</i>
   <i name="EREF">      0.00000000</i>
   <separator name="electronic smearing" >
    <i type="int" name="ISMEAR">     0</i>
    <i name="SIGMA">      0.01000000</i>
    <i name="KSPACING">      0.50000000</i>
    <i type="logical" name="KGAMMA"> T  </i>
    <i type="logical" name="KBLOWUP"> T  </i>
   </separator>
   <separator name="electronic projectors" >
    <i type="logical" name="LREAL"> F  </i>
    <v name="ROPT">      0.00000000</v>
    <i type="int" name="LMAXPAW">  -100</i>
    <i type="int" name="LMAXMIX">     2</i>
    <i type="logical" name="NLSPLINE"> F  </i>
   </separator>
   <separator name="electronic startup" >
    <i type="int" name="ISTART">     0</i>
    <i type="int" name="ICHARG">     2</i>
    <i type="int" name="INIWAV">     1</i>
   </separator>
   <separator name="electronic spin" >
    <i type="int" name="ISPIN">     1</i>
    <i type="logical" name="LNONCOLLINEAR"> F  </i>
    <v name="MAGMOM">      1.00000000      1.00000000</v>
    <i name="NUPDOWN">     -1.00000000</i>
    <i type="logical" name="LSORBIT"> F  </i>
    <v name="SAXIS">      0.00000000      0.00000000      1.00000000</v>
    <i type="logical" name="LSPIRAL"> F  </i>
    <v name="QSPIRAL">      0.00000000      0.00000000      0.00000000</v>
    <i type="logical" name="LZEROZ"> F  </i>
   </separator>
   <separator name="electronic exchange-correlation" >
    <i type="logical" name="LASPH"> T  </i>
    <i type="logical" name="LMETAGGA"> F  </i>
   </separator>
   <separator name="electronic convergence" >
    <i type="int" name="NELM">   200</i>
    <i type="int" name="NELMDL">   -12</i>
    <i type="int" name="NELMIN">     6</i>
    <i name="ENINI">    286.92000000</i>
    <separator name="electronic convergence detail" >
     <i type="logical" name="LDIAG"> T  </i>
     <i type="logical" name="LSUBROT"> F  </i>
     <i name="WEIMIN">      0.00000000</i>
     <i name="EBREAK">      0.00000002</i>
     <i name="DEPER">      0.30000000</i>
     <i type="int" name="NRMM">     4</i>
     <i name="TIME">      0.40000000</i>
    </separator>
   </separator>
   <separator name="electronic mixer" >
    <i name="AMIX">      0.10000000</i>
    <i name="BMIX">      0.00010000</i>
    <i name="AMIN">      0.10000000</i>
    <i name="AMIX_MAG">      0.40000000</i>
    <i name="BMIX_MAG">      0.00010000</i>
    <separator name="electronic mixer details" >
     <i type="int" name="IMIX">     4</i>
     <i type="logical" name="MIXFIRST"> F  </i>
     <i type="int" name="MAXMIX">   -45</i>
     <i name="WC">    100.00000000</i>
     <i type="int" name="INIMIX">     1</i>
     <i type="int" name="MIXPRE">     1</i>
     <i type="int" name="MREMOVE">     5</i>
    </separator>
   </separator>
   <separator name="electronic dipolcorrection" >
    <i type="logical" name="LDIPOL"> F  </i>
    <i type="logical" name="LMONO"> F  </i>
    <i type="int" name="IDIPOL">     0</i>
    <i name="EPSILON">      1.00000000</i>
    <v name="DIPOL">   -100.00000000   -100.00000000   -100.00000000</v>
    <i name="EFIELD">      0.00000000</i>
   </separator>
  </separator>
  <separator name="grids" >
   <i type="int" name="NGX">    18</i>
   <i type="int" name="NGY">    18</i>
   <i type="int" name="NGZ">    90</i>
   <i type="int" name="NGXF">    36</i>
   <i type="int" name="NGYF">    36</i>
   <i type="int" name="NGZF">   180</i>
   <i type="logical" name="ADDGRID"> T  </i>
  </separator>
  <separator name="ionic" >
   <i type="int" name="NSW">     0</i>
   <i type="int" name="IBRION">    -1</i>
   <i type="int" name="MDALGO">     0</i>
   <i type="int" name="ISIF">     2</i>
   <i name="PSTRESS">      0.00000000</i>
   <i name="EDIFFG">      0.00001000</i>
   <i type="int" name="NFREE">     0</i>
   <i name="POTIM">      0.50000000</i>
   <i name="SMASS">     -3.00000000</i>
   <i name="SCALEE">      1.00000000</i>
  </separator>
  <separator name="ionic md" >
   <i name="TEBEG">      0.00010000</i>
   <i name="TEEND">      0.00010000</i>
   <i type="int" name="NBLOCK">     1</i>
   <i type="int" name="KBLOCK">     1</i>
   <i type="int" name="NPACO">   256</i>
   <i name="APACO">     10.00000000</i>
  </separator>
  <separator name="symmetry" >
   <i type="int" name="ISYM">     2</i>
   <i name="SYMPREC">      0.00001000</i>
  </separator>
  <separator name="dos" >
   <i type="int" name="LORBIT">    10</i>
   <v name="RWIGS">     -1.00000000</v>
   <i type="int" name="NEDOS">  6001</i>
   <i name="EMIN">     10.00000000</i>
   <i name="EMAX">    -10.00000000</i>
   <i name="EFERMI">      0.00000000</i>
  </separator>
  <separator name="writing" >
   <i type="int" name="NWRITE">     3</i>
   <i type="logical" name="LWAVE"> F  </i>
   <i type="logical" name="LDOWNSAMPLE"> F  </i>
   <i type="logical" name="LCHARG"> F  </i>
   <i type="logical" name="LPARD"> F  </i>
   <i type="logical" name="LVTOT"> F  </i>
   <i type="logical" name="LVHAR"> F  </i>
   <i type="logical" name="LELF"> F  </i>
   <i type="logical" name="LOPTICS"> F  </i>
   <v name="STM">      0.00000000      0.00000000      0.00000000      0.00000000      0.00000000      0.00000000      0.00000000</v>
  </separator>
  <separator name="performance" >
   <i type="int" name="NPAR">    16</i>
   <i type="int" name="NSIM">     4</i>
   <i type="int" name="NBLK">    -1</i>
   <i type="logical" name="LPLANE"> T  </i>
   <i type="logical" name="LSCALAPACK"> T  </i>
   <i type="logical" name="LSCAAWARE"> F  </i>
   <i type="logical" name="LSCALU"> F  </i>
   <i type="logical" name="LASYNC"> F  </i>
   <i type="logical" name="LORBITALREAL"> F  </i>
  </separator>
  <separator name="miscellaneous" >
   <i type="int" name="IDIOT">     3</i>
   <i type="int" name="PHON_NSTRUCT">    -1</i>
   <i type="logical" name="LMUSIC"> F  </i>
   <v name="POMASS">     30.97400000</v>
   <v name="DARWINR">      0.00000000</v>
   <v name="DARWINV">      1.00000000</v>
   <i type="logical" name="LCORR"> T  </i>
  </separator>
  <i type="logical" name="GGA_COMPAT"> T  </i>
  <i type="logical" name="LBERRY"> F  </i>
  <i type="int" name="ICORELEVEL">     0</i>
  <i type="logical" name="LDAU"> F  </i>
  <i type="int" name="I_CONSTRAINED_M">     0</i>
  <separator name="electronic exchange-correlation" >
   <i type="string" name="GGA">--</i>
   <i type="int" name="VOSKOWN">     0</i>
   <i type="logical" name="LHFCALC"> F  </i>
   <i type="string" name="PRECFOCK"></i>
   <i type="logical" name="LSYMGRAD"> F  </i>
   <i type="logical" name="LHFONE"> F  </i>
   <i type="logical" name="LRHFCALC"> F  </i>
   <i type="logical" name="LTHOMAS"> F  </i>
   <i type="logical" name="LMODELHF"> F  </i>
   <i type="logical" name="LFOCKACE"> F  </i>
   <i name="ENCUT4O">     -1.00000000</i>
   <i type="int" name="EXXOEP">     0</i>
   <i type="int" name="FOURORBIT">     0</i>
   <i name="AEXX">      0.00000000</i>
   <i name="HFALPHA">      0.00000000</i>
   <i name="MCALPHA">      0.00000000</i>
   <i name="ALDAX">      1.00000000</i>
   <i name="AGGAX">      1.00000000</i>
   <i name="ALDAC">      1.00000000</i>
   <i name="AGGAC">      1.00000000</i>
   <i type="int" name="NKREDX">     1</i>
   <i type="int" name="NKREDY">     1</i>
   <i type="int" name="NKREDZ">     1</i>
   <i type="logical" name="SHIFTRED"> F  </i>
   <i type="logical" name="ODDONLY"> F  </i>
   <i type="logical" name="EVENONLY"> F  </i>
   <i type="int" name="LMAXFOCK">     0</i>
   <i type="int" name="NMAXFOCKAE">     0</i>
   <i type="logical" name="LFOCKAEDFT"> F  </i>
   <i name="HFSCREEN">      0.00000000</i>
   <i name="HFSCREENC">      0.00000000</i>
   <i type="int" name="NBANDSGWLOW">     0</i>
  </separator>
  <separator name="vdW DFT" >
   <i type="logical" name="LUSE_VDW"> F  </i>
   <i type="int" name="IVDW_NL">     1</i>
   <i type="logical" name="LSPIN_VDW"> F  </i>
   <i name="Zab_VDW">     -0.84910000</i>
   <i name="PARAM1">      0.12340000</i>
   <i name="PARAM2">      1.00000000</i>
   <i name="PARAM3">      0.00000000</i>
  </separator>
  <separator name="model GW" >
   <i type="int" name="MODEL_GW">     0</i>
   <i name="MODEL_EPS0">     44.78575751</i>
   <i name="MODEL_ALPHA">      1.00000000</i>
  </separator>
  <separator name="linear response parameters" >
   <i type="logical" name="LEPSILON"> T  </i>
   <i type="logical" name="LRPA"> F  </i>
   <i type="logical" name="LNABLA"> F  </i>
   <i type="logical" name="LVEL"> F  </i>
   <i name="CSHIFT">      0.10000000</i>
   <i name="OMEGAMAX">     -1.00000000</i>
   <i name="DEG_THRESHOLD">      0.00200000</i>
   <i name="RTIME">     -0.10000000</i>
   <i name="WPLASMAI">      0.00000000</i>
   <v name="DFIELD">      0.00000000      0.00000000      0.00000000</v>
   <v name="WPLASMA">      0.00000000      0.00000000      0.00000000      0.00000000      0.00000000      0.00000000      0.00000000      0.00000000      0.00000000</v>
  </separator>
  <separator name="orbital magnetization" >
   <i type="logical" name="NUCIND"> F  </i>
   <v name="MAGPOS">      0.00000000      0.00000000      0.00000000</v>
   <i type="logical" name="LNICSALL"> T  </i>
   <i type="logical" name="ORBITALMAG"> F  </i>
   <i type="logical" name="LMAGBLOCH"> F  </i>
   <i type="logical" name="LCHIMAG"> F  </i>
   <i type="logical" name="LGAUGE"> T  </i>
   <i type="int" name="MAGATOM">     0</i>
   <v name="MAGDIPOL">      0.00000000      0.00000000      0.00000000</v>
   <v name="AVECCONST">      0.00000000      0.00000000      0.00000000</v>
  </separator>
  <separator name="response functions" >
   <i type="logical" name="LALL_IN_ONE"> F  </i>
   <i type="int" name="IALL_IN_ONE">    -1</i>
   <i type="int" name="NBANDS_WAVE">    -1</i>
   <i type="logical" name="LFINITE_TEMPERATURE"> F  </i>
   <i type="logical" name="LADDER"> F  </i>
   <i type="logical" name="LRPAFORCE"> F  </i>
   <i type="logical" name="LFXC"> F  </i>
   <i type="logical" name="LHARTREE"> T  </i>
   <i type="int" name="IBSE">     0</i>
   <v type="int" name="KPOINT">    -1     0     0     0</v>
   <i type="logical" name="LTCTC"> F  </i>
   <i type="logical" name="LTCTE"> F  </i>
   <i type="logical" name="LTETE"> F  </i>
   <i type="logical" name="LTRIPLET"> F  </i>
   <i type="logical" name="LFXCEPS"> F  </i>
   <i type="logical" name="LFXHEG"> F  </i>
   <i type="int" name="NATURALO">     2</i>
   <i type="logical" name="LHOLEGF"> F  </i>
   <i type="logical" name="L2ORDER"> F  </i>
   <i type="logical" name="LDMP1"> F  </i>
   <i type="logical" name="LMP2LT"> F  </i>
   <i type="logical" name="LSMP2LT"> F  </i>
   <i type="logical" name="LGWLF"> F  </i>
   <i name="ENCUTGW">     -1.60000002</i>
   <i name="ENCUTGWSOFT">     -1.60000002</i>
   <i name="ENCUTLF">     -1.00000000</i>
   <i type="logical" name="LESF_SPLINES"> F  </i>
   <i type="int" name="LMAXMP2">    -1</i>
   <i name="SCISSOR">      0.00000000</i>
   <i type="int" name="NOMEGA">     0</i>
   <i type="int" name="NOMEGAR">     0</i>
   <i type="int" name="NBANDSGW">    -1</i>
   <i type="int" name="NBANDSO">    -1</i>
   <i type="int" name="NBANDSV">    -1</i>
   <i type="int" name="NELMGW">     1</i>
   <i type="int" name="NELMHF">     1</i>
   <i type="int" name="DIM">     3</i>
   <i type="int" name="IESPILON">     4</i>
   <i type="int" name="ANTIRES">     0</i>
   <i name="OMEGAMAX">    -30.00000000</i>
   <i name="OMEGAMIN">    -30.00000000</i>
   <i name="OMEGATL">   -200.00000000</i>
   <i type="int" name="OMEGAGRID">     0</i>
   <i name="CSHIFT">     -0.10000000</i>
   <i type="logical" name="LSELFENERGY"> F  </i>
   <i type="logical" name="LSPECTRAL"> F  </i>
   <i type="logical" name="LSPECTRALGW"> F  </i>
   <i type="logical" name="LSINGLES"> F  </i>
   <i type="logical" name="LFERMIGW"> F  </i>
   <i type="logical" name="ODDONLYGW"> F  </i>
   <i type="logical" name="EVENONLYGW"> F  </i>
   <i type="int" name="NKREDLFX">     1</i>
   <i type="int" name="NKREDLFY">     1</i>
   <i type="int" name="NKREDLFZ">     1</i>
   <i type="int" name="MAXMEM">  2800</i>
   <i type="int" name="TELESCOPE">     0</i>
   <i type="int" name="NTAUPAR">    -1</i>
   <i type="int" name="NOMEGAPAR">    -1</i>
   <i name="DAMP_NEWTON">      0.80000001</i>
   <i name="LAMBDA">      1.00000000</i>
  </separator>
  <separator name="External order field" >
   <i name="OFIELD_KAPPA">      0.00000000</i>
   <v name="OFIELD_K">      0.00000000      0.00000000      0.00000000</v>
   <i name="OFIELD_Q6_NEAR">      0.00000000</i>
   <i name="OFIELD_Q6_FAR">      0.00000000</i>
   <i name="OFIELD_A">      0.00000000</i>
  </separator>
  <separator name="optional k-points parameters" >
   <i type="int" name="KPOINTS_OPT_MODE">     1</i>
   <i type="logical" name="LKPOINTS_OPT"> F  </i>
  </separator>
 </parameters>
 <atominfo>
  <atoms>       2 </atoms>
  <types>       1 </types>
  <array name="atoms" >
   <dimension dim="1">ion</dimension>
   <field type="string">element</field>
   <field type="int">atomtype</field>
   <set>
    <rc><c>P </c><c>   1</c></rc>
    <rc><c>P </c><c>   1</c></rc>
   </set>
  </array>
  <array name="atomtypes" >
   <dimension dim="1">type</dimension>
   <field type="int">atomspertype</field>
   <field type="string">element</field>
   <field>mass</field>
   <field>valence</field>
   <field type="string">pseudopotential</field>
   <set>
    <rc><c>   2</c><c>P </c><c>     30.97400000</c><c>      5.00000000</c><c>  PAW_PBE P_GW 19Mar2012                </c></rc>
   </set>
  </array>
 </atominfo>
 <structure name="initialpos" >
  <crystal>
   <varray name="basis" >
    <v>       3.28234349       0.00000000       0.00000000 </v>
    <v>      -1.64117175       2.84259285       0.00000000 </v>
    <v>       0.00000000       0.00000000      16.00000000 </v>
   </varray>
   <i name="volume">    149.28585836 </i>
   <varray name="rec_basis" >
    <v>       0.30466038       0.17589575       0.00000000 </v>
    <v>       0.00000000       0.35179150       0.00000000 </v>
    <v>       0.00000000       0.00000000       0.06250000 </v>
   </varray>
  </crystal>
  <varray name="positions" >
   <v>       0.66731048       0.33157437       0.46118284 </v>
   <v>       0.33268952       0.66842563       0.53881716 </v>
  </varray>
 </structure>
 <calculation>
  <scstep>
   <time name="dav">    0.61    0.61</time>
   <time name="total">    0.75    0.83</time>
   <energy>
    <i name="alphaZ">      3.71007814 </i>
    <i name="ewald">    534.42599682 </i>
    <i name="hartreedc">   -833.34938834 </i>
    <i name="XCdc">     -7.57082023 </i>
    <i name="pawpsdc">    293.95507915 </i>
    <i name="pawaedc">   -263.19716017 </i>
    <i name="eentropy">     -0.00012712 </i>
    <i name="bandstr">    -55.22535654 </i>
    <i name="atom">    352.07568098 </i>
    <i name="e_fr_energy">     24.82398270 </i>
    <i name="e_wo_entrp">     24.82410982 </i>
    <i name="e_0_energy">     24.82404626 </i>
   </energy>
  </scstep>
  <scstep>
   <time name="dav">    0.98    0.98</time>
   <time name="total">    0.98    0.98</time>
   <energy>
    <i name="e_fr_energy">     -9.92301475 </i>
    <i name="e_wo_entrp">     -9.92301475 </i>
    <i name="e_0_energy">     -9.92301475 </i>
   </energy>
  </scstep>
  <scstep>
   <time name="dav">    0.94    0.94</time>
   <time name="total">    0.94    0.94</time>
   <energy>
    <i name="e_fr_energy">    -10.77274729 </i>
    <i name="e_wo_entrp">    -10.77274729 </i>
    <i name="e_0_energy">    -10.77274729 </i>
   </energy>
  </scstep>
  <scstep>
   <time name="dav">    1.17    1.17</time>
   <time name="total">    1.17    1.17</time>
   <energy>
    <i name="e_fr_energy">    -10.78487451 </i>
    <i name="e_wo_entrp">    -10.78487451 </i>
    <i name="e_0_energy">    -10.78487451 </i>
   </energy>
  </scstep>
  <scstep>
   <time name="dav">    0.93    0.93</time>
   <time name="total">    0.93    0.93</time>
   <energy>
    <i name="e_fr_energy">    -10.78493978 </i>
    <i name="e_wo_entrp">    -10.78493978 </i>
    <i name="e_0_energy">    -10.78493978 </i>
   </energy>
  </scstep>
  <scstep>
   <time name="dav">    1.17    1.17</time>
   <time name="total">    1.17    1.17</time>
   <energy>
    <i name="e_fr_energy">    -10.78494034 </i>
    <i name="e_wo_entrp">    -10.78494034 </i>
    <i name="e_0_energy">    -10.78494034 </i>
   </energy>
  </scstep>
  <scstep>
   <time name="dav">    1.04    1.05</time>
   <time name="total">    1.04    1.05</time>
   <energy>
    <i name="e_fr_energy">    -10.78494034 </i>
    <i name="e_wo_entrp">    -10.78494034 </i>
    <i name="e_0_energy">    -10.78494034 </i>
   </energy>
  </scstep>
  <scstep>
   <time name="dav">    1.14    1.14</time>
   <time name="total">    1.14    1.14</time>
   <energy>
    <i name="e_fr_energy">    -10.78494034 </i>
    <i name="e_wo_entrp">    -10.78494034 </i>
    <i name="e_0_energy">    -10.78494034 </i>
   </energy>
  </scstep>
  <scstep>
   <time name="dav">    1.17    1.18</time>
   <time name="total">    1.17    1.18</time>
   <energy>
    <i name="e_fr_energy">    -10.78494034 </i>
    <i name="e_wo_entrp">    -10.78494034 </i>
    <i name="e_0_energy">    -10.78494034 </i>
   </energy>
  </scstep>
  <scstep>
   <time name="dav">    0.99    0.99</time>
   <time name="total">    0.99    0.99</time>
   <energy>
    <i name="e_fr_energy">    -10.78494034 </i>
    <i name="e_wo_entrp">    -10.78494034 </i>
    <i name="e_0_energy">    -10.78494034 </i>
   </energy>
  </scstep>
  <scstep>
   <time name="dav">    1.07    1.07</time>
   <time name="total">    1.07    1.07</time>
   <energy>
    <i name="e_fr_energy">    -10.78494034 </i>
    <i name="e_wo_entrp">    -10.78494034 </i>
    <i name="e_0_energy">    -10.78494034 </i>
   </energy>
  </scstep>
  <scstep>
   <time name="dav">    0.67    0.67</time>
   <time name="total">    0.72    0.72</time>
   <energy>
    <i name="e_fr_energy">    -10.78494034 </i>
    <i name="e_wo_entrp">    -10.78494034 </i>
    <i name="e_0_energy">    -10.78494034 </i>
   </energy>
  </scstep>
  <scstep>
   <time name="dav">    1.00    1.00</time>
   <time name="total">    1.18    1.19</time>
   <energy>
    <i name="e_fr_energy">    -10.75880174 </i>
    <i name="e_wo_entrp">    -10.75880174 </i>
    <i name="e_0_energy">    -10.75880174 </i>
   </energy>
  </scstep>
  <scstep>
   <time name="dav">    1.12    1.13</time>
   <time name="total">    1.31    1.32</time>
   <energy>
    <i name="e_fr_energy">    -10.68303757 </i>
    <i name="e_wo_entrp">    -10.68303757 </i>
    <i name="e_0_energy">    -10.68303757 </i>
   </energy>
  </scstep>
  <scstep>
   <time name="dav">    1.19    1.20</time>
   <time name="total">    1.38    1.39</time>
   <energy>
    <i name="e_fr_energy">    -10.67738625 </i>
    <i name="e_wo_entrp">    -10.67738625 </i>
    <i name="e_0_energy">    -10.67738625 </i>
   </energy>
  </scstep>
  <scstep>
   <time name="dav">    0.91    0.91</time>
   <time name="total">    1.10    1.10</time>
   <energy>
    <i name="e_fr_energy">    -10.67751850 </i>
    <i name="e_wo_entrp">    -10.67751850 </i>
    <i name="e_0_energy">    -10.67751850 </i>
   </energy>
  </scstep>
  <scstep>
   <time name="dav">    1.13    1.13</time>
   <time name="total">    1.32    1.32</time>
   <energy>
    <i name="e_fr_energy">    -10.67735503 </i>
    <i name="e_wo_entrp">    -10.67735503 </i>
    <i name="e_0_energy">    -10.67735503 </i>
   </energy>
  </scstep>
  <scstep>
   <time name="dav">    1.03    1.03</time>
   <time name="total">    1.22    1.22</time>
   <energy>
    <i name="e_fr_energy">    -10.67733411 </i>
    <i name="e_wo_entrp">    -10.67733411 </i>
    <i name="e_0_energy">    -10.67733411 </i>
   </energy>
  </scstep>
  <scstep>
   <time name="dav">    0.93    0.93</time>
   <time name="total">    1.12    1.12</time>
   <energy>
    <i name="e_fr_energy">    -10.67733457 </i>
    <i name="e_wo_entrp">    -10.67733457 </i>
    <i name="e_0_energy">    -10.67733457 </i>
   </energy>
  </scstep>
  <scstep>
   <time name="dav">    1.16    1.16</time>
   <time name="total">    1.34    1.34</time>
   <energy>
    <i name="e_fr_energy">    -10.67733559 </i>
    <i name="e_wo_entrp">    -10.67733559 </i>
    <i name="e_0_energy">    -10.67733559 </i>
   </energy>
  </scstep>
  <scstep>
   <time name="dav">    0.77    0.77</time>
   <time name="total">    0.92    0.92</time>
   <energy>
    <i name="alphaZ">      3.71007814 </i>
    <i name="ewald">    534.42599682 </i>
    <i name="hartreedc">   -838.78409134 </i>
    <i name="XCdc">     -7.05551508 </i>
    <i name="pawpsdc">    350.96752379 </i>
    <i name="pawaedc">   -320.40348663 </i>
    <i name="eentropy">     -0.00000000 </i>
    <i name="bandstr">    -85.61352215 </i>
    <i name="atom">    352.07568098 </i>
    <i name="e_fr_energy">    -10.67733548 </i>
    <i name="e_wo_entrp">    -10.67733548 </i>
    <i name="e_0_energy">    -10.67733548 </i>
   </energy>
  </scstep>
  <structure>
   <crystal>
    <varray name="basis" >
     <v>       3.28234349       0.00000000       0.00000000 </v>
     <v>      -1.64117175       2.84259285       0.00000000 </v>
     <v>       0.00000000       0.00000000      16.00000000 </v>
    </varray>
    <i name="volume">    149.28585836 </i>
    <varray name="rec_basis" >
     <v>       0.30466038       0.17589575       0.00000000 </v>
     <v>       0.00000000       0.35179150       0.00000000 </v>
     <v>       0.00000000       0.00000000       0.06250000 </v>
    </varray>
   </crystal>
   <varray name="positions" >
    <v>       0.66731048       0.33157437       0.46118284 </v>
    <v>       0.33268952       0.66842563       0.53881716 </v>
   </varray>
  </structure>
  <varray name="forces" >
   <v>      -0.10045889       0.10211509      -0.00957981 </v>
   <v>       0.10045889      -0.10211509       0.00957981 </v>
  </varray>
  <varray name="stress" >
   <v>      -1.00752742       0.31311485       1.33278682 </v>
   <v>       0.31311479      -0.37030061      -1.35476942 </v>
   <v>       1.33278795      -1.35477068      -0.91979578 </v>
  </varray>
  <energy>
   <i name="e_fr_energy">    -10.67733548 </i>
   <i name="e_wo_entrp">    -10.67733548 </i>
   <i name="e_0_energy">    -10.67733548 </i>
  </energy>
  <scstep>
   <time name="total">    0.94    0.94</time>
   <energy>
    <i name="e_fr_energy">    -37.62451502 </i>
    <i name="e_wo_entrp">    -37.62451502 </i>
    <i name="e_0_energy">    -37.62451502 </i>
   </energy>
  </scstep>
  <scstep>
   <time name="total">    0.72    0.83</time>
   <energy>
    <i name="e_fr_energy">    -34.98374726 </i>
    <i name="e_wo_entrp">    -34.98374726 </i>
    <i name="e_0_energy">    -34.98374726 </i>
   </energy>
  </scstep>
  <scstep>
   <time name="total">    0.68    0.83</time>
   <energy>
    <i name="e_fr_energy">    -35.19367121 </i>
    <i name="e_wo_entrp">    -35.19367121 </i>
    <i name="e_0_energy">    -35.19367121 </i>
   </energy>
  </scstep>
  <scstep>
   <time name="total">    0.60    0.78</time>
   <energy>
    <i name="e_fr_energy">    -35.20595110 </i>
    <i name="e_wo_entrp">    -35.20595110 </i>
    <i name="e_0_energy">    -35.20595110 </i>
   </energy>
  </scstep>
  <scstep>
   <time name="total">    0.60    0.71</time>
   <energy>
    <i name="e_fr_energy">    -35.20670912 </i>
    <i name="e_wo_entrp">    -35.20670912 </i>
    <i name="e_0_energy">    -35.20670912 </i>
   </energy>
  </scstep>
  <scstep>
   <time name="total">    0.61    0.79</time>
   <energy>
    <i name="e_fr_energy">    -35.20683234 </i>
    <i name="e_wo_entrp">    -35.20683234 </i>
    <i name="e_0_energy">    -35.20683234 </i>
   </energy>
  </scstep>
  <scstep>
   <time name="total">    0.62    0.77</time>
   <energy>
    <i name="e_fr_energy">    -35.20683954 </i>
    <i name="e_wo_entrp">    -35.20683954 </i>
    <i name="e_0_energy">    -35.20683954 </i>
   </energy>
  </scstep>
  <scstep>
   <time name="total">    0.70    0.81</time>
   <energy>
    <i name="e_fr_energy">    -35.20684035 </i>
    <i name="e_wo_entrp">    -35.20684035 </i>
    <i name="e_0_energy">    -35.20684035 </i>
   </energy>
  </scstep>
  <scstep>
   <time name="total">    0.89    0.90</time>
   <energy>
    <i name="e_fr_energy">    -38.66418524 </i>
    <i name="e_wo_entrp">    -38.66418524 </i>
    <i name="e_0_energy">    -38.66418524 </i>
   </energy>
  </scstep>
  <scstep>
   <time name="total">    0.79    0.87</time>
   <energy>
    <i name="e_fr_energy">    -34.95388526 </i>
    <i name="e_wo_entrp">    -34.95388526 </i>
    <i name="e_0_energy">    -34.95388526 </i>
   </energy>
  </scstep>
  <scstep>
   <time name="total">    0.79    0.88</time>
   <energy>
    <i name="e_fr_energy">    -35.19351335 </i>
    <i name="e_wo_entrp">    -35.19351335 </i>
    <i name="e_0_energy">    -35.19351335 </i>
   </energy>
  </scstep>
  <scstep>
   <time name="total">    0.69    0.78</time>
   <energy>
    <i name="e_fr_energy">    -35.20360244 </i>
    <i name="e_wo_entrp">    -35.20360244 </i>
    <i name="e_0_energy">    -35.20360244 </i>
   </energy>
  </scstep>
  <scstep>
   <time name="total">    0.69    0.78</time>
   <energy>
    <i name="e_fr_energy">    -35.20447225 </i>
    <i name="e_wo_entrp">    -35.20447225 </i>
    <i name="e_0_energy">    -35.20447225 </i>
   </energy>
  </scstep>
  <scstep>
   <time name="total">    0.71    0.81</time>
   <energy>
    <i name="e_fr_energy">    -35.20457123 </i>
    <i name="e_wo_entrp">    -35.20457123 </i>
    <i name="e_0_energy">    -35.20457123 </i>
   </energy>
  </scstep>
  <scstep>
   <time name="total">    0.68    0.77</time>
   <energy>
    <i name="e_fr_energy">    -35.20457715 </i>
    <i name="e_wo_entrp">    -35.20457715 </i>
    <i name="e_0_energy">    -35.20457715 </i>
   </energy>
  </scstep>
  <scstep>
   <time name="total">    0.69    0.78</time>
   <energy>
    <i name="e_fr_energy">    -35.20457776 </i>
    <i name="e_wo_entrp">    -35.20457776 </i>
    <i name="e_0_energy">    -35.20457776 </i>
   </energy>
  </scstep>
  <scstep>
   <time name="total">    0.81    0.81</time>
   <energy>
    <i name="e_fr_energy">    -25.35124067 </i>
    <i name="e_wo_entrp">    -25.35124067 </i>
    <i name="e_0_energy">    -25.35124067 </i>
   </energy>
  </scstep>
  <scstep>
   <time name="total">    0.79    0.88</time>
   <energy>
    <i name="e_fr_energy">    -35.10236621 </i>
    <i name="e_wo_entrp">    -35.10236621 </i>
    <i name="e_0_energy">    -35.10236621 </i>
   </energy>
  </scstep>
  <scstep>
   <time name="total">    0.79    0.88</time>
   <energy>
    <i name="e_fr_energy">    -35.23569213 </i>
    <i name="e_wo_entrp">    -35.23569213 </i>
    <i name="e_0_energy">    -35.23569213 </i>
   </energy>
  </scstep>
  <scstep>
   <time name="total">    0.65    0.74</time>
   <energy>
    <i name="e_fr_energy">    -35.24121609 </i>
    <i name="e_wo_entrp">    -35.24121609 </i>
    <i name="e_0_energy">    -35.24121609 </i>
   </energy>
  </scstep>
  <scstep>
   <time name="total">    0.66    0.75</time>
   <energy>
    <i name="e_fr_energy">    -35.24225181 </i>
    <i name="e_wo_entrp">    -35.24225181 </i>
    <i name="e_0_energy">    -35.24225181 </i>
   </energy>
  </scstep>
  <scstep>
   <time name="total">    0.65    0.74</time>
   <energy>
    <i name="e_fr_energy">    -35.24239214 </i>
    <i name="e_wo_entrp">    -35.24239214 </i>
    <i name="e_0_energy">    -35.24239214 </i>
   </energy>
  </scstep>
  <scstep>
   <time name="total">    0.70    0.78</time>
   <energy>
    <i name="e_fr_energy">    -35.24240852 </i>
    <i name="e_wo_entrp">    -35.24240852 </i>
    <i name="e_0_energy">    -35.24240852 </i>
   </energy>
  </scstep>
  <scstep>
   <time name="total">    0.84    0.93</time>
   <energy>
    <i name="e_fr_energy">    -35.24241067 </i>
    <i name="e_wo_entrp">    -35.24241067 </i>
    <i name="e_0_energy">    -35.24241067 </i>
   </energy>
  </scstep>
  <scstep>
   <time name="total">    0.65    0.73</time>
   <energy>
    <i name="e_fr_energy">    -35.24241093 </i>
    <i name="e_wo_entrp">    -35.24241093 </i>
    <i name="e_0_energy">    -35.24241093 </i>
   </energy>
  </scstep>
  <scstep>
   <time name="total">    1.17    1.17</time>
   <energy>
    <i name="e_fr_energy">     -1.31117616 </i>
    <i name="e_wo_entrp">     -1.31117616 </i>
    <i name="e_0_energy">     -1.31117616 </i>
   </energy>
  </scstep>
  <scstep>
   <time name="total">    1.08    1.08</time>
   <energy>
    <i name="e_fr_energy">     -1.37566669 </i>
    <i name="e_wo_entrp">     -1.37566669 </i>
    <i name="e_0_energy">     -1.37566669 </i>
   </energy>
  </scstep>
  <scstep>
   <time name="total">    1.04    1.04</time>
   <energy>
    <i name="e_fr_energy">     -1.37645442 </i>
    <i name="e_wo_entrp">     -1.37645442 </i>
    <i name="e_0_energy">     -1.37645442 </i>
   </energy>
  </scstep>
  <scstep>
   <time name="total">    1.14    1.14</time>
   <energy>
    <i name="e_fr_energy">     -1.37652174 </i>
    <i name="e_wo_entrp">     -1.37652174 </i>
    <i name="e_0_energy">     -1.37652174 </i>
   </energy>
  </scstep>
  <scstep>
   <time name="total">    1.22    1.22</time>
   <energy>
    <i name="e_fr_energy">     -1.37652609 </i>
    <i name="e_wo_entrp">     -1.37652609 </i>
    <i name="e_0_energy">     -1.37652609 </i>
   </energy>
  </scstep>
  <scstep>
   <time name="total">    1.11    1.11</time>
   <energy>
    <i name="e_fr_energy">     -1.37652661 </i>
    <i name="e_wo_entrp">     -1.37652661 </i>
    <i name="e_0_energy">     -1.37652661 </i>
   </energy>
  </scstep>
  <scstep>
   <time name="total">    1.07    1.18</time>
   <energy>
    <i name="e_fr_energy">     -1.30231096 </i>
    <i name="e_wo_entrp">     -1.30231096 </i>
    <i name="e_0_energy">     -1.30231096 </i>
   </energy>
  </scstep>
  <scstep>
   <time name="total">    1.04    1.04</time>
   <energy>
    <i name="e_fr_energy">     -1.36541193 </i>
    <i name="e_wo_entrp">     -1.36541193 </i>
    <i name="e_0_energy">     -1.36541193 </i>
   </energy>
  </scstep>
  <scstep>
   <time name="total">    1.09    1.09</time>
   <energy>
    <i name="e_fr_energy">     -1.36622592 </i>
    <i name="e_wo_entrp">     -1.36622592 </i>
    <i name="e_0_energy">     -1.36622592 </i>
   </energy>
  </scstep>
  <scstep>
   <time name="total">    1.07    1.07</time>
   <energy>
    <i name="e_fr_energy">     -1.36629327 </i>
    <i name="e_wo_entrp">     -1.36629327 </i>
    <i name="e_0_energy">     -1.36629327 </i>
   </energy>
  </scstep>
  <scstep>
   <time name="total">    1.10    1.10</time>
   <energy>
    <i name="e_fr_energy">     -1.36629790 </i>
    <i name="e_wo_entrp">     -1.36629790 </i>
    <i name="e_0_energy">     -1.36629790 </i>
   </energy>
  </scstep>
  <scstep>
   <time name="total">    1.09    1.09</time>
   <energy>
    <i name="e_fr_energy">     -1.36629844 </i>
    <i name="e_wo_entrp">     -1.36629844 </i>
    <i name="e_0_energy">     -1.36629844 </i>
   </energy>
  </scstep>
  <scstep>
   <time name="total">    1.06    1.06</time>
   <energy>
    <i name="e_fr_energy">     -0.50545567 </i>
    <i name="e_wo_entrp">     -0.50545567 </i>
    <i name="e_0_energy">     -0.50545567 </i>
   </energy>
  </scstep>
  <scstep>
   <time name="total">    1.04    1.04</time>
   <energy>
    <i name="e_fr_energy">     -0.55667179 </i>
    <i name="e_wo_entrp">     -0.55667179 </i>
    <i name="e_0_energy">     -0.55667179 </i>
   </energy>
  </scstep>
  <scstep>
   <time name="total">    1.05    1.05</time>
   <energy>
    <i name="e_fr_energy">     -0.55705777 </i>
    <i name="e_wo_entrp">     -0.55705777 </i>
    <i name="e_0_energy">     -0.55705777 </i>
   </energy>
  </scstep>
  <scstep>
   <time name="total">    1.07    1.07</time>
   <energy>
    <i name="e_fr_energy">     -0.55707973 </i>
    <i name="e_wo_entrp">     -0.55707973 </i>
    <i name="e_0_energy">     -0.55707973 </i>
   </energy>
  </scstep>
  <scstep>
   <time name="total">    1.06    1.06</time>
   <energy>
    <i name="e_fr_energy">     -0.55708113 </i>
    <i name="e_wo_entrp">     -0.55708113 </i>
    <i name="e_0_energy">     -0.55708113 </i>
   </energy>
  </scstep>
  <scstep>
   <time name="total">    1.06    1.06</time>
   <energy>
    <i name="e_fr_energy">     -0.55708131 </i>
    <i name="e_wo_entrp">     -0.55708131 </i>
    <i name="e_0_energy">     -0.55708131 </i>
   </energy>
  </scstep>
  <varray name="dielectric_ipa" >
   <v>       4.33704359      -0.01324754      -0.01251032 </v>
   <v>      -0.01324754       4.31224827       0.01249932 </v>
   <v>      -0.01251029       0.01249932       2.35050400 </v>
  </varray>
  <kpoints>
   <generation param="Gamma">
    <v type="int" name="divisions">      14       14        1 </v>
    <v name="usershift">      0.00000000       0.00000000       0.00000000 </v>
    <v name="genvec1">      0.07142857       0.00000000       0.00000000 </v>
    <v name="genvec2">      0.00000000       0.07142857       0.00000000 </v>
    <v name="genvec3">      0.00000000       0.00000000       1.00000000 </v>
    <v name="shift">      0.00000000       0.00000000       0.00000000 </v>
   </generation>
   <varray name="kpointlist" >
    <v>       0.00000000       0.00000000       0.00000000 </v>
    <v>       0.07142857       0.00000000       0.00000000 </v>
    <v>       0.00000000       0.07142857       0.00000000 </v>
    <v>      -0.07142857       0.07142857       0.00000000 </v>
    <v>       0.14285714       0.00000000       0.00000000 </v>
    <v>       0.00000000       0.14285714       0.00000000 </v>
    <v>      -0.14285714       0.14285714       0.00000000 </v>
    <v>       0.21428571      -0.00000000       0.00000000 </v>
    <v>       0.00000000       0.21428571       0.00000000 </v>
    <v>      -0.21428571       0.21428571       0.00000000 </v>
    <v>       0.28571429       0.00000000       0.00000000 </v>
    <v>       0.00000000       0.28571429       0.00000000 </v>
    <v>      -0.28571429       0.28571429       0.00000000 </v>
    <v>       0.35714286       0.00000000       0.00000000 </v>
    <v>       0.00000000       0.35714286       0.00000000 </v>
    <v>      -0.35714286       0.35714286       0.00000000 </v>
    <v>       0.42857143      -0.00000000       0.00000000 </v>
    <v>       0.00000000       0.42857143       0.00000000 </v>
    <v>      -0.42857143       0.42857143       0.00000000 </v>
    <v>       0.50000000      -0.00000000       0.00000000 </v>
    <v>       0.00000000       0.50000000       0.00000000 </v>
    <v>       0.50000000       0.50000000       0.00000000 </v>
    <v>       0.07142857       0.07142857       0.00000000 </v>
    <v>      -0.07142857       0.14285714       0.00000000 </v>
    <v>      -0.14285714       0.07142857       0.00000000 </v>
    <v>       0.14285714       0.07142857       0.00000000 </v>
    <v>      -0.07142857       0.21428571       0.00000000 </v>
    <v>      -0.21428571       0.14285714       0.00000000 </v>
    <v>      -0.14285714       0.21428571       0.00000000 </v>
    <v>       0.07142857       0.14285714       0.00000000 </v>
    <v>       0.21428571      -0.07142857       0.00000000 </v>
    <v>       0.21428571       0.07142857       0.00000000 </v>
    <v>      -0.07142857       0.28571429       0.00000000 </v>
    <v>      -0.28571429       0.21428571       0.00000000 </v>
    <v>      -0.21428571       0.28571429       0.00000000 </v>
    <v>       0.07142857       0.21428571       0.00000000 </v>
    <v>       0.28571429      -0.07142857       0.00000000 </v>
    <v>       0.28571429       0.07142857       0.00000000 </v>
    <v>      -0.07142857       0.35714286       0.00000000 </v>
    <v>      -0.35714286       0.28571429       0.00000000 </v>
    <v>      -0.28571429       0.35714286       0.00000000 </v>
    <v>       0.07142857       0.28571429       0.00000000 </v>
    <v>       0.35714286      -0.07142857       0.00000000 </v>
    <v>       0.35714286       0.07142857       0.00000000 </v>
    <v>      -0.07142857       0.42857143       0.00000000 </v>
    <v>      -0.42857143       0.35714286       0.00000000 </v>
    <v>      -0.35714286       0.42857143       0.00000000 </v>
    <v>       0.07142857       0.35714286       0.00000000 </v>
    <v>       0.42857143      -0.07142857       0.00000000 </v>
    <v>       0.42857143       0.07142857       0.00000000 </v>
    <v>      -0.07142857       0.50000000       0.00000000 </v>
    <v>       0.50000000       0.42857143       0.00000000 </v>
    <v>      -0.42857143       0.50000000       0.00000000 </v>
    <v>       0.07142857       0.42857143       0.00000000 </v>
    <v>       0.50000000      -0.07142857       0.00000000 </v>
    <v>       0.14285714       0.14285714       0.00000000 </v>
    <v>      -0.14285714       0.28571429       0.00000000 </v>
    <v>      -0.28571429       0.14285714       0.00000000 </v>
    <v>       0.21428571       0.14285714       0.00000000 </v>
    <v>      -0.14285714       0.35714286       0.00000000 </v>
    <v>      -0.35714286       0.21428571       0.00000000 </v>
    <v>      -0.21428571       0.35714286       0.00000000 </v>
    <v>       0.14285714       0.21428571       0.00000000 </v>
    <v>       0.35714286      -0.14285714       0.00000000 </v>
    <v>       0.28571429       0.14285714       0.00000000 </v>
    <v>      -0.14285714       0.42857143       0.00000000 </v>
    <v>      -0.42857143       0.28571429       0.00000000 </v>
    <v>      -0.28571429       0.42857143       0.00000000 </v>
    <v>       0.14285714       0.28571429       0.00000000 </v>
    <v>       0.42857143      -0.14285714       0.00000000 </v>
    <v>       0.35714286       0.14285714       0.00000000 </v>
    <v>      -0.14285714       0.50000000       0.00000000 </v>
    <v>       0.50000000       0.35714286       0.00000000 </v>
    <v>      -0.35714286       0.50000000       0.00000000 </v>
    <v>       0.14285714       0.35714286       0.00000000 </v>
    <v>       0.50000000      -0.14285714       0.00000000 </v>
    <v>       0.42857143       0.14285714       0.00000000 </v>
    <v>      -0.14285714      -0.42857143       0.00000000 </v>
    <v>       0.42857143       0.42857143       0.00000000 </v>
    <v>       0.21428571       0.21428571       0.00000000 </v>
    <v>      -0.21428571       0.42857143       0.00000000 </v>
    <v>      -0.42857143       0.21428571       0.00000000 </v>
    <v>       0.28571429       0.21428571       0.00000000 </v>
    <v>      -0.21428571       0.50000000       0.00000000 </v>
    <v>       0.50000000       0.28571429       0.00000000 </v>
    <v>      -0.28571429       0.50000000       0.00000000 </v>
    <v>       0.21428571       0.28571429       0.00000000 </v>
    <v>       0.50000000      -0.21428571       0.00000000 </v>
    <v>       0.35714286       0.21428571       0.00000000 </v>
    <v>      -0.21428571      -0.42857143       0.00000000 </v>
    <v>       0.42857143       0.35714286       0.00000000 </v>
    <v>      -0.35714286      -0.42857143       0.00000000 </v>
    <v>       0.21428571       0.35714286       0.00000000 </v>
    <v>      -0.42857143      -0.21428571       0.00000000 </v>
    <v>       0.28571429       0.28571429       0.00000000 </v>
    <v>      -0.28571429      -0.42857143       0.00000000 </v>
    <v>       0.42857143       0.28571429       0.00000000 </v>
    <v>       0.35714286       0.28571429       0.00000000 </v>
    <v>      -0.28571429      -0.35714286       0.00000000 </v>
    <v>       0.35714286       0.35714286       0.00000000 </v>
   </varray>
   <varray name="weights" >
    <v>       0.00510204 </v>
    <v>       0.01020408 </v>
    <v>       0.01020408 </v>
    <v>       0.01020408 </v>
    <v>       0.01020408 </v>
    <v>       0.01020408 </v>
    <v>       0.01020408 </v>
    <v>       0.01020408 </v>
    <v>       0.01020408 </v>
    <v>       0.01020408 </v>
    <v>       0.01020408 </v>
    <v>       0.01020408 </v>
    <v>       0.01020408 </v>
    <v>       0.01020408 </v>
    <v>       0.01020408 </v>
    <v>       0.01020408 </v>
    <v>       0.01020408 </v>
    <v>       0.01020408 </v>
    <v>       0.01020408 </v>
    <v>       0.00510204 </v>
    <v>       0.00510204 </v>
    <v>       0.00510204 </v>
    <v>       0.01020408 </v>
    <v>       0.01020408 </v>
    <v>       0.01020408 </v>
    <v>       0.01020408 </v>
    <v>       0.01020408 </v>
    <v>       0.01020408 </v>
    <v>       0.01020408 </v>
    <v>       0.01020408 </v>
    <v>       0.01020408 </v>
    <v>       0.01020408 </v>
    <v>       0.01020408 </v>
    <v>       0.01020408 </v>
    <v>       0.01020408 </v>
    <v>       0.01020408 </v>
    <v>       0.01020408 </v>
    <v>       0.01020408 </v>
    <v>       0.01020408 </v>
    <v>       0.01020408 </v>
    <v>       0.01020408 </v>
    <v>       0.01020408 </v>
    <v>       0.01020408 </v>
    <v>       0.01020408 </v>
    <v>       0.01020408 </v>
    <v>       0.01020408 </v>
    <v>       0.01020408 </v>
    <v>       0.01020408 </v>
    <v>       0.01020408 </v>
    <v>       0.01020408 </v>
    <v>       0.01020408 </v>
    <v>       0.01020408 </v>
    <v>       0.01020408 </v>
    <v>       0.01020408 </v>
    <v>       0.01020408 </v>
    <v>       0.01020408 </v>
    <v>       0.01020408 </v>
    <v>       0.01020408 </v>
    <v>       0.01020408 </v>
    <v>       0.01020408 </v>
    <v>       0.01020408 </v>
    <v>       0.01020408 </v>
    <v>       0.01020408 </v>
    <v>       0.01020408 </v>
    <v>       0.01020408 </v>
    <v>       0.01020408 </v>
    <v>       0.01020408 </v>
    <v>       0.01020408 </v>
    <v>       0.01020408 </v>
    <v>       0.01020408 </v>
    <v>       0.01020408 </v>
    <v>       0.01020408 </v>
    <v>       0.01020408 </v>
    <v>       0.01020408 </v>
    <v>       0.01020408 </v>
    <v>       0.01020408 </v>
    <v>       0.01020408 </v>
    <v>       0.01020408 </v>
    <v>       0.01020408 </v>
    <v>       0.01020408 </v>
    <v>       0.01020408 </v>
    <v>       0.01020408 </v>
    <v>       0.01020408 </v>
    <v>       0.01020408 </v>
    <v>       0.01020408 </v>
    <v>       0.01020408 </v>
    <v>       0.01020408 </v>
    <v>       0.01020408 </v>
    <v>       0.01020408 </v>
    <v>       0.01020408 </v>
    <v>       0.01020408 </v>
    <v>       0.01020408 </v>
    <v>       0.01020408 </v>
    <v>       0.01020408 </v>
    <v>       0.01020408 </v>
    <v>       0.01020408 </v>
    <v>       0.01020408 </v>
    <v>       0.01020408 </v>
    <v>       0.01020408 </v>
    <v>       0.01020408 </v>
   </varray>
  </kpoints>
  <scstep>
   <time name="total">    1.06    1.06</time>
   <energy>
    <i name="e_fr_energy">     -1.31117616 </i>
    <i name="e_wo_entrp">     -1.31117616 </i>
    <i name="e_0_energy">     -1.31117616 </i>
   </energy>
  </scstep>
  <scstep>
   <time name="total">    1.14    1.14</time>
   <energy>
    <i name="e_fr_energy">     -1.37566669 </i>
    <i name="e_wo_entrp">     -1.37566669 </i>
    <i name="e_0_energy">     -1.37566669 </i>
   </energy>
  </scstep>
  <scstep>
   <time name="total">    1.14    1.14</time>
   <energy>
    <i name="e_fr_energy">     -1.34736705 </i>
    <i name="e_wo_entrp">     -1.34736705 </i>
    <i name="e_0_energy">     -1.34736705 </i>
   </energy>
  </scstep>
  <scstep>
   <time name="total">    1.18    1.18</time>
   <energy>
    <i name="e_fr_energy">     -1.35988479 </i>
    <i name="e_wo_entrp">     -1.35988479 </i>
    <i name="e_0_energy">     -1.35988479 </i>
   </energy>
  </scstep>
  <scstep>
   <time name="total">    1.15    1.15</time>
   <energy>
    <i name="e_fr_energy">     -1.37175837 </i>
    <i name="e_wo_entrp">     -1.37175837 </i>
    <i name="e_0_energy">     -1.37175837 </i>
   </energy>
  </scstep>
  <scstep>
   <time name="total">    1.14    1.14</time>
   <energy>
    <i name="e_fr_energy">     -1.37941261 </i>
    <i name="e_wo_entrp">     -1.37941261 </i>
    <i name="e_0_energy">     -1.37941261 </i>
   </energy>
  </scstep>
  <scstep>
   <time name="total">    1.14    1.14</time>
   <energy>
    <i name="e_fr_energy">     -1.38351835 </i>
    <i name="e_wo_entrp">     -1.38351835 </i>
    <i name="e_0_energy">     -1.38351835 </i>
   </energy>
  </scstep>
  <scstep>
   <time name="total">    1.15    1.15</time>
   <energy>
    <i name="e_fr_energy">     -1.38448234 </i>
    <i name="e_wo_entrp">     -1.38448234 </i>
    <i name="e_0_energy">     -1.38448234 </i>
   </energy>
  </scstep>
  <scstep>
   <time name="total">    1.13    1.13</time>
   <energy>
    <i name="e_fr_energy">     -1.38508566 </i>
    <i name="e_wo_entrp">     -1.38508566 </i>
    <i name="e_0_energy">     -1.38508566 </i>
   </energy>
  </scstep>
  <scstep>
   <time name="total">    1.16    1.16</time>
   <energy>
    <i name="e_fr_energy">     -1.38512253 </i>
    <i name="e_wo_entrp">     -1.38512253 </i>
    <i name="e_0_energy">     -1.38512253 </i>
   </energy>
  </scstep>
  <scstep>
   <time name="total">    1.15    1.19</time>
   <energy>
    <i name="e_fr_energy">     -1.38522722 </i>
    <i name="e_wo_entrp">     -1.38522722 </i>
    <i name="e_0_energy">     -1.38522722 </i>
   </energy>
  </scstep>
  <scstep>
   <time name="total">    1.14    1.14</time>
   <energy>
    <i name="e_fr_energy">     -1.38524513 </i>
    <i name="e_wo_entrp">     -1.38524513 </i>
    <i name="e_0_energy">     -1.38524513 </i>
   </energy>
  </scstep>
  <scstep>
   <time name="total">    1.12    1.12</time>
   <energy>
    <i name="e_fr_energy">     -1.38525478 </i>
    <i name="e_wo_entrp">     -1.38525478 </i>
    <i name="e_0_energy">     -1.38525478 </i>
   </energy>
  </scstep>
  <scstep>
   <time name="total">    1.12    1.12</time>
   <energy>
    <i name="e_fr_energy">     -1.38525899 </i>
    <i name="e_wo_entrp">     -1.38525899 </i>
    <i name="e_0_energy">     -1.38525899 </i>
   </energy>
  </scstep>
  <scstep>
   <time name="total">    1.12    1.12</time>
   <energy>
    <i name="e_fr_energy">     -1.38525841 </i>
    <i name="e_wo_entrp">     -1.38525841 </i>
    <i name="e_0_energy">     -1.38525841 </i>
   </energy>
  </scstep>
  <kpoints>
   <generation param="Gamma">
    <v type="int" name="divisions">      14       14        1 </v>
    <v name="usershift">      0.00000000       0.00000000       0.00000000 </v>
    <v name="genvec1">      0.07142857       0.00000000       0.00000000 </v>
    <v name="genvec2">      0.00000000       0.07142857       0.00000000 </v>
    <v name="genvec3">      0.00000000       0.00000000       1.00000000 </v>
    <v name="shift">      0.00000000       0.00000000       0.00000000 </v>
   </generation>
   <varray name="kpointlist" >
    <v>       0.00000000       0.00000000       0.00000000 </v>
    <v>       0.07142857       0.00000000       0.00000000 </v>
    <v>       0.00000000       0.07142857       0.00000000 </v>
    <v>      -0.07142857       0.07142857       0.00000000 </v>
    <v>       0.14285714       0.00000000       0.00000000 </v>
    <v>       0.00000000       0.14285714       0.00000000 </v>
    <v>      -0.14285714       0.14285714       0.00000000 </v>
    <v>       0.21428571      -0.00000000       0.00000000 </v>
    <v>       0.00000000       0.21428571       0.00000000 </v>
    <v>      -0.21428571       0.21428571       0.00000000 </v>
    <v>       0.28571429       0.00000000       0.00000000 </v>
    <v>       0.00000000       0.28571429       0.00000000 </v>
    <v>      -0.28571429       0.28571429       0.00000000 </v>
    <v>       0.35714286       0.00000000       0.00000000 </v>
    <v>       0.00000000       0.35714286       0.00000000 </v>
    <v>      -0.35714286       0.35714286       0.00000000 </v>
    <v>       0.42857143      -0.00000000       0.00000000 </v>
    <v>       0.00000000       0.42857143       0.00000000 </v>
    <v>      -0.42857143       0.42857143       0.00000000 </v>
    <v>       0.50000000      -0.00000000       0.00000000 </v>
    <v>       0.00000000       0.50000000       0.00000000 </v>
    <v>       0.50000000       0.50000000       0.00000000 </v>
    <v>       0.07142857       0.07142857       0.00000000 </v>
    <v>      -0.07142857       0.14285714       0.00000000 </v>
    <v>      -0.14285714       0.07142857       0.00000000 </v>
    <v>       0.14285714       0.07142857       0.00000000 </v>
    <v>      -0.07142857       0.21428571       0.00000000 </v>
    <v>      -0.21428571       0.14285714       0.00000000 </v>
    <v>      -0.14285714       0.21428571       0.00000000 </v>
    <v>       0.07142857       0.14285714       0.00000000 </v>
    <v>       0.21428571      -0.07142857       0.00000000 </v>
    <v>       0.21428571       0.07142857       0.00000000 </v>
    <v>      -0.07142857       0.28571429       0.00000000 </v>
    <v>      -0.28571429       0.21428571       0.00000000 </v>
    <v>      -0.21428571       0.28571429       0.00000000 </v>
    <v>       0.07142857       0.21428571       0.00000000 </v>
    <v>       0.28571429      -0.07142857       0.00000000 </v>
    <v>       0.28571429       0.07142857       0.00000000 </v>
    <v>      -0.07142857       0.35714286       0.00000000 </v>
    <v>      -0.35714286       0.28571429       0.00000000 </v>
    <v>      -0.28571429       0.35714286       0.00000000 </v>
    <v>       0.07142857       0.28571429       0.00000000 </v>
    <v>       0.35714286      -0.07142857       0.00000000 </v>
    <v>       0.35714286       0.07142857       0.00000000 </v>
    <v>      -0.07142857       0.42857143       0.00000000 </v>
    <v>      -0.42857143       0.35714286       0.00000000 </v>
    <v>      -0.35714286       0.42857143       0.00000000 </v>
    <v>       0.07142857       0.35714286       0.00000000 </v>
    <v>       0.42857143      -0.07142857       0.00000000 </v>
    <v>       0.42857143       0.07142857       0.00000000 </v>
    <v>      -0.07142857       0.50000000       0.00000000 </v>
    <v>       0.50000000       0.42857143       0.00000000 </v>
    <v>      -0.42857143       0.50000000       0.00000000 </v>
    <v>       0.07142857       0.42857143       0.00000000 </v>
    <v>       0.50000000      -0.07142857       0.00000000 </v>
    <v>       0.14285714       0.14285714       0.00000000 </v>
    <v>      -0.14285714       0.28571429       0.00000000 </v>
    <v>      -0.28571429       0.14285714       0.00000000 </v>
    <v>       0.21428571       0.14285714       0.00000000 </v>
    <v>      -0.14285714       0.35714286       0.00000000 </v>
    <v>      -0.35714286       0.21428571       0.00000000 </v>
    <v>      -0.21428571       0.35714286       0.00000000 </v>
    <v>       0.14285714       0.21428571       0.00000000 </v>
    <v>       0.35714286      -0.14285714       0.00000000 </v>
    <v>       0.28571429       0.14285714       0.00000000 </v>
    <v>      -0.14285714       0.42857143       0.00000000 </v>
    <v>      -0.42857143       0.28571429       0.00000000 </v>
    <v>      -0.28571429       0.42857143       0.00000000 </v>
    <v>       0.14285714       0.28571429       0.00000000 </v>
    <v>       0.42857143      -0.14285714       0.00000000 </v>
    <v>       0.35714286       0.14285714       0.00000000 </v>
    <v>      -0.14285714       0.50000000       0.00000000 </v>
    <v>       0.50000000       0.35714286       0.00000000 </v>
    <v>      -0.35714286       0.50000000       0.00000000 </v>
    <v>       0.14285714       0.35714286       0.00000000 </v>
    <v>       0.50000000      -0.14285714       0.00000000 </v>
    <v>       0.42857143       0.14285714       0.00000000 </v>
    <v>      -0.14285714      -0.42857143       0.00000000 </v>
    <v>       0.42857143       0.42857143       0.00000000 </v>
    <v>       0.21428571       0.21428571       0.00000000 </v>
    <v>      -0.21428571       0.42857143       0.00000000 </v>
    <v>      -0.42857143       0.21428571       0.00000000 </v>
    <v>       0.28571429       0.21428571       0.00000000 </v>
    <v>      -0.21428571       0.50000000       0.00000000 </v>
    <v>       0.50000000       0.28571429       0.00000000 </v>
    <v>      -0.28571429       0.50000000       0.00000000 </v>
    <v>       0.21428571       0.28571429       0.00000000 </v>
    <v>       0.50000000      -0.21428571       0.00000000 </v>
    <v>       0.35714286       0.21428571       0.00000000 </v>
    <v>      -0.21428571      -0.42857143       0.00000000 </v>
    <v>       0.42857143       0.35714286       0.00000000 </v>
    <v>      -0.35714286      -0.42857143       0.00000000 </v>
    <v>       0.21428571       0.35714286       0.00000000 </v>
    <v>      -0.42857143      -0.21428571       0.00000000 </v>
    <v>       0.28571429       0.28571429       0.00000000 </v>
    <v>      -0.28571429      -0.42857143       0.00000000 </v>
    <v>       0.42857143       0.28571429       0.00000000 </v>
    <v>       0.35714286       0.28571429       0.00000000 </v>
    <v>      -0.28571429      -0.35714286       0.00000000 </v>
    <v>       0.35714286       0.35714286       0.00000000 </v>
   </varray>
   <varray name="weights" >
    <v>       0.00510204 </v>
    <v>       0.01020408 </v>
    <v>       0.01020408 </v>
    <v>       0.01020408 </v>
    <v>       0.01020408 </v>
    <v>       0.01020408 </v>
    <v>       0.01020408 </v>
    <v>       0.01020408 </v>
    <v>       0.01020408 </v>
    <v>       0.01020408 </v>
    <v>       0.01020408 </v>
    <v>       0.01020408 </v>
    <v>       0.01020408 </v>
    <v>       0.01020408 </v>
    <v>       0.01020408 </v>
    <v>       0.01020408 </v>
    <v>       0.01020408 </v>
    <v>       0.01020408 </v>
    <v>       0.01020408 </v>
    <v>       0.00510204 </v>
    <v>       0.00510204 </v>
    <v>       0.00510204 </v>
    <v>       0.01020408 </v>
    <v>       0.01020408 </v>
    <v>       0.01020408 </v>
    <v>       0.01020408 </v>
    <v>       0.01020408 </v>
    <v>       0.01020408 </v>
    <v>       0.01020408 </v>
    <v>       0.01020408 </v>
    <v>       0.01020408 </v>
    <v>       0.01020408 </v>
    <v>       0.01020408 </v>
    <v>       0.01020408 </v>
    <v>       0.01020408 </v>
    <v>       0.01020408 </v>
    <v>       0.01020408 </v>
    <v>       0.01020408 </v>
    <v>       0.01020408 </v>
    <v>       0.01020408 </v>
    <v>       0.01020408 </v>
    <v>       0.01020408 </v>
    <v>       0.01020408 </v>
    <v>       0.01020408 </v>
    <v>       0.01020408 </v>
    <v>       0.01020408 </v>
    <v>       0.01020408 </v>
    <v>       0.01020408 </v>
    <v>       0.01020408 </v>
    <v>       0.01020408 </v>
    <v>       0.01020408 </v>
    <v>       0.01020408 </v>
    <v>       0.01020408 </v>
    <v>       0.01020408 </v>
    <v>       0.01020408 </v>
    <v>       0.01020408 </v>
    <v>       0.01020408 </v>
    <v>       0.01020408 </v>
    <v>       0.01020408 </v>
    <v>       0.01020408 </v>
    <v>       0.01020408 </v>
    <v>       0.01020408 </v>
    <v>       0.01020408 </v>
    <v>       0.01020408 </v>
    <v>       0.01020408 </v>
    <v>       0.01020408 </v>
    <v>       0.01020408 </v>
    <v>       0.01020408 </v>
    <v>       0.01020408 </v>
    <v>       0.01020408 </v>
    <v>       0.01020408 </v>
    <v>       0.01020408 </v>
    <v>       0.01020408 </v>
    <v>       0.01020408 </v>
    <v>       0.01020408 </v>
    <v>       0.01020408 </v>
    <v>       0.01020408 </v>
    <v>       0.01020408 </v>
    <v>       0.01020408 </v>
    <v>       0.01020408 </v>
    <v>       0.01020408 </v>
    <v>       0.01020408 </v>
    <v>       0.01020408 </v>
    <v>       0.01020408 </v>
    <v>       0.01020408 </v>
    <v>       0.01020408 </v>
    <v>       0.01020408 </v>
    <v>       0.01020408 </v>
    <v>       0.01020408 </v>
    <v>       0.01020408 </v>
    <v>       0.01020408 </v>
    <v>       0.01020408 </v>
    <v>       0.01020408 </v>
    <v>       0.01020408 </v>
    <v>       0.01020408 </v>
    <v>       0.01020408 </v>
    <v>       0.01020408 </v>
    <v>       0.01020408 </v>
    <v>       0.01020408 </v>
    <v>       0.01020408 </v>
   </varray>
  </kpoints>
  <scstep>
   <time name="total">    1.06    1.06</time>
   <energy>
    <i name="e_fr_energy">     -1.30231096 </i>
    <i name="e_wo_entrp">     -1.30231096 </i>
    <i name="e_0_energy">     -1.30231096 </i>
   </energy>
  </scstep>
  <scstep>
   <time name="total">    1.14    1.14</time>
   <energy>
    <i name="e_fr_energy">     -1.36541193 </i>
    <i name="e_wo_entrp">     -1.36541193 </i>
    <i name="e_0_energy">     -1.36541193 </i>
   </energy>
  </scstep>
  <scstep>
   <time name="total">    1.18    1.18</time>
   <energy>
    <i name="e_fr_energy">     -1.33728318 </i>
    <i name="e_wo_entrp">     -1.33728318 </i>
    <i name="e_0_energy">     -1.33728318 </i>
   </energy>
  </scstep>
  <scstep>
   <time name="total">    1.16    1.16</time>
   <energy>
    <i name="e_fr_energy">     -1.34917690 </i>
    <i name="e_wo_entrp">     -1.34917690 </i>
    <i name="e_0_energy">     -1.34917690 </i>
   </energy>
  </scstep>
  <scstep>
   <time name="total">    1.13    1.13</time>
   <energy>
    <i name="e_fr_energy">     -1.36046308 </i>
    <i name="e_wo_entrp">     -1.36046308 </i>
    <i name="e_0_energy">     -1.36046308 </i>
   </energy>
  </scstep>
  <scstep>
   <time name="total">    1.17    1.17</time>
   <energy>
    <i name="e_fr_energy">     -1.36845499 </i>
    <i name="e_wo_entrp">     -1.36845499 </i>
    <i name="e_0_energy">     -1.36845499 </i>
   </energy>
  </scstep>
  <scstep>
   <time name="total">    1.16    1.20</time>
   <energy>
    <i name="e_fr_energy">     -1.37244855 </i>
    <i name="e_wo_entrp">     -1.37244855 </i>
    <i name="e_0_energy">     -1.37244855 </i>
   </energy>
  </scstep>
  <scstep>
   <time name="total">    1.15    1.15</time>
   <energy>
    <i name="e_fr_energy">     -1.37339312 </i>
    <i name="e_wo_entrp">     -1.37339312 </i>
    <i name="e_0_energy">     -1.37339312 </i>
   </energy>
  </scstep>
  <scstep>
   <time name="total">    1.14    1.14</time>
   <energy>
    <i name="e_fr_energy">     -1.37399026 </i>
    <i name="e_wo_entrp">     -1.37399026 </i>
    <i name="e_0_energy">     -1.37399026 </i>
   </energy>
  </scstep>
  <scstep>
   <time name="total">    1.17    1.17</time>
   <energy>
    <i name="e_fr_energy">     -1.37403603 </i>
    <i name="e_wo_entrp">     -1.37403603 </i>
    <i name="e_0_energy">     -1.37403603 </i>
   </energy>
  </scstep>
  <scstep>
   <time name="total">    1.33    1.33</time>
   <energy>
    <i name="e_fr_energy">     -1.37413071 </i>
    <i name="e_wo_entrp">     -1.37413071 </i>
    <i name="e_0_energy">     -1.37413071 </i>
   </energy>
  </scstep>
  <scstep>
   <time name="total">    1.33    1.34</time>
   <energy>
    <i name="e_fr_energy">     -1.37415026 </i>
    <i name="e_wo_entrp">     -1.37415026 </i>
    <i name="e_0_energy">     -1.37415026 </i>
   </energy>
  </scstep>
  <scstep>
   <time name="total">    1.16    1.16</time>
   <energy>
    <i name="e_fr_energy">     -1.37416138 </i>
    <i name="e_wo_entrp">     -1.37416138 </i>
    <i name="e_0_energy">     -1.37416138 </i>
   </energy>
  </scstep>
  <scstep>
   <time name="total">    1.16    1.16</time>
   <energy>
    <i name="e_fr_energy">     -1.37416574 </i>
    <i name="e_wo_entrp">     -1.37416574 </i>
    <i name="e_0_energy">     -1.37416574 </i>
   </energy>
  </scstep>
  <scstep>
   <time name="total">    1.20    1.20</time>
   <energy>
    <i name="e_fr_energy">     -1.37416529 </i>
    <i name="e_wo_entrp">     -1.37416529 </i>
    <i name="e_0_energy">     -1.37416529 </i>
   </energy>
  </scstep>
  <kpoints>
   <generation param="Gamma">
    <v type="int" name="divisions">      14       14        1 </v>
    <v name="usershift">      0.00000000       0.00000000       0.00000000 </v>
    <v name="genvec1">      0.07142857       0.00000000       0.00000000 </v>
    <v name="genvec2">      0.00000000       0.07142857       0.00000000 </v>
    <v name="genvec3">      0.00000000       0.00000000       1.00000000 </v>
    <v name="shift">      0.00000000       0.00000000       0.00000000 </v>
   </generation>
   <varray name="kpointlist" >
    <v>       0.00000000       0.00000000       0.00000000 </v>
    <v>       0.07142857       0.00000000       0.00000000 </v>
    <v>       0.00000000       0.07142857       0.00000000 </v>
    <v>      -0.07142857       0.07142857       0.00000000 </v>
    <v>       0.14285714       0.00000000       0.00000000 </v>
    <v>       0.00000000       0.14285714       0.00000000 </v>
    <v>      -0.14285714       0.14285714       0.00000000 </v>
    <v>       0.21428571      -0.00000000       0.00000000 </v>
    <v>       0.00000000       0.21428571       0.00000000 </v>
    <v>      -0.21428571       0.21428571       0.00000000 </v>
    <v>       0.28571429       0.00000000       0.00000000 </v>
    <v>       0.00000000       0.28571429       0.00000000 </v>
    <v>      -0.28571429       0.28571429       0.00000000 </v>
    <v>       0.35714286       0.00000000       0.00000000 </v>
    <v>       0.00000000       0.35714286       0.00000000 </v>
    <v>      -0.35714286       0.35714286       0.00000000 </v>
    <v>       0.42857143      -0.00000000       0.00000000 </v>
    <v>       0.00000000       0.42857143       0.00000000 </v>
    <v>      -0.42857143       0.42857143       0.00000000 </v>
    <v>       0.50000000      -0.00000000       0.00000000 </v>
    <v>       0.00000000       0.50000000       0.00000000 </v>
    <v>       0.50000000       0.50000000       0.00000000 </v>
    <v>       0.07142857       0.07142857       0.00000000 </v>
    <v>      -0.07142857       0.14285714       0.00000000 </v>
    <v>      -0.14285714       0.07142857       0.00000000 </v>
    <v>       0.14285714       0.07142857       0.00000000 </v>
    <v>      -0.07142857       0.21428571       0.00000000 </v>
    <v>      -0.21428571       0.14285714       0.00000000 </v>
    <v>      -0.14285714       0.21428571       0.00000000 </v>
    <v>       0.07142857       0.14285714       0.00000000 </v>
    <v>       0.21428571      -0.07142857       0.00000000 </v>
    <v>       0.21428571       0.07142857       0.00000000 </v>
    <v>      -0.07142857       0.28571429       0.00000000 </v>
    <v>      -0.28571429       0.21428571       0.00000000 </v>
    <v>      -0.21428571       0.28571429       0.00000000 </v>
    <v>       0.07142857       0.21428571       0.00000000 </v>
    <v>       0.28571429      -0.07142857       0.00000000 </v>
    <v>       0.28571429       0.07142857       0.00000000 </v>
    <v>      -0.07142857       0.35714286       0.00000000 </v>
    <v>      -0.35714286       0.28571429       0.00000000 </v>
    <v>      -0.28571429       0.35714286       0.00000000 </v>
    <v>       0.07142857       0.28571429       0.00000000 </v>
    <v>       0.35714286      -0.07142857       0.00000000 </v>
    <v>       0.35714286       0.07142857       0.00000000 </v>
    <v>      -0.07142857       0.42857143       0.00000000 </v>
    <v>      -0.42857143       0.35714286       0.00000000 </v>
    <v>      -0.35714286       0.42857143       0.00000000 </v>
    <v>       0.07142857       0.35714286       0.00000000 </v>
    <v>       0.42857143      -0.07142857       0.00000000 </v>
    <v>       0.42857143       0.07142857       0.00000000 </v>
    <v>      -0.07142857       0.50000000       0.00000000 </v>
    <v>       0.50000000       0.42857143       0.00000000 </v>
    <v>      -0.42857143       0.50000000       0.00000000 </v>
    <v>       0.07142857       0.42857143       0.00000000 </v>
    <v>       0.50000000      -0.07142857       0.00000000 </v>
    <v>       0.14285714       0.14285714       0.00000000 </v>
    <v>      -0.14285714       0.28571429       0.00000000 </v>
    <v>      -0.28571429       0.14285714       0.00000000 </v>
    <v>       0.21428571       0.14285714       0.00000000 </v>
    <v>      -0.14285714       0.35714286       0.00000000 </v>
    <v>      -0.35714286       0.21428571       0.00000000 </v>
    <v>      -0.21428571       0.35714286       0.00000000 </v>
    <v>       0.14285714       0.21428571       0.00000000 </v>
    <v>       0.35714286      -0.14285714       0.00000000 </v>
    <v>       0.28571429       0.14285714       0.00000000 </v>
    <v>      -0.14285714       0.42857143       0.00000000 </v>
    <v>      -0.42857143       0.28571429       0.00000000 </v>
    <v>      -0.28571429       0.42857143       0.00000000 </v>
    <v>       0.14285714       0.28571429       0.00000000 </v>
    <v>       0.42857143      -0.14285714       0.00000000 </v>
    <v>       0.35714286       0.14285714       0.00000000 </v>
    <v>      -0.14285714       0.50000000       0.00000000 </v>
    <v>       0.50000000       0.35714286       0.00000000 </v>
    <v>      -0.35714286       0.50000000       0.00000000 </v>
    <v>       0.14285714       0.35714286       0.00000000 </v>
    <v>       0.50000000      -0.14285714       0.00000000 </v>
    <v>       0.42857143       0.14285714       0.00000000 </v>
    <v>      -0.14285714      -0.42857143       0.00000000 </v>
    <v>       0.42857143       0.42857143       0.00000000 </v>
    <v>       0.21428571       0.21428571       0.00000000 </v>
    <v>      -0.21428571       0.42857143       0.00000000 </v>
    <v>      -0.42857143       0.21428571       0.00000000 </v>
    <v>       0.28571429       0.21428571       0.00000000 </v>
    <v>      -0.21428571       0.50000000       0.00000000 </v>
    <v>       0.50000000       0.28571429       0.00000000 </v>
    <v>      -0.28571429       0.50000000       0.00000000 </v>
    <v>       0.21428571       0.28571429       0.00000000 </v>
    <v>       0.50000000      -0.21428571       0.00000000 </v>
    <v>       0.35714286       0.21428571       0.00000000 </v>
    <v>      -0.21428571      -0.42857143       0.00000000 </v>
    <v>       0.42857143       0.35714286       0.00000000 </v>
    <v>      -0.35714286      -0.42857143       0.00000000 </v>
    <v>       0.21428571       0.35714286       0.00000000 </v>
    <v>      -0.42857143      -0.21428571       0.00000000 </v>
    <v>       0.28571429       0.28571429       0.00000000 </v>
    <v>      -0.28571429      -0.42857143       0.00000000 </v>
    <v>       0.42857143       0.28571429       0.00000000 </v>
    <v>       0.35714286       0.28571429       0.00000000 </v>
    <v>      -0.28571429      -0.35714286       0.00000000 </v>
    <v>       0.35714286       0.35714286       0.00000000 </v>
   </varray>
   <varray name="weights" >
    <v>       0.00510204 </v>
    <v>       0.01020408 </v>
    <v>       0.01020408 </v>
    <v>       0.01020408 </v>
    <v>       0.01020408 </v>
    <v>       0.01020408 </v>
    <v>       0.01020408 </v>
    <v>       0.01020408 </v>
    <v>       0.01020408 </v>
    <v>       0.01020408 </v>
    <v>       0.01020408 </v>
    <v>       0.01020408 </v>
[...]
       </set>
       <set comment="band 13">
        <r>  0.0015  0.0287  0.0433 </r>
        <r>  0.0015  0.0287  0.0433 </r>
       </set>
       <set comment="band 14">
        <r>  0.0059  0.0161  0.0146 </r>
        <r>  0.0059  0.0161  0.0146 </r>
       </set>
       <set comment="band 15">
        <r>  0.0020  0.0315  0.0541 </r>
        <r>  0.0020  0.0315  0.0541 </r>
       </set>
       <set comment="band 16">
        <r>  0.0003  0.0154  0.0313 </r>
        <r>  0.0003  0.0154  0.0313 </r>
       </set>
      </set>
      <set comment="kpoint 92">
       <set comment="band 1">
        <r>  0.2663  0.0441  0.0069 </r>
        <r>  0.2663  0.0441  0.0069 </r>
       </set>
       <set comment="band 2">
        <r>  0.2454  0.0667  0.0090 </r>
        <r>  0.2454  0.0667  0.0090 </r>
       </set>
       <set comment="band 3">
        <r>  0.0208  0.2072  0.0150 </r>
        <r>  0.0208  0.2072  0.0150 </r>
       </set>
       <set comment="band 4">
        <r>  0.0641  0.1921  0.0055 </r>
        <r>  0.0641  0.1921  0.0055 </r>
       </set>
       <set comment="band 5">
        <r>  0.0565  0.2128  0.0040 </r>
        <r>  0.0565  0.2128  0.0040 </r>
       </set>
       <set comment="band 6">
        <r>  0.0014  0.1833  0.0326 </r>
        <r>  0.0014  0.1833  0.0326 </r>
       </set>
       <set comment="band 7">
        <r>  0.0227  0.1805  0.0428 </r>
        <r>  0.0227  0.1805  0.0428 </r>
       </set>
       <set comment="band 8">
        <r>  0.0304  0.2013  0.0498 </r>
        <r>  0.0304  0.2013  0.0498 </r>
       </set>
       <set comment="band 9">
        <r>  0.0008  0.0367  0.1302 </r>
        <r>  0.0008  0.0367  0.1302 </r>
       </set>
       <set comment="band 10">
        <r>  0.0065  0.0594  0.0977 </r>
        <r>  0.0065  0.0594  0.0977 </r>
       </set>
       <set comment="band 11">
        <r>  0.0056  0.0130  0.0190 </r>
        <r>  0.0056  0.0130  0.0190 </r>
       </set>
       <set comment="band 12">
        <r>  0.0023  0.0996  0.0636 </r>
        <r>  0.0023  0.0996  0.0636 </r>
       </set>
       <set comment="band 13">
        <r>  0.0015  0.0292  0.0436 </r>
        <r>  0.0015  0.0292  0.0436 </r>
       </set>
       <set comment="band 14">
        <r>  0.0059  0.0161  0.0146 </r>
        <r>  0.0059  0.0161  0.0146 </r>
       </set>
       <set comment="band 15">
        <r>  0.0020  0.0318  0.0545 </r>
        <r>  0.0020  0.0318  0.0545 </r>
       </set>
       <set comment="band 16">
        <r>  0.0003  0.0156  0.0313 </r>
        <r>  0.0003  0.0156  0.0313 </r>
       </set>
      </set>
      <set comment="kpoint 93">
       <set comment="band 1">
        <r>  0.2642  0.0447  0.0069 </r>
        <r>  0.2642  0.0447  0.0069 </r>
       </set>
       <set comment="band 2">
        <r>  0.2471  0.0668  0.0092 </r>
        <r>  0.2471  0.0668  0.0092 </r>
       </set>
       <set comment="band 3">
        <r>  0.0210  0.2068  0.0149 </r>
        <r>  0.0210  0.2068  0.0149 </r>
       </set>
       <set comment="band 4">
        <r>  0.0637  0.1923  0.0054 </r>
        <r>  0.0637  0.1923  0.0054 </r>
       </set>
       <set comment="band 5">
        <r>  0.0572  0.2119  0.0041 </r>
        <r>  0.0572  0.2119  0.0041 </r>
       </set>
       <set comment="band 6">
        <r>  0.0015  0.1837  0.0327 </r>
        <r>  0.0015  0.1837  0.0327 </r>
       </set>
       <set comment="band 7">
        <r>  0.0233  0.1791  0.0435 </r>
        <r>  0.0233  0.1791  0.0435 </r>
       </set>
       <set comment="band 8">
        <r>  0.0289  0.2017  0.0482 </r>
        <r>  0.0289  0.2017  0.0482 </r>
       </set>
       <set comment="band 9">
        <r>  0.0011  0.0369  0.1308 </r>
        <r>  0.0011  0.0369  0.1308 </r>
       </set>
       <set comment="band 10">
        <r>  0.0064  0.0617  0.0992 </r>
        <r>  0.0064  0.0617  0.0992 </r>
       </set>
       <set comment="band 11">
        <r>  0.0056  0.0131  0.0195 </r>
        <r>  0.0056  0.0131  0.0195 </r>
       </set>
       <set comment="band 12">
        <r>  0.0023  0.0967  0.0619 </r>
        <r>  0.0023  0.0967  0.0619 </r>
       </set>
       <set comment="band 13">
        <r>  0.0013  0.0290  0.0451 </r>
        <r>  0.0013  0.0290  0.0451 </r>
       </set>
       <set comment="band 14">
        <r>  0.0061  0.0163  0.0139 </r>
        <r>  0.0061  0.0163  0.0139 </r>
       </set>
       <set comment="band 15">
        <r>  0.0018  0.0366  0.0588 </r>
        <r>  0.0018  0.0366  0.0588 </r>
       </set>
       <set comment="band 16">
        <r>  0.0002  0.0163  0.0314 </r>
        <r>  0.0002  0.0163  0.0314 </r>
       </set>
      </set>
      <set comment="kpoint 94">
       <set comment="band 1">
        <r>  0.2653  0.0444  0.0069 </r>
        <r>  0.2653  0.0444  0.0069 </r>
       </set>
       <set comment="band 2">
        <r>  0.2463  0.0667  0.0091 </r>
        <r>  0.2463  0.0667  0.0091 </r>
       </set>
       <set comment="band 3">
        <r>  0.0210  0.2070  0.0149 </r>
        <r>  0.0210  0.2070  0.0149 </r>
       </set>
       <set comment="band 4">
        <r>  0.0636  0.1922  0.0055 </r>
        <r>  0.0636  0.1922  0.0055 </r>
       </set>
       <set comment="band 5">
        <r>  0.0571  0.2124  0.0040 </r>
        <r>  0.0571  0.2124  0.0040 </r>
       </set>
       <set comment="band 6">
        <r>  0.0014  0.1833  0.0328 </r>
        <r>  0.0014  0.1833  0.0328 </r>
       </set>
       <set comment="band 7">
        <r>  0.0230  0.1837  0.0423 </r>
        <r>  0.0230  0.1837  0.0423 </r>
       </set>
       <set comment="band 8">
        <r>  0.0296  0.1972  0.0497 </r>
        <r>  0.0296  0.1972  0.0497 </r>
       </set>
       <set comment="band 9">
        <r>  0.0010  0.0377  0.1302 </r>
        <r>  0.0010  0.0377  0.1302 </r>
       </set>
       <set comment="band 10">
        <r>  0.0067  0.0618  0.0987 </r>
        <r>  0.0067  0.0618  0.0987 </r>
       </set>
       <set comment="band 11">
        <r>  0.0054  0.0132  0.0201 </r>
        <r>  0.0054  0.0132  0.0201 </r>
       </set>
       <set comment="band 12">
        <r>  0.0028  0.0980  0.0630 </r>
        <r>  0.0028  0.0980  0.0630 </r>
       </set>
       <set comment="band 13">
        <r>  0.0015  0.0277  0.0439 </r>
        <r>  0.0015  0.0277  0.0439 </r>
       </set>
       <set comment="band 14">
        <r>  0.0060  0.0159  0.0143 </r>
        <r>  0.0060  0.0159  0.0143 </r>
       </set>
       <set comment="band 15">
        <r>  0.0019  0.0343  0.0564 </r>
        <r>  0.0019  0.0343  0.0564 </r>
       </set>
       <set comment="band 16">
        <r>  0.0003  0.0158  0.0314 </r>
        <r>  0.0003  0.0158  0.0314 </r>
       </set>
      </set>
      <set comment="kpoint 95">
       <set comment="band 1">
        <r>  0.2601  0.0471  0.0067 </r>
        <r>  0.2601  0.0471  0.0067 </r>
       </set>
       <set comment="band 2">
        <r>  0.2639  0.0597  0.0099 </r>
        <r>  0.2639  0.0597  0.0099 </r>
       </set>
       <set comment="band 3">
        <r>  0.0065  0.2096  0.0145 </r>
        <r>  0.0065  0.2096  0.0145 </r>
       </set>
       <set comment="band 4">
        <r>  0.0646  0.1899  0.0050 </r>
        <r>  0.0646  0.1899  0.0050 </r>
       </set>
       <set comment="band 5">
        <r>  0.0607  0.2175  0.0037 </r>
        <r>  0.0607  0.2175  0.0037 </r>
       </set>
       <set comment="band 6">
        <r>  0.0016  0.1768  0.0318 </r>
        <r>  0.0016  0.1768  0.0318 </r>
       </set>
       <set comment="band 7">
        <r>  0.0194  0.1662  0.0420 </r>
        <r>  0.0194  0.1662  0.0420 </r>
       </set>
       <set comment="band 8">
        <r>  0.0284  0.2286  0.0341 </r>
        <r>  0.0284  0.2286  0.0341 </r>
       </set>
       <set comment="band 9">
        <r>  0.0014  0.0592  0.1631 </r>
        <r>  0.0014  0.0592  0.1631 </r>
       </set>
       <set comment="band 10">
        <r>  0.0118  0.0724  0.1353 </r>
        <r>  0.0118  0.0724  0.1353 </r>
       </set>
       <set comment="band 11">
        <r>  0.0015  0.0594  0.0656 </r>
        <r>  0.0015  0.0594  0.0656 </r>
       </set>
       <set comment="band 12">
        <r>  0.0073  0.0118  0.0134 </r>
        <r>  0.0073  0.0118  0.0134 </r>
       </set>
       <set comment="band 13">
        <r>  0.0004  0.0029  0.0181 </r>
        <r>  0.0004  0.0029  0.0181 </r>
       </set>
       <set comment="band 14">
        <r>  0.0000  0.0662  0.0527 </r>
        <r>  0.0000  0.0662  0.0527 </r>
       </set>
       <set comment="band 15">
        <r>  0.0093  0.0420  0.0284 </r>
        <r>  0.0093  0.0420  0.0284 </r>
       </set>
       <set comment="band 16">
        <r>  0.0063  0.0042  0.0216 </r>
        <r>  0.0063  0.0042  0.0216 </r>
       </set>
      </set>
      <set comment="kpoint 96">
       <set comment="band 1">
        <r>  0.2614  0.0467  0.0067 </r>
        <r>  0.2614  0.0467  0.0067 </r>
       </set>
       <set comment="band 2">
        <r>  0.2632  0.0595  0.0099 </r>
        <r>  0.2632  0.0595  0.0099 </r>
       </set>
       <set comment="band 3">
        <r>  0.0061  0.2101  0.0145 </r>
        <r>  0.0061  0.2101  0.0145 </r>
       </set>
       <set comment="band 4">
        <r>  0.0646  0.1897  0.0051 </r>
        <r>  0.0646  0.1897  0.0051 </r>
       </set>
       <set comment="band 5">
        <r>  0.0606  0.2181  0.0036 </r>
        <r>  0.0606  0.2181  0.0036 </r>
       </set>
       <set comment="band 6">
        <r>  0.0015  0.1764  0.0319 </r>
        <r>  0.0015  0.1764  0.0319 </r>
       </set>
       <set comment="band 7">
        <r>  0.0191  0.1688  0.0412 </r>
        <r>  0.0191  0.1688  0.0412 </r>
       </set>
       <set comment="band 8">
        <r>  0.0291  0.2272  0.0345 </r>
        <r>  0.0291  0.2272  0.0345 </r>
       </set>
       <set comment="band 9">
        <r>  0.0014  0.0601  0.1631 </r>
        <r>  0.0014  0.0601  0.1631 </r>
       </set>
       <set comment="band 10">
        <r>  0.0123  0.0729  0.1353 </r>
        <r>  0.0123  0.0729  0.1353 </r>
       </set>
       <set comment="band 11">
        <r>  0.0014  0.0579  0.0658 </r>
        <r>  0.0014  0.0579  0.0658 </r>
       </set>
       <set comment="band 12">
        <r>  0.0072  0.0118  0.0136 </r>
        <r>  0.0072  0.0118  0.0136 </r>
       </set>
       <set comment="band 13">
        <r>  0.0004  0.0028  0.0178 </r>
        <r>  0.0004  0.0028  0.0178 </r>
       </set>
       <set comment="band 14">
        <r>  0.0000  0.0620  0.0507 </r>
        <r>  0.0000  0.0620  0.0507 </r>
       </set>
       <set comment="band 15">
        <r>  0.0090  0.0436  0.0298 </r>
        <r>  0.0090  0.0436  0.0298 </r>
       </set>
       <set comment="band 16">
        <r>  0.0063  0.0043  0.0219 </r>
        <r>  0.0063  0.0043  0.0219 </r>
       </set>
      </set>
      <set comment="kpoint 97">
       <set comment="band 1">
        <r>  0.2619  0.0466  0.0067 </r>
        <r>  0.2619  0.0466  0.0067 </r>
       </set>
       <set comment="band 2">
        <r>  0.2630  0.0595  0.0099 </r>
        <r>  0.2630  0.0595  0.0099 </r>
       </set>
       <set comment="band 3">
        <r>  0.0059  0.2103  0.0145 </r>
        <r>  0.0059  0.2103  0.0145 </r>
       </set>
       <set comment="band 4">
        <r>  0.0646  0.1897  0.0051 </r>
        <r>  0.0646  0.1897  0.0051 </r>
       </set>
       <set comment="band 5">
        <r>  0.0605  0.2182  0.0036 </r>
        <r>  0.0605  0.2182  0.0036 </r>
       </set>
       <set comment="band 6">
        <r>  0.0014  0.1763  0.0320 </r>
        <r>  0.0014  0.1763  0.0320 </r>
       </set>
       <set comment="band 7">
        <r>  0.0191  0.1698  0.0410 </r>
        <r>  0.0191  0.1698  0.0410 </r>
       </set>
       <set comment="band 8">
        <r>  0.0293  0.2267  0.0346 </r>
        <r>  0.0293  0.2267  0.0346 </r>
       </set>
       <set comment="band 9">
        <r>  0.0014  0.0604  0.1630 </r>
        <r>  0.0014  0.0604  0.1630 </r>
       </set>
       <set comment="band 10">
        <r>  0.0125  0.0730  0.1354 </r>
        <r>  0.0125  0.0730  0.1354 </r>
       </set>
       <set comment="band 11">
        <r>  0.0013  0.0574  0.0659 </r>
        <r>  0.0013  0.0574  0.0659 </r>
       </set>
       <set comment="band 12">
        <r>  0.0071  0.0118  0.0137 </r>
        <r>  0.0071  0.0118  0.0137 </r>
       </set>
       <set comment="band 13">
        <r>  0.0004  0.0028  0.0177 </r>
        <r>  0.0004  0.0028  0.0177 </r>
       </set>
       <set comment="band 14">
        <r>  0.0000  0.0605  0.0500 </r>
        <r>  0.0000  0.0605  0.0500 </r>
       </set>
       <set comment="band 15">
        <r>  0.0089  0.0441  0.0303 </r>
        <r>  0.0089  0.0441  0.0303 </r>
       </set>
       <set comment="band 16">
        <r>  0.0063  0.0044  0.0219 </r>
        <r>  0.0063  0.0044  0.0219 </r>
       </set>
      </set>
      <set comment="kpoint 98">
       <set comment="band 1">
        <r>  0.2660  0.0490  0.0079 </r>
        <r>  0.2660  0.0490  0.0079 </r>
       </set>
       <set comment="band 2">
        <r>  0.2601  0.0573  0.0089 </r>
        <r>  0.2601  0.0573  0.0089 </r>
       </set>
       <set comment="band 3">
        <r>  0.0034  0.2088  0.0137 </r>
        <r>  0.0034  0.2088  0.0137 </r>
       </set>
       <set comment="band 4">
        <r>  0.0674  0.1982  0.0047 </r>
        <r>  0.0674  0.1982  0.0047 </r>
       </set>
       <set comment="band 5">
        <r>  0.0635  0.2075  0.0042 </r>
        <r>  0.0635  0.2075  0.0042 </r>
       </set>
       <set comment="band 6">
        <r>  0.0004  0.1715  0.0315 </r>
        <r>  0.0004  0.1715  0.0315 </r>
       </set>
       <set comment="band 7">
        <r>  0.0181  0.1805  0.0416 </r>
        <r>  0.0181  0.1805  0.0416 </r>
       </set>
       <set comment="band 8">
        <r>  0.0240  0.2007  0.0398 </r>
        <r>  0.0240  0.2007  0.0398 </r>
       </set>
       <set comment="band 9">
        <r>  0.0017  0.0488  0.1588 </r>
        <r>  0.0017  0.0488  0.1588 </r>
       </set>
       <set comment="band 10">
        <r>  0.0082  0.0666  0.0942 </r>
        <r>  0.0082  0.0666  0.0942 </r>
       </set>
       <set comment="band 11">
        <r>  0.0081  0.1486  0.0990 </r>
        <r>  0.0081  0.1486  0.0990 </r>
       </set>
       <set comment="band 12">
        <r>  0.0041  0.0652  0.1335 </r>
        <r>  0.0041  0.0652  0.1335 </r>
       </set>
       <set comment="band 13">
        <r>  0.0071  0.0065  0.0266 </r>
        <r>  0.0071  0.0065  0.0266 </r>
       </set>
       <set comment="band 14">
        <r>  0.0047  0.0204  0.0095 </r>
        <r>  0.0047  0.0204  0.0095 </r>
       </set>
       <set comment="band 15">
        <r>  0.0012  0.0063  0.0161 </r>
        <r>  0.0012  0.0063  0.0161 </r>
       </set>
       <set comment="band 16">
        <r>  0.0001  0.0024  0.0123 </r>
        <r>  0.0001  0.0024  0.0123 </r>
       </set>
      </set>
      <set comment="kpoint 99">
       <set comment="band 1">
        <r>  0.2656  0.0490  0.0079 </r>
        <r>  0.2656  0.0490  0.0079 </r>
       </set>
       <set comment="band 2">
        <r>  0.2604  0.0574  0.0089 </r>
        <r>  0.2604  0.0574  0.0089 </r>
       </set>
       <set comment="band 3">
        <r>  0.0035  0.2087  0.0137 </r>
        <r>  0.0035  0.2087  0.0137 </r>
       </set>
       <set comment="band 4">
        <r>  0.0673  0.1984  0.0046 </r>
        <r>  0.0673  0.1984  0.0046 </r>
       </set>
       <set comment="band 5">
        <r>  0.0637  0.2073  0.0042 </r>
        <r>  0.0637  0.2073  0.0042 </r>
       </set>
       <set comment="band 6">
        <r>  0.0004  0.1715  0.0315 </r>
        <r>  0.0004  0.1715  0.0315 </r>
       </set>
       <set comment="band 7">
        <r>  0.0181  0.1798  0.0418 </r>
        <r>  0.0181  0.1798  0.0418 </r>
       </set>
       <set comment="band 8">
        <r>  0.0238  0.2009  0.0398 </r>
        <r>  0.0238  0.2009  0.0398 </r>
       </set>
       <set comment="band 9">
        <r>  0.0017  0.0486  0.1585 </r>
        <r>  0.0017  0.0486  0.1585 </r>
       </set>
       <set comment="band 10">
        <r>  0.0083  0.0680  0.0947 </r>
        <r>  0.0083  0.0680  0.0947 </r>
       </set>
       <set comment="band 11">
        <r>  0.0081  0.1487  0.0989 </r>
        <r>  0.0081  0.1487  0.0989 </r>
       </set>
       <set comment="band 12">
        <r>  0.0041  0.0644  0.1327 </r>
        <r>  0.0041  0.0644  0.1327 </r>
       </set>
       <set comment="band 13">
        <r>  0.0070  0.0065  0.0270 </r>
        <r>  0.0070  0.0065  0.0270 </r>
       </set>
       <set comment="band 14">
        <r>  0.0048  0.0204  0.0094 </r>
        <r>  0.0048  0.0204  0.0094 </r>
       </set>
       <set comment="band 15">
        <r>  0.0012  0.0064  0.0161 </r>
        <r>  0.0012  0.0064  0.0161 </r>
       </set>
       <set comment="band 16">
        <r>  0.0001  0.0024  0.0123 </r>
        <r>  0.0001  0.0024  0.0123 </r>
       </set>
      </set>
      <set comment="kpoint 100">
       <set comment="band 1">
        <r>  0.2671  0.0488  0.0080 </r>
        <r>  0.2671  0.0488  0.0080 </r>
       </set>
       <set comment="band 2">
        <r>  0.2595  0.0572  0.0088 </r>
        <r>  0.2595  0.0572  0.0088 </r>
       </set>
       <set comment="band 3">
        <r>  0.0031  0.2091  0.0137 </r>
        <r>  0.0031  0.2091  0.0137 </r>
       </set>
       <set comment="band 4">
        <r>  0.0677  0.1978  0.0047 </r>
        <r>  0.0677  0.1978  0.0047 </r>
       </set>
       <set comment="band 5">
        <r>  0.0631  0.2082  0.0041 </r>
        <r>  0.0631  0.2082  0.0041 </r>
       </set>
       <set comment="band 6">
        <r>  0.0004  0.1713  0.0315 </r>
        <r>  0.0004  0.1713  0.0315 </r>
       </set>
       <set comment="band 7">
        <r>  0.0178  0.1814  0.0413 </r>
        <r>  0.0178  0.1814  0.0413 </r>
       </set>
       <set comment="band 8">
        <r>  0.0246  0.2010  0.0398 </r>
        <r>  0.0246  0.2010  0.0398 </r>
       </set>
       <set comment="band 9">
        <r>  0.0018  0.0492  0.1596 </r>
        <r>  0.0018  0.0492  0.1596 </r>
       </set>
       <set comment="band 10">
        <r>  0.0080  0.0631  0.0927 </r>
        <r>  0.0080  0.0631  0.0927 </r>
       </set>
       <set comment="band 11">
        <r>  0.0080  0.1485  0.0991 </r>
        <r>  0.0080  0.1485  0.0991 </r>
       </set>
       <set comment="band 12">
        <r>  0.0042  0.0669  0.1361 </r>
        <r>  0.0042  0.0669  0.1361 </r>
       </set>
       <set comment="band 13">
        <r>  0.0075  0.0066  0.0252 </r>
        <r>  0.0075  0.0066  0.0252 </r>
       </set>
       <set comment="band 14">
        <r>  0.0044  0.0205  0.0097 </r>
        <r>  0.0044  0.0205  0.0097 </r>
       </set>
       <set comment="band 15">
        <r>  0.0011  0.0061  0.0161 </r>
        <r>  0.0011  0.0061  0.0161 </r>
       </set>
       <set comment="band 16">
        <r>  0.0001  0.0023  0.0123 </r>
        <r>  0.0001  0.0023  0.0123 </r>
       </set>
      </set>
     </set>
    </set>
   </array>
  </projected>
 </calculation>
 <structure name="finalpos" >
  <crystal>
   <varray name="basis" >
    <v>       3.28234349       0.00000000       0.00000000 </v>
    <v>      -1.64117175       2.84259285       0.00000000 </v>
    <v>       0.00000000       0.00000000      16.00000000 </v>
   </varray>
   <i name="volume">    149.28585836 </i>
   <varray name="rec_basis" >
    <v>       0.30466038       0.17589575       0.00000000 </v>
    <v>       0.00000000       0.35179150       0.00000000 </v>
    <v>       0.00000000       0.00000000       0.06250000 </v>
   </varray>
  </crystal>
  <varray name="positions" >
   <v>       0.66731048       0.33157437       0.46118284 </v>
   <v>       0.33268952       0.66842563       0.53881716 </v>
  </varray>
 </structure>
</modeling>
