   2   2   1   0
  0.3647508E+02  0.2294499E-09  0.2294499E-09  0.1600000E-08  0.5000000E-15
  1.000000000000000E-004
  CAR 
 unknown system                          
     15.86956598    -32.22412517 6001     -5.13128320      1.00000000
    -32.224  0.0000E+00  0.0000E+00
    -32.216  0.0000E+00  0.0000E+00
    -32.208  0.0000E+00  0.0000E+00
    -32.200  0.0000E+00  0.0000E+00
    -32.192  0.0000E+00  0.0000E+00
    -32.184  0.0000E+00  0.0000E+00
    -32.176  0.0000E+00  0.0000E+00
    -32.168  0.0000E+00  0.0000E+00
    -32.160  0.0000E+00  0.0000E+00
    -32.152  0.0000E+00  0.0000E+00
    -32.144  0.0000E+00  0.0000E+00
    -32.136  0.0000E+00  0.0000E+00
    -32.128  0.0000E+00  0.0000E+00
    -32.120  0.0000E+00  0.0000E+00
    -32.112  0.0000E+00  0.0000E+00
    -32.104  0.0000E+00  0.0000E+00
    -32.096  0.0000E+00  0.0000E+00
    -32.088  0.0000E+00  0.0000E+00
    -32.080  0.0000E+00  0.0000E+00
    -32.072  0.0000E+00  0.0000E+00
    -32.064  0.0000E+00  0.0000E+00
    -32.056  0.0000E+00  0.0000E+00
    -32.048  0.0000E+00  0.0000E+00
    -32.040  0.0000E+00  0.0000E+00
    -32.032  0.0000E+00  0.0000E+00
    -32.024  0.0000E+00  0.0000E+00
    -32.016  0.0000E+00  0.0000E+00
    -32.008  0.0000E+00  0.0000E+00
    -32.000  0.0000E+00  0.0000E+00
    -31.992  0.0000E+00  0.0000E+00
    -31.984  0.0000E+00  0.0000E+00
    -31.976  0.0000E+00  0.0000E+00
    -31.968  0.0000E+00  0.0000E+00
    -31.960  0.0000E+00  0.0000E+00
    -31.952  0.0000E+00  0.0000E+00
    -31.944  0.0000E+00  0.0000E+00
    -31.936  0.0000E+00  0.0000E+00
    -31.928  0.0000E+00  0.0000E+00
    -31.920  0.0000E+00  0.0000E+00
    -31.912  0.0000E+00  0.0000E+00
    -31.904  0.0000E+00  0.0000E+00
    -31.895  0.0000E+00  0.0000E+00
    -31.887  0.0000E+00  0.0000E+00
    -31.879  0.0000E+00  0.0000E+00
    -31.871  0.0000E+00  0.0000E+00
    -31.863  0.0000E+00  0.0000E+00
    -31.855  0.0000E+00  0.0000E+00
    -31.847  0.0000E+00  0.0000E+00
    -31.839  0.0000E+00  0.0000E+00
    -31.831  0.0000E+00  0.0000E+00
    -31.823  0.0000E+00  0.0000E+00
    -31.815  0.0000E+00  0.0000E+00
    -31.807  0.0000E+00  0.0000E+00
    -31.799  0.0000E+00  0.0000E+00
    -31.791  0.0000E+00  0.0000E+00
    -31.783  0.0000E+00  0.0000E+00
    -31.775  0.0000E+00  0.0000E+00
    -31.767  0.0000E+00  0.0000E+00
    -31.759  0.0000E+00  0.0000E+00
    -31.751  0.0000E+00  0.0000E+00
    -31.743  0.0000E+00  0.0000E+00
    -31.735  0.0000E+00  0.0000E+00
    -31.727  0.0000E+00  0.0000E+00
    -31.719  0.0000E+00  0.0000E+00
    -31.711  0.0000E+00  0.0000E+00
    -31.703  0.0000E+00  0.0000E+00
    -31.695  0.0000E+00  0.0000E+00
    -31.687  0.0000E+00  0.0000E+00
    -31.679  0.0000E+00  0.0000E+00
    -31.671  0.0000E+00  0.0000E+00
    -31.663  0.0000E+00  0.0000E+00
    -31.655  0.0000E+00  0.0000E+00
    -31.647  0.0000E+00  0.0000E+00
    -31.639  0.0000E+00  0.0000E+00
    -31.631  0.0000E+00  0.0000E+00
    -31.623  0.0000E+00  0.0000E+00
    -31.615  0.0000E+00  0.0000E+00
    -31.607  0.0000E+00  0.0000E+00
    -31.599  0.0000E+00  0.0000E+00
    -31.591  0.0000E+00  0.0000E+00
    -31.583  0.0000E+00  0.0000E+00
    -31.575  0.0000E+00  0.0000E+00
    -31.567  0.0000E+00  0.0000E+00
    -31.559  0.0000E+00  0.0000E+00
    -31.551  0.0000E+00  0.0000E+00
    -31.543  0.0000E+00  0.0000E+00
    -31.535  0.0000E+00  0.0000E+00
    -31.527  0.0000E+00  0.0000E+00
    -31.519  0.0000E+00  0.0000E+00
    -31.511  0.0000E+00  0.0000E+00
    -31.503  0.0000E+00  0.0000E+00
    -31.495  0.0000E+00  0.0000E+00
    -31.487  0.0000E+00  0.0000E+00
    -31.479  0.0000E+00  0.0000E+00
    -31.471  0.0000E+00  0.0000E+00
    -31.463  0.0000E+00  0.0000E+00
    -31.455  0.0000E+00  0.0000E+00
    -31.447  0.0000E+00  0.0000E+00
    -31.439  0.0000E+00  0.0000E+00
    -31.431  0.0000E+00  0.0000E+00
    -31.423  0.0000E+00  0.0000E+00
    -31.415  0.0000E+00  0.0000E+00
    -31.407  0.0000E+00  0.0000E+00
    -31.399  0.0000E+00  0.0000E+00
    -31.391  0.0000E+00  0.0000E+00
    -31.382  0.0000E+00  0.0000E+00
    -31.374  0.0000E+00  0.0000E+00
    -31.366  0.0000E+00  0.0000E+00
    -31.358  0.0000E+00  0.0000E+00
    -31.350  0.0000E+00  0.0000E+00
    -31.342  0.0000E+00  0.0000E+00
    -31.334  0.0000E+00  0.0000E+00
    -31.326  0.0000E+00  0.0000E+00
    -31.318  0.0000E+00  0.0000E+00
    -31.310  0.0000E+00  0.0000E+00
    -31.302  0.0000E+00  0.0000E+00
    -31.294  0.0000E+00  0.0000E+00
    -31.286  0.0000E+00  0.0000E+00
    -31.278  0.0000E+00  0.0000E+00
    -31.270  0.0000E+00  0.0000E+00
    -31.262  0.0000E+00  0.0000E+00
    -31.254  0.0000E+00  0.0000E+00
    -31.246  0.0000E+00  0.0000E+00
    -31.238  0.0000E+00  0.0000E+00
    -31.230  0.0000E+00  0.0000E+00
    -31.222  0.0000E+00  0.0000E+00
    -31.214  0.0000E+00  0.0000E+00
    -31.206  0.0000E+00  0.0000E+00
    -31.198  0.0000E+00  0.0000E+00
    -31.190  0.0000E+00  0.0000E+00
    -31.182  0.0000E+00  0.0000E+00
    -31.174  0.0000E+00  0.0000E+00
    -31.166  0.0000E+00  0.0000E+00
    -31.158  0.0000E+00  0.0000E+00
    -31.150  0.0000E+00  0.0000E+00
    -31.142  0.0000E+00  0.0000E+00
    -31.134  0.0000E+00  0.0000E+00
    -31.126  0.0000E+00  0.0000E+00
    -31.118  0.0000E+00  0.0000E+00
    -31.110  0.0000E+00  0.0000E+00
    -31.102  0.0000E+00  0.0000E+00
    -31.094  0.0000E+00  0.0000E+00
    -31.086  0.0000E+00  0.0000E+00
    -31.078  0.0000E+00  0.0000E+00
    -31.070  0.0000E+00  0.0000E+00
    -31.062  0.0000E+00  0.0000E+00
    -31.054  0.0000E+00  0.0000E+00
    -31.046  0.0000E+00  0.0000E+00
    -31.038  0.0000E+00  0.0000E+00
    -31.030  0.0000E+00  0.0000E+00
    -31.022  0.0000E+00  0.0000E+00
    -31.014  0.0000E+00  0.0000E+00
    -31.006  0.0000E+00  0.0000E+00
    -30.998  0.0000E+00  0.0000E+00
    -30.990  0.0000E+00  0.0000E+00
    -30.982  0.0000E+00  0.0000E+00
    -30.974  0.0000E+00  0.0000E+00
    -30.966  0.0000E+00  0.0000E+00
    -30.958  0.0000E+00  0.0000E+00
    -30.950  0.0000E+00  0.0000E+00
    -30.942  0.0000E+00  0.0000E+00
    -30.934  0.0000E+00  0.0000E+00
    -30.926  0.0000E+00  0.0000E+00
    -30.918  0.0000E+00  0.0000E+00
    -30.910  0.0000E+00  0.0000E+00
    -30.902  0.0000E+00  0.0000E+00
    -30.894  0.0000E+00  0.0000E+00
    -30.886  0.0000E+00  0.0000E+00
    -30.878  0.0000E+00  0.0000E+00
    -30.869  0.0000E+00  0.0000E+00
    -30.861  0.0000E+00  0.0000E+00
    -30.853  0.0000E+00  0.0000E+00
    -30.845  0.0000E+00  0.0000E+00
    -30.837  0.0000E+00  0.0000E+00
    -30.829  0.0000E+00  0.0000E+00
    -30.821  0.0000E+00  0.0000E+00
    -30.813  0.0000E+00  0.0000E+00
    -30.805  0.0000E+00  0.0000E+00
    -30.797  0.0000E+00  0.0000E+00
    -30.789  0.0000E+00  0.0000E+00
    -30.781  0.0000E+00  0.0000E+00
    -30.773  0.0000E+00  0.0000E+00
    -30.765  0.0000E+00  0.0000E+00
    -30.757  0.0000E+00  0.0000E+00
    -30.749  0.0000E+00  0.0000E+00
    -30.741  0.0000E+00  0.0000E+00
    -30.733  0.0000E+00  0.0000E+00
    -30.725  0.0000E+00  0.0000E+00
    -30.717  0.0000E+00  0.0000E+00
    -30.709  0.0000E+00  0.0000E+00
    -30.701  0.0000E+00  0.0000E+00
    -30.693  0.0000E+00  0.0000E+00
    -30.685  0.0000E+00  0.0000E+00
    -30.677  0.0000E+00  0.0000E+00
    -30.669  0.0000E+00  0.0000E+00
    -30.661  0.0000E+00  0.0000E+00
    -30.653  0.0000E+00  0.0000E+00
    -30.645  0.0000E+00  0.0000E+00
    -30.637  0.0000E+00  0.0000E+00
    -30.629  0.0000E+00  0.0000E+00
    -30.621  0.0000E+00  0.0000E+00
    -30.613  0.0000E+00  0.0000E+00
    -30.605  0.0000E+00  0.0000E+00
    -30.597  0.0000E+00  0.0000E+00
    -30.589  0.0000E+00  0.0000E+00
    -30.581  0.0000E+00  0.0000E+00
    -30.573  0.0000E+00  0.0000E+00
    -30.565  0.0000E+00  0.0000E+00
    -30.557  0.0000E+00  0.0000E+00
    -30.549  0.0000E+00  0.0000E+00
    -30.541  0.0000E+00  0.0000E+00
    -30.533  0.0000E+00  0.0000E+00
    -30.525  0.0000E+00  0.0000E+00
    -30.517  0.0000E+00  0.0000E+00
    -30.509  0.0000E+00  0.0000E+00
    -30.501  0.0000E+00  0.0000E+00
    -30.493  0.0000E+00  0.0000E+00
    -30.485  0.0000E+00  0.0000E+00
    -30.477  0.0000E+00  0.0000E+00
    -30.469  0.0000E+00  0.0000E+00
    -30.461  0.0000E+00  0.0000E+00
    -30.453  0.0000E+00  0.0000E+00
    -30.445  0.0000E+00  0.0000E+00
    -30.437  0.0000E+00  0.0000E+00
    -30.429  0.0000E+00  0.0000E+00
    -30.421  0.0000E+00  0.0000E+00
    -30.413  0.0000E+00  0.0000E+00
    -30.405  0.0000E+00  0.0000E+00
    -30.397  0.0000E+00  0.0000E+00
    -30.389  0.0000E+00  0.0000E+00
    -30.381  0.0000E+00  0.0000E+00
    -30.373  0.0000E+00  0.0000E+00
    -30.365  0.0000E+00  0.0000E+00
    -30.356  0.0000E+00  0.0000E+00
    -30.348  0.0000E+00  0.0000E+00
    -30.340  0.0000E+00  0.0000E+00
    -30.332  0.0000E+00  0.0000E+00
    -30.324  0.0000E+00  0.0000E+00
    -30.316  0.0000E+00  0.0000E+00
    -30.308  0.0000E+00  0.0000E+00
    -30.300  0.0000E+00  0.0000E+00
    -30.292  0.0000E+00  0.0000E+00
    -30.284  0.0000E+00  0.0000E+00
    -30.276  0.0000E+00  0.0000E+00
    -30.268  0.0000E+00  0.0000E+00
    -30.260  0.0000E+00  0.0000E+00
    -30.252  0.0000E+00  0.0000E+00
    -30.244  0.0000E+00  0.0000E+00
    -30.236  0.0000E+00  0.0000E+00
    -30.228  0.0000E+00  0.0000E+00
    -30.220  0.0000E+00  0.0000E+00
    -30.212  0.0000E+00  0.0000E+00
    -30.204  0.0000E+00  0.0000E+00
    -30.196  0.0000E+00  0.0000E+00
    -30.188  0.0000E+00  0.0000E+00
    -30.180  0.0000E+00  0.0000E+00
    -30.172  0.0000E+00  0.0000E+00
    -30.164  0.0000E+00  0.0000E+00
    -30.156  0.0000E+00  0.0000E+00
    -30.148  0.0000E+00  0.0000E+00
    -30.140  0.0000E+00  0.0000E+00
    -30.132  0.0000E+00  0.0000E+00
    -30.124  0.0000E+00  0.0000E+00
    -30.116  0.0000E+00  0.0000E+00
    -30.108  0.0000E+00  0.0000E+00
    -30.100  0.0000E+00  0.0000E+00
    -30.092  0.2501E-15  0.2005E-17
    -30.084  0.8736E-12  0.7004E-14
    -30.076  0.8663E-09  0.6951E-11
    -30.068  0.2464E-06  0.1982E-08
    -30.060  0.2039E-04  0.1654E-06
    -30.052  0.5005E-03  0.4178E-05
    -30.044  0.3733E-02  0.3410E-04
    -30.036  0.8659E-02  0.1035E-03
    -30.028  0.6326E-02  0.1542E-03
    -30.020  0.1448E-02  0.1658E-03
    -30.012  0.1019E-03  0.1666E-03
    -30.004  0.2155E-05  0.1667E-03
    -29.996  0.1603E-05  0.1667E-03
    -29.988  0.1292E-03  0.1677E-03
    -29.980  0.3118E-02  0.1927E-03
    -29.972  0.2286E-01  0.3759E-03
    -29.964  0.5215E-01  0.7939E-03
    -29.956  0.3747E-01  0.1094E-02
    -29.948  0.8435E-02  0.1162E-02
    -29.940  0.5834E-03  0.1167E-02
    -29.932  0.1209E-04  0.1167E-02
    -29.924  0.7347E-07  0.1167E-02
    -29.916  0.1288E-09  0.1167E-02
    -29.908  0.6439E-13  0.1167E-02
    -29.900  0.0000E+00  0.1167E-02
    -29.892  0.0000E+00  0.1167E-02
    -29.884  0.0000E+00  0.1167E-02
    -29.876  0.2669E-14  0.1167E-02
    -29.868  0.8578E-11  0.1167E-02
    -29.860  0.7833E-08  0.1167E-02
    -29.852  0.2053E-05  0.1167E-02
    -29.843  0.1567E-03  0.1168E-02
    -29.835  0.3555E-02  0.1196E-02
    -29.827  0.2453E-01  0.1393E-02
    -29.819  0.5273E-01  0.1816E-02
    -29.811  0.3571E-01  0.2102E-02
    -29.803  0.7570E-02  0.2163E-02
    -29.795  0.4924E-03  0.2167E-02
    -29.787  0.9596E-05  0.2167E-02
    -29.779  0.2540E-05  0.2167E-02
    -29.771  0.1809E-03  0.2168E-02
    -29.763  0.3916E-02  0.2200E-02
    -29.755  0.2583E-01  0.2407E-02
    -29.747  0.5307E-01  0.2832E-02
    -29.739  0.3436E-01  0.3107E-02
    -29.731  0.6961E-02  0.3163E-02
    -29.723  0.4323E-03  0.3167E-02
    -29.715  0.8028E-05  0.3167E-02
    -29.707  0.4364E-07  0.3167E-02
    -29.699  0.6834E-10  0.3167E-02
    -29.691  0.3049E-13  0.3167E-02
    -29.683  0.0000E+00  0.3167E-02
    -29.675  0.0000E+00  0.3167E-02
    -29.667  0.0000E+00  0.3167E-02
    -29.659  0.0000E+00  0.3167E-02
    -29.651  0.0000E+00  0.3167E-02
    -29.643  0.0000E+00  0.3167E-02
    -29.635  0.0000E+00  0.3167E-02
    -29.627  0.0000E+00  0.3167E-02
    -29.619  0.0000E+00  0.3167E-02
    -29.611  0.0000E+00  0.3167E-02
    -29.603  0.0000E+00  0.3167E-02
    -29.595  0.0000E+00  0.3167E-02
    -29.587  0.3070E-13  0.3167E-02
    -29.579  0.7625E-10  0.3167E-02
    -29.571  0.5393E-07  0.3167E-02
    -29.563  0.1098E-04  0.3167E-02
    -29.555  0.6532E-03  0.3172E-02
    -29.547  0.1160E-01  0.3265E-02
    -29.539  0.6301E-01  0.3770E-02
    -29.531  0.1070E+00  0.4627E-02
    -29.523  0.5722E-01  0.5086E-02
    -29.515  0.9553E-02  0.5163E-02
    -29.507  0.4869E-03  0.5167E-02
    -29.499  0.7391E-05  0.5167E-02
    -29.491  0.3275E-07  0.5167E-02
    -29.483  0.4171E-10  0.5167E-02
    -29.475  0.1513E-13  0.5167E-02
    -29.467  0.0000E+00  0.5167E-02
    -29.459  0.0000E+00  0.5167E-02
    -29.451  0.6925E-17  0.5167E-02
    -29.443  0.5686E-13  0.5167E-02
    -29.435  0.1159E-09  0.5167E-02
    -29.427  0.6739E-07  0.5167E-02
    -29.419  0.1130E-04  0.5167E-02
    -29.411  0.5552E-03  0.5171E-02
    -29.403  0.8174E-02  0.5237E-02
    -29.395  0.3695E-01  0.5533E-02
    -29.387  0.5234E-01  0.5952E-02
    -29.379  0.2335E-01  0.6140E-02
    -29.371  0.3241E-02  0.6166E-02
    -29.363  0.1368E-03  0.6167E-02
    -29.355  0.1714E-05  0.6167E-02
    -29.347  0.6251E-08  0.6167E-02
    -29.339  0.6541E-11  0.6167E-02
    -29.330  0.1939E-14  0.6167E-02
    -29.322  0.0000E+00  0.6167E-02
    -29.314  0.0000E+00  0.6167E-02
    -29.306  0.0000E+00  0.6167E-02
    -29.298  0.0000E+00  0.6167E-02
    -29.290  0.0000E+00  0.6167E-02
    -29.282  0.0000E+00  0.6167E-02
    -29.274  0.0000E+00  0.6167E-02
    -29.266  0.0000E+00  0.6167E-02
    -29.258  0.0000E+00  0.6167E-02
    -29.250  0.0000E+00  0.6167E-02
    -29.242  0.0000E+00  0.6167E-02
    -29.234  0.1247E-15  0.6167E-02
    -29.226  0.6166E-12  0.6167E-02
    -29.218  0.8667E-09  0.6167E-02
    -29.210  0.3484E-06  0.6167E-02
    -29.202  0.4056E-04  0.6167E-02
    -29.194  0.1392E-02  0.6178E-02
    -29.186  0.1442E-01  0.6294E-02
    -29.178  0.4619E-01  0.6664E-02
    -29.170  0.4651E-01  0.7037E-02
    -29.162  0.1472E-01  0.7155E-02
    -29.154  0.1441E-02  0.7166E-02
    -29.146  0.4259E-04  0.7167E-02
    -29.138  0.1718E-05  0.7167E-02
    -29.130  0.1346E-03  0.7168E-02
    -29.122  0.3974E-02  0.7200E-02
    -29.114  0.3553E-01  0.7484E-02
    -29.106  0.9846E-01  0.8274E-02
    -29.098  0.8587E-01  0.8962E-02
    -29.090  0.2351E-01  0.9150E-02
    -29.082  0.1986E-02  0.9166E-02
    -29.074  0.5046E-04  0.9167E-02
    -29.066  0.3773E-06  0.9167E-02
    -29.058  0.8155E-09  0.9167E-02
    -29.050  0.5035E-12  0.9167E-02
    -29.042  0.8310E-16  0.9167E-02
    -29.034  0.0000E+00  0.9167E-02
    -29.026  0.0000E+00  0.9167E-02
    -29.018  0.0000E+00  0.9167E-02
    -29.010  0.0000E+00  0.9167E-02
    -29.002  0.0000E+00  0.9167E-02
    -28.994  0.0000E+00  0.9167E-02
    -28.986  0.0000E+00  0.9167E-02
    -28.978  0.0000E+00  0.9167E-02
    -28.970  0.0000E+00  0.9167E-02
    -28.962  0.0000E+00  0.9167E-02
    -28.954  0.0000E+00  0.9167E-02
    -28.946  0.1604E-13  0.9167E-02
    -28.938  0.3959E-10  0.9167E-02
    -28.930  0.2782E-07  0.9167E-02
    -28.922  0.5626E-05  0.9167E-02
    -28.914  0.3326E-03  0.9169E-02
    -28.906  0.5869E-02  0.9216E-02
    -28.898  0.3169E-01  0.9470E-02
    -28.890  0.5347E-01  0.9899E-02
    -28.882  0.2843E-01  0.1013E-01
    -28.874  0.4717E-02  0.1016E-01
    -28.866  0.2389E-03  0.1017E-01
    -28.858  0.3604E-05  0.1017E-01
    -28.850  0.1586E-07  0.1017E-01
    -28.842  0.2007E-10  0.1017E-01
    -28.834  0.7225E-14  0.1017E-01
    -28.826  0.0000E+00  0.1017E-01
    -28.817  0.0000E+00  0.1017E-01
    -28.809  0.0000E+00  0.1017E-01
    -28.801  0.0000E+00  0.1017E-01
    -28.793  0.0000E+00  0.1017E-01
    -28.785  0.0000E+00  0.1017E-01
    -28.777  0.0000E+00  0.1017E-01
    -28.769  0.0000E+00  0.1017E-01
    -28.761  0.0000E+00  0.1017E-01
    -28.753  0.0000E+00  0.1017E-01
    -28.745  0.0000E+00  0.1017E-01
    -28.737  0.3555E-15  0.1017E-01
    -28.729  0.1671E-11  0.1017E-01
    -28.721  0.2237E-08  0.1017E-01
    -28.713  0.8569E-06  0.1017E-01
    -28.705  0.9512E-04  0.1017E-01
    -28.697  0.3116E-02  0.1019E-01
    -28.689  0.3083E-01  0.1044E-01
    -28.681  0.9441E-01  0.1120E-01
    -28.673  0.9090E-01  0.1192E-01
    -28.665  0.2751E-01  0.1215E-01
    -28.657  0.2572E-02  0.1217E-01
    -28.649  0.7254E-04  0.1217E-01
    -28.641  0.6028E-06  0.1217E-01
    -28.633  0.1450E-08  0.1217E-01
    -28.625  0.9973E-12  0.1217E-01
    -28.617  0.1939E-15  0.1217E-01
    -28.609  0.0000E+00  0.1217E-01
    -28.601  0.0000E+00  0.1217E-01
    -28.593  0.1465E-13  0.1217E-01
    -28.585  0.4062E-10  0.1217E-01
    -28.577  0.3204E-07  0.1217E-01
    -28.569  0.7264E-05  0.1217E-01
    -28.561  0.4806E-03  0.1217E-01
    -28.553  0.9471E-02  0.1225E-01
    -28.545  0.5697E-01  0.1270E-01
    -28.537  0.1070E+00  0.1356E-01
    -28.529  0.6326E-01  0.1407E-01
    -28.521  0.1170E-01  0.1416E-01
    -28.513  0.6615E-03  0.1417E-01
    -28.505  0.1117E-04  0.1417E-01
    -28.497  0.5511E-07  0.1417E-01
    -28.489  0.7826E-10  0.1417E-01
    -28.481  0.3165E-13  0.1417E-01
    -28.473  0.0000E+00  0.1417E-01
    -28.465  0.0000E+00  0.1417E-01
    -28.457  0.0000E+00  0.1417E-01
    -28.449  0.0000E+00  0.1417E-01
    -28.441  0.0000E+00  0.1417E-01
    -28.433  0.0000E+00  0.1417E-01
    -28.425  0.0000E+00  0.1417E-01
    -28.417  0.0000E+00  0.1417E-01
    -28.409  0.0000E+00  0.1417E-01
    -28.401  0.0000E+00  0.1417E-01
    -28.393  0.0000E+00  0.1417E-01
    -28.385  0.0000E+00  0.1417E-01
    -28.377  0.0000E+00  0.1417E-01
    -28.369  0.0000E+00  0.1417E-01
    -28.361  0.0000E+00  0.1417E-01
    -28.353  0.0000E+00  0.1417E-01
    -28.345  0.0000E+00  0.1417E-01
    -28.337  0.0000E+00  0.1417E-01
    -28.329  0.0000E+00  0.1417E-01
    -28.321  0.0000E+00  0.1417E-01
    -28.313  0.5686E-14  0.1417E-01
    -28.304  0.1636E-10  0.1417E-01
    -28.296  0.1339E-07  0.1417E-01
    -28.288  0.3150E-05  0.1417E-01
    -28.280  0.2160E-03  0.1417E-01
    -28.272  0.4411E-02  0.1420E-01
    -28.264  0.2747E-01  0.1442E-01
    -28.256  0.5337E-01  0.1485E-01
    -28.248  0.3266E-01  0.1511E-01
    -28.240  0.6251E-02  0.1516E-01
    -28.232  0.3663E-03  0.1517E-01
    -28.224  0.6411E-05  0.1517E-01
    -28.216  0.3281E-07  0.1517E-01
    -28.208  0.4835E-10  0.1517E-01
    -28.200  0.2030E-13  0.1517E-01
    -28.192  0.0000E+00  0.1517E-01
    -28.184  0.0000E+00  0.1517E-01
    -28.176  0.3001E-16  0.1517E-01
    -28.168  0.1860E-12  0.1517E-01
    -28.160  0.3158E-09  0.1517E-01
    -28.152  0.1531E-06  0.1517E-01
    -28.144  0.2146E-04  0.1517E-01
    -28.136  0.8839E-03  0.1517E-01
    -28.128  0.1094E-01  0.1526E-01
    -28.120  0.4176E-01  0.1560E-01
    -28.112  0.5001E-01  0.1600E-01
    -28.104  0.1885E-01  0.1615E-01
    -28.096  0.2205E-02  0.1617E-01
    -28.088  0.7813E-04  0.1617E-01
    -28.080  0.2562E-05  0.1617E-01
    -28.072  0.1638E-03  0.1617E-01
    -28.064  0.4556E-02  0.1620E-01
    -28.056  0.3841E-01  0.1651E-01
    -28.048  0.1005E+00  0.1732E-01
    -28.040  0.8276E-01  0.1798E-01
    -28.032  0.2139E-01  0.1815E-01
    -28.024  0.1703E-02  0.1817E-01
    -28.016  0.4075E-04  0.1817E-01
    -28.008  0.2866E-06  0.1817E-01
    -28.000  0.5822E-09  0.1817E-01
    -27.992  0.3377E-12  0.1817E-01
    -27.984  0.5540E-16  0.1817E-01
    -27.976  0.0000E+00  0.1817E-01
    -27.968  0.0000E+00  0.1817E-01
    -27.960  0.0000E+00  0.1817E-01
    -27.952  0.0000E+00  0.1817E-01
    -27.944  0.0000E+00  0.1817E-01
    -27.936  0.0000E+00  0.1817E-01
    -27.928  0.0000E+00  0.1817E-01
    -27.920  0.0000E+00  0.1817E-01
    -27.912  0.0000E+00  0.1817E-01
    -27.904  0.0000E+00  0.1817E-01
    -27.896  0.1814E-14  0.1817E-01
    -27.888  0.6807E-11  0.1817E-01
    -27.880  0.7252E-08  0.1817E-01
    -27.872  0.2215E-05  0.1817E-01
    -27.864  0.1965E-03  0.1817E-01
    -27.856  0.5168E-02  0.1821E-01
    -27.848  0.4123E-01  0.1854E-01
    -27.840  0.1022E+00  0.1936E-01
    -27.832  0.7973E-01  0.2000E-01
    -27.824  0.1951E-01  0.2015E-01
    -27.816  0.1470E-02  0.2017E-01
    -27.808  0.3322E-04  0.2017E-01
    -27.800  0.2205E-06  0.2017E-01
    -27.791  0.4227E-09  0.2017E-01
    -27.783  0.2312E-12  0.2017E-01
    -27.775  0.5540E-16  0.2017E-01
    -27.767  0.0000E+00  0.2017E-01
    -27.759  0.0000E+00  0.2017E-01
    -27.751  0.0000E+00  0.2017E-01
    -27.743  0.0000E+00  0.2017E-01
    -27.735  0.0000E+00  0.2017E-01
    -27.727  0.0000E+00  0.2017E-01
    -27.719  0.0000E+00  0.2017E-01
    -27.711  0.0000E+00  0.2017E-01
    -27.703  0.0000E+00  0.2017E-01
    -27.695  0.0000E+00  0.2017E-01
    -27.687  0.0000E+00  0.2017E-01
    -27.679  0.0000E+00  0.2017E-01
    -27.671  0.0000E+00  0.2017E-01
    -27.663  0.0000E+00  0.2017E-01
    -27.655  0.0000E+00  0.2017E-01
    -27.647  0.0000E+00  0.2017E-01
    -27.639  0.0000E+00  0.2017E-01
    -27.631  0.0000E+00  0.2017E-01
    -27.623  0.0000E+00  0.2017E-01
    -27.615  0.0000E+00  0.2017E-01
    -27.607  0.0000E+00  0.2017E-01
    -27.599  0.0000E+00  0.2017E-01
    -27.591  0.0000E+00  0.2017E-01
    -27.583  0.0000E+00  0.2017E-01
    -27.575  0.0000E+00  0.2017E-01
    -27.567  0.0000E+00  0.2017E-01
    -27.559  0.0000E+00  0.2017E-01
    -27.551  0.9419E-15  0.2017E-01
    -27.543  0.3512E-11  0.2017E-01
    -27.535  0.3722E-08  0.2017E-01
    -27.527  0.1131E-05  0.2017E-01
    -27.519  0.9986E-04  0.2017E-01
    -27.511  0.2612E-02  0.2019E-01
    -27.503  0.2074E-01  0.2035E-01
    -27.495  0.5116E-01  0.2076E-01
    -27.487  0.3973E-01  0.2108E-01
    -27.479  0.9676E-02  0.2116E-01
    -27.471  0.7251E-03  0.2117E-01
    -27.463  0.1632E-04  0.2117E-01
    -27.455  0.2460E-05  0.2117E-01
    -27.447  0.2058E-03  0.2117E-01
    -27.439  0.5334E-02  0.2121E-01
    -27.431  0.4196E-01  0.2155E-01
    -27.423  0.1026E+00  0.2237E-01
    -27.415  0.7895E-01  0.2300E-01
    -27.407  0.1906E-01  0.2316E-01
    -27.399  0.1415E-02  0.2317E-01
    -27.391  0.3153E-04  0.2317E-01
    -27.383  0.2063E-06  0.2317E-01
    -27.375  0.3895E-09  0.2317E-01
    -27.367  0.2099E-12  0.2317E-01
    -27.359  0.2770E-16  0.2317E-01
    -27.351  0.0000E+00  0.2317E-01
    -27.343  0.3384E-14  0.2317E-01
    -27.335  0.1161E-10  0.2317E-01
    -27.327  0.1132E-07  0.2317E-01
    -27.319  0.3167E-05  0.2317E-01
    -27.311  0.2577E-03  0.2317E-01
    -27.303  0.6222E-02  0.2322E-01
    -27.295  0.4567E-01  0.2358E-01
    -27.287  0.1043E+00  0.2442E-01
    -27.278  0.7499E-01  0.2502E-01
    -27.270  0.1690E-01  0.2516E-01
    -27.262  0.1170E-02  0.2517E-01
    -27.254  0.2427E-04  0.2517E-01
    -27.246  0.1476E-06  0.2517E-01
    -27.238  0.2590E-09  0.2517E-01
    -27.230  0.1296E-12  0.2517E-01
    -27.222  0.0000E+00  0.2517E-01
    -27.214  0.0000E+00  0.2517E-01
    -27.206  0.0000E+00  0.2517E-01
    -27.198  0.0000E+00  0.2517E-01
    -27.190  0.0000E+00  0.2517E-01
    -27.182  0.0000E+00  0.2517E-01
    -27.174  0.0000E+00  0.2517E-01
    -27.166  0.0000E+00  0.2517E-01
    -27.158  0.0000E+00  0.2517E-01
    -27.150  0.0000E+00  0.2517E-01
    -27.142  0.0000E+00  0.2517E-01
    -27.134  0.0000E+00  0.2517E-01
    -27.126  0.0000E+00  0.2517E-01
    -27.118  0.0000E+00  0.2517E-01
    -27.110  0.0000E+00  0.2517E-01
    -27.102  0.0000E+00  0.2517E-01
    -27.094  0.0000E+00  0.2517E-01
    -27.086  0.0000E+00  0.2517E-01
    -27.078  0.0000E+00  0.2517E-01
    -27.070  0.5523E-13  0.2517E-01
    -27.062  0.1256E-09  0.2517E-01
    -27.054  0.8142E-07  0.2517E-01
    -27.046  0.1520E-04  0.2517E-01
    -27.038  0.8305E-03  0.2517E-01
    -27.030  0.1356E-01  0.2528E-01
    -27.022  0.6789E-01  0.2583E-01
    -27.014  0.1063E+00  0.2668E-01
    -27.006  0.5245E-01  0.2710E-01
    -26.998  0.8066E-02  0.2716E-01
    -26.990  0.3780E-03  0.2717E-01
    -26.982  0.5269E-05  0.2717E-01
    -26.974  0.2140E-07  0.2717E-01
    -26.966  0.2498E-10  0.2717E-01
    -26.958  0.8292E-14  0.2717E-01
    -26.950  0.0000E+00  0.2717E-01
    -26.942  0.0000E+00  0.2717E-01
    -26.934  0.0000E+00  0.2717E-01
    -26.926  0.0000E+00  0.2717E-01
    -26.918  0.0000E+00  0.2717E-01
    -26.910  0.0000E+00  0.2717E-01
    -26.902  0.0000E+00  0.2717E-01
    -26.894  0.0000E+00  0.2717E-01
    -26.886  0.0000E+00  0.2717E-01
    -26.878  0.0000E+00  0.2717E-01
    -26.870  0.0000E+00  0.2717E-01
    -26.862  0.0000E+00  0.2717E-01
    -26.854  0.0000E+00  0.2717E-01
    -26.846  0.0000E+00  0.2717E-01
    -26.838  0.0000E+00  0.2717E-01
    -26.830  0.0000E+00  0.2717E-01
    -26.822  0.0000E+00  0.2717E-01
    -26.814  0.0000E+00  0.2717E-01
    -26.806  0.0000E+00  0.2717E-01
    -26.798  0.0000E+00  0.2717E-01
    -26.790  0.0000E+00  0.2717E-01
    -26.782  0.0000E+00  0.2717E-01
    -26.774  0.0000E+00  0.2717E-01
    -26.765  0.0000E+00  0.2717E-01
    -26.757  0.0000E+00  0.2717E-01
    -26.749  0.0000E+00  0.2717E-01
    -26.741  0.0000E+00  0.2717E-01
    -26.733  0.0000E+00  0.2717E-01
    -26.725  0.1433E-13  0.2717E-01
    -26.717  0.3597E-10  0.2717E-01
    -26.709  0.2570E-07  0.2717E-01
    -26.701  0.5284E-05  0.2717E-01
    -26.693  0.3175E-03  0.2717E-01
    -26.685  0.5693E-02  0.2721E-01
    -26.677  0.3122E-01  0.2747E-01
    -26.669  0.5350E-01  0.2789E-01
    -26.661  0.2889E-01  0.2813E-01
    -26.653  0.4869E-02  0.2816E-01
    -26.645  0.2600E-03  0.2817E-01
    -26.637  0.4957E-03  0.2817E-01
    -26.629  0.7883E-02  0.2823E-01
    -26.621  0.4351E-01  0.2858E-01
    -26.613  0.1047E+00  0.2942E-01
    -26.605  0.1309E+00  0.3047E-01
    -26.597  0.7197E-01  0.3105E-01
    -26.589  0.1394E-01  0.3116E-01
    -26.581  0.8529E-03  0.3117E-01
    -26.573  0.1572E-04  0.3117E-01
    -26.565  0.8489E-07  0.3117E-01
    -26.557  0.1321E-09  0.3117E-01
    -26.549  0.5862E-13  0.3117E-01
    -26.541  0.0000E+00  0.3117E-01
    -26.533  0.0000E+00  0.3117E-01
    -26.525  0.0000E+00  0.3117E-01
    -26.517  0.0000E+00  0.3117E-01
    -26.509  0.0000E+00  0.3117E-01
    -26.501  0.0000E+00  0.3117E-01
    -26.493  0.0000E+00  0.3117E-01
    -26.485  0.0000E+00  0.3117E-01
    -26.477  0.0000E+00  0.3117E-01
    -26.469  0.6094E-15  0.3117E-01
    -26.461  0.2655E-11  0.3117E-01
    -26.453  0.3299E-08  0.3117E-01
    -26.445  0.1174E-05  0.3117E-01
    -26.437  0.1211E-03  0.3117E-01
    -26.429  0.3692E-02  0.3120E-01
    -26.421  0.3405E-01  0.3147E-01
    -26.413  0.9729E-01  0.3225E-01
    -26.405  0.8746E-01  0.3295E-01
    -26.397  0.2470E-01  0.3315E-01
    -26.389  0.2152E-02  0.3317E-01
    -26.381  0.5646E-04  0.3317E-01
    -26.373  0.4360E-06  0.3317E-01
    -26.365  0.9740E-09  0.3317E-01
    -26.357  0.6216E-12  0.3317E-01
    -26.349  0.1108E-15  0.3317E-01
    -26.341  0.0000E+00  0.3317E-01
    -26.333  0.0000E+00  0.3317E-01
    -26.325  0.0000E+00  0.3317E-01
    -26.317  0.0000E+00  0.3317E-01
    -26.309  0.0000E+00  0.3317E-01
    -26.301  0.0000E+00  0.3317E-01
    -26.293  0.0000E+00  0.3317E-01
    -26.285  0.0000E+00  0.3317E-01
    -26.277  0.0000E+00  0.3317E-01
    -26.269  0.0000E+00  0.3317E-01
    -26.261  0.0000E+00  0.3317E-01
    -26.252  0.0000E+00  0.3317E-01
    -26.244  0.0000E+00  0.3317E-01
    -26.236  0.0000E+00  0.3317E-01
    -26.228  0.0000E+00  0.3317E-01
    -26.220  0.0000E+00  0.3317E-01
    -26.212  0.0000E+00  0.3317E-01
    -26.204  0.0000E+00  0.3317E-01
    -26.196  0.0000E+00  0.3317E-01
    -26.188  0.0000E+00  0.3317E-01
    -26.180  0.0000E+00  0.3317E-01
    -26.172  0.0000E+00  0.3317E-01
    -26.164  0.0000E+00  0.3317E-01
    -26.156  0.0000E+00  0.3317E-01
    -26.148  0.1870E-14  0.3317E-01
    -26.140  0.6973E-11  0.3317E-01
    -26.132  0.7399E-08  0.3317E-01
    -26.124  0.2251E-05  0.3317E-01
    -26.116  0.1990E-03  0.3317E-01
    -26.108  0.5212E-02  0.3321E-01
    -26.100  0.4142E-01  0.3354E-01
    -26.092  0.1023E+00  0.3436E-01
    -26.084  0.7952E-01  0.3500E-01
    -26.076  0.1939E-01  0.3515E-01
    -26.068  0.1455E-02  0.3517E-01
    -26.060  0.3276E-04  0.3517E-01
    -26.052  0.2166E-06  0.3517E-01
    -26.044  0.4136E-09  0.3517E-01
    -26.036  0.2253E-12  0.3517E-01
    -26.028  0.5540E-16  0.3517E-01
    -26.020  0.0000E+00  0.3517E-01
    -26.012  0.0000E+00  0.3517E-01
    -26.004  0.0000E+00  0.3517E-01
    -25.996  0.0000E+00  0.3517E-01
    -25.988  0.0000E+00  0.3517E-01
    -25.980  0.0000E+00  0.3517E-01
    -25.972  0.0000E+00  0.3517E-01
    -25.964  0.0000E+00  0.3517E-01
    -25.956  0.0000E+00  0.3517E-01
    -25.948  0.0000E+00  0.3517E-01
    -25.940  0.0000E+00  0.3517E-01
    -25.932  0.0000E+00  0.3517E-01
    -25.924  0.0000E+00  0.3517E-01
    -25.916  0.0000E+00  0.3517E-01
    -25.908  0.0000E+00  0.3517E-01
    -25.900  0.0000E+00  0.3517E-01
    -25.892  0.0000E+00  0.3517E-01
    -25.884  0.0000E+00  0.3517E-01
    -25.876  0.0000E+00  0.3517E-01
    -25.868  0.2770E-16  0.3517E-01
    -25.860  0.1454E-12  0.3517E-01
    -25.852  0.2855E-09  0.3517E-01
    -25.844  0.1599E-06  0.3517E-01
    -25.836  0.2584E-04  0.3517E-01
    -25.828  0.1224E-02  0.3518E-01
    -25.820  0.1739E-01  0.3532E-01
    -25.812  0.7594E-01  0.3592E-01
    -25.804  0.1039E+00  0.3676E-01
    -25.796  0.4478E-01  0.3712E-01
    -25.788  0.6001E-02  0.3716E-01
    -25.780  0.2444E-03  0.3717E-01
    -25.772  0.2952E-05  0.3717E-01
    -25.764  0.1037E-07  0.3717E-01
    -25.756  0.1045E-10  0.3717E-01
    -25.748  0.3019E-14  0.3717E-01
    -25.739  0.1994E-12  0.3717E-01
    -25.731  0.3730E-09  0.3717E-01
    -25.723  0.1991E-06  0.3717E-01
    -25.715  0.3067E-04  0.3717E-01
    -25.707  0.1387E-02  0.3718E-01
    -25.699  0.1882E-01  0.3733E-01
    -25.691  0.7853E-01  0.3796E-01
    -25.683  0.1028E+00  0.3878E-01
    -25.675  0.4328E-01  0.3913E-01
    -25.667  0.1669E-01  0.3926E-01
    -25.659  0.4245E-01  0.3960E-01
    -25.651  0.4970E-01  0.4000E-01
    -25.643  0.1840E-01  0.4015E-01
    -25.635  0.2114E-02  0.4017E-01
    -25.627  0.7354E-04  0.4017E-01
    -25.619  0.7566E-06  0.4017E-01
    -25.611  0.2260E-08  0.4017E-01