    2    2   30    1
  0.3647508E+02  0.2294499E-09  0.2294499E-09  0.1600000E-08  0.5000000E-15
  1.000000000000000E-004
  CAR 
 unknown system                          
     10    121     12
 
  0.0000000E+00  0.0000000E+00  0.0000000E+00  0.8333333E-03
      1        -30.038048   1.000000
      2        -14.505188   1.000000
      3         -8.399078   1.000000
      4         -8.399077   1.000000
      5         -5.634631   1.000000
      6         -0.043270   0.000000
      7         -0.043269   0.000000
      8          0.311988   0.000000
      9          2.081590   0.000000
     10          2.249781   0.000000
     11          3.349420   0.000000
     12          4.327799   0.000000
 
  0.5000000E-01 -0.3469447E-17  0.0000000E+00  0.5000000E-02
      1        -29.966022   1.000000
      2        -14.438780   1.000000
      3         -8.801652   1.000000
      4         -8.525830   1.000000
      5         -5.599305   1.000000
      6         -0.086684   0.000000
      7          0.096261   0.000000
      8          0.578928   0.000000
      9          2.174882   0.000000
     10          2.340753   0.000000
     11          3.438663   0.000000
     12          4.420611   0.000000
 
  0.1000000E+00 -0.6938894E-17  0.0000000E+00  0.5000000E-02
      1        -29.750315   1.000000
      2        -14.241891   1.000000
      3         -9.851590   1.000000
      4         -8.869841   1.000000
      5         -5.501017   1.000000
      6         -0.277457   0.000000
      7          0.472431   0.000000
      8          1.287448   0.000000
      9          2.453979   0.000000
     10          2.613999   0.000000
     11          3.706590   0.000000
     12          4.698659   0.000000
 
  0.1500000E+00 -0.2775558E-16  0.0000000E+00  0.5000000E-02
      1        -29.392196   1.000000
      2        -13.925902   1.000000
      3        -11.267901   1.000000
      4         -9.349542   1.000000
      5         -5.365379   1.000000
      6         -0.565342   0.000000
      7          0.987342   0.000000
      8          2.112545   0.000000
      9          2.914811   0.000000
     10          3.076556   0.000000
     11          4.155825   0.000000
     12          5.160936   0.000000
 
  0.2000000E+00 -0.1387779E-16  0.0000000E+00  0.5000000E-02
      1        -28.894011   1.000000
      2        -13.601344   1.000000
      3        -12.751058   1.000000
      4         -9.882465   1.000000
      5         -5.241614   1.000000
      6         -0.876880   0.000000
      7          1.538168   0.000000
      8          2.771467   0.000000
      9          3.554638   0.000000
     10          3.738256   0.000000
     11          4.791676   0.000000
     12          5.806880   0.000000
 
  0.2500000E+00  0.0000000E+00  0.0000000E+00  0.5000000E-02
      1        -28.259806   1.000000
      2        -14.686934   1.000000
      3        -12.777006   1.000000
      4        -10.405418   1.000000
      5         -5.206233   1.000000
      6         -1.133807   0.000000
      7          2.046181   0.000000
      8          3.117459   0.000000
      9          4.381046   0.000000
     10          4.569878   0.000000
     11          5.609490   0.000000
     12          6.637774   0.000000
 
  0.3000000E+00 -0.5551115E-16  0.0000000E+00  0.5000000E-02
      1        -27.496668   1.000000
      2        -16.334397   1.000000
      3        -12.137538   1.000000
      4        -10.875242   1.000000
      5         -5.345866   1.000000
      6         -1.267988   0.000000
      7          2.465015   0.000000
      8          3.150589   0.000000
      9          5.383710   0.000000
     10          5.553313   0.000000
     11          6.595408   0.000000
     12          7.654365   0.000000
 
  0.3500000E+00 -0.5551115E-16  0.0000000E+00  0.5000000E-02
      1        -26.618477   1.000000
      2        -17.950787   1.000000
      3        -11.397314   1.000000
      4        -11.263465   1.000000
      5         -5.704002   1.000000
      6         -1.264598   0.000000
      7          2.777523   0.000000
      8          2.978888   0.000000
      9          6.529074   0.000000
     10          6.705729   0.000000
     11          7.747037   0.000000
     12          8.853058   0.000000
 
  0.4000000E+00 -0.2775558E-16  0.0000000E+00  0.5000000E-02
      1        -25.658207   1.000000
      2        -19.456968   1.000000
      3        -11.551756   1.000000
      4        -10.625229   1.000000
      5         -6.237038   1.000000
      6         -1.179707   0.000000
      7          2.753301   0.000000
      8          2.986794   0.000000
      9          7.755787   0.000000
     10          8.054656   0.000000
     11          9.070805   0.000000
     12         10.222821   0.000000
 
  0.4500000E+00 -0.5551115E-16  0.0000000E+00  0.5000000E-02
      1        -24.722071   1.000000
      2        -20.727181   1.000000
      3        -11.728832   1.000000
      4         -9.936809   1.000000
      5         -6.801459   1.000000
      6         -1.093102   0.000000
      7          2.586013   0.000000
      8          3.104769   0.000000
      9          8.992805   0.000000
     10          9.588538   0.000000
     11         10.555063   0.000000
     12         11.649133   0.000000
 
  0.5000000E+00  0.0000000E+00  0.0000000E+00  0.2500000E-02
      1        -24.228380   1.000000
      2        -21.333265   1.000000
      3        -11.788505   1.000000
      4         -9.616895   1.000000
      5         -7.083716   1.000000
      6         -1.058627   0.000000
      7          2.526719   0.000000
      8          3.142632   0.000000
      9          9.795816   0.000000
     10         11.126545   0.000000
     11         11.279969   0.000000
     12         11.394799   0.000000
 
  0.5000000E-01  0.5000000E-01  0.0000000E+00  0.5000000E-02
      1        -29.822144   1.000000
      2        -14.307076   1.000000
      3         -9.503409   1.000000
      4         -8.784997   1.000000
      5         -5.532387   1.000000
      6         -0.064703   0.000000
      7          0.167743   0.000000
      8          1.114204   0.000000
      9          2.361153   0.000000
     10          2.522289   0.000000
     11          3.617025   0.000000
     12          4.606050   0.000000
 
  0.1000000E+00  0.5000000E-01  0.0000000E+00  0.1000000E-01
      1        -29.535220   1.000000
      2        -14.049663   1.000000
      3        -10.685437   1.000000
      4         -9.248754   1.000000
      5         -5.414830   1.000000
      6         -0.223133   0.000000
      7          0.520198   0.000000
      8          1.900109   0.000000
      9          2.731571   0.000000
     10          2.885903   0.000000
     11          3.974111   0.000000
     12          4.976256   0.000000
 
  0.1500000E+00  0.5000000E-01  0.0000000E+00  0.1000000E-01
      1        -29.107001   1.000000
      2        -13.698527   1.000000
      3        -12.117985   1.000000
      4         -9.806824   1.000000
      5         -5.283253   1.000000
      6         -0.501941   0.000000
      7          1.071216   0.000000
      8          2.621079   0.000000
      9          3.280955   0.000000
     10          3.441996   0.000000
     11          4.513870   0.000000
     12          5.530462   0.000000
 
  0.2000000E+00  0.5000000E-01  0.0000000E+00  0.1000000E-01
      1        -28.540589   1.000000
      2        -13.965829   1.000000
      3        -12.950731   1.000000
      4        -10.376203   1.000000
      5         -5.199416   1.000000
      6         -0.774450   0.000000
      7          1.644561   0.000000
      8          3.079440   0.000000
      9          4.015091   0.000000
     10          4.188092   0.000000
     11          5.239714   0.000000
     12          6.269098   0.000000
 
  0.2500000E+00  0.5000000E-01  0.0000000E+00  0.1000000E-01
      1        -27.841307   1.000000
      2        -15.525015   1.000000
      3        -12.428630   1.000000
      4        -10.901897   1.000000
      5         -5.246142   1.000000
      6         -0.960028   0.000000
      7          2.151846   0.000000
      8          3.216648   0.000000
      9          4.933529   0.000000
     10          5.096238   0.000000
     11          6.143052   0.000000
     12          7.193265   0.000000
 
  0.3000000E+00  0.5000000E-01  0.0000000E+00  0.1000000E-01
      1        -27.018876   1.000000
      2        -17.149276   1.000000
      3        -11.744134   1.000000
      4        -11.338244   1.000000
      5         -5.493700   1.000000
      6         -1.010134   0.000000
      7          2.536124   0.000000
      8          3.112463   0.000000
      9          6.014746   0.000000
     10          6.164479   0.000000
     11          7.214305   0.000000
     12          8.301402   0.000000
 
  0.3500000E+00  0.5000000E-01  0.0000000E+00  0.1000000E-01
      1        -26.093927   1.000000
      2        -18.707437   1.000000
      3        -11.721874   1.000000
      4        -10.948320   1.000000
      5         -5.946645   1.000000
      6         -0.942423   0.000000
      7          2.640158   0.000000
      8          3.053231   0.000000
      9          7.208364   0.000000
     10          7.417196   0.000000
     11          8.454459   0.000000
     12          9.587140   0.000000
 
  0.4000000E+00  0.5000000E-01  0.0000000E+00  0.1000000E-01
      1        -25.122729   1.000000
      2        -20.113246   1.000000
      3        -11.958166   1.000000
      4        -10.200447   1.000000
      5         -6.519123   1.000000
      6         -0.829869   0.000000
      7          2.453763   0.000000
      8          3.192168   0.000000
      9          8.453006   0.000000
     10          8.864221   0.000000
     11          9.866748   0.000000
     12         11.025703   0.000000
 
  0.4500000E+00  0.5000000E-01  0.0000000E+00  0.1000000E-01
      1        -24.318063   1.000000
      2        -21.138646   1.000000
      3        -12.079808   1.000000
      4         -9.643759   1.000000
      5         -6.996853   1.000000
      6         -0.750530   0.000000
      7          2.314789   0.000000
      8          3.286745   0.000000
      9          9.607135   0.000000
     10         10.472339   0.000000
     11         11.293456   0.000000
     12         11.810012   0.000000
 
  0.1000000E+00  0.1000000E+00  0.0000000E+00  0.5000000E-02
      1        -29.178144   1.000000
      2        -13.749483   1.000000
      3        -11.808964   1.000000
      4         -9.875465   1.000000
      5         -5.299907   1.000000
      6         -0.005579   0.000000
      7          0.539080   0.000000
      8          2.602461   0.000000
      9          3.190431   0.000000
     10          3.334438   0.000000
     11          4.418913   0.000000
     12          5.438474   0.000000
 
  0.1500000E+00  0.1000000E+00  0.0000000E+00  0.1000000E-01
      1        -28.681484   1.000000
      2        -13.611854   1.000000
      3        -12.869991   1.000000
      4        -10.577068   1.000000
      5         -5.203396   1.000000
      6         -0.087979   0.000000
      7          0.989321   0.000000
      8          3.114722   0.000000
      9          3.833045   0.000000
     10          3.969076   0.000000
     11          5.045334   0.000000
     12          6.085577   0.000000
 
  0.2000000E+00  0.1000000E+00  0.0000000E+00  0.1000000E-01
      1        -28.049338   1.000000
      2        -14.842216   1.000000
      3        -12.588157   1.000000
      4        -11.236152   1.000000
      5         -5.193156   1.000000
      6         -0.250196   0.000000
      7          1.578701   0.000000
      8          3.321239   0.000000
      9          4.664680   0.000000
     10          4.789151   0.000000
     11          5.856736   0.000000
     12          6.918041   0.000000
 
  0.2500000E+00  0.1000000E+00  0.0000000E+00  0.1000000E-01
      1        -27.288796   1.000000
      2        -16.382468   1.000000
      3        -12.001385   1.000000
      4        -11.752606   1.000000
      5         -5.342528   1.000000
      6         -0.327055   0.000000
      7          2.090863   0.000000
      8          3.263704   0.000000
      9          5.670598   0.000000
     10          5.779791   0.000000
     11          6.847371   0.000000
     12          7.934662   0.000000
 
  0.3000000E+00  0.1000000E+00  0.0000000E+00  0.1000000E-01
      1        -26.413549   1.000000
      2        -17.926309   1.000000
      3        -12.284928   1.000000
      4        -11.188757   1.000000
      5         -5.691786   1.000000
      6         -0.278969   0.000000
      7          2.356117   0.000000
      8          3.160839   0.000000
      9          6.815051   0.000000
     10          6.946983   0.000000
     11          8.010369   0.000000
     12          9.131347   0.000000
 
  0.3500000E+00  0.1000000E+00  0.0000000E+00  0.1000000E-01
      1        -25.455687   1.000000
      2        -19.387792   1.000000
      3        -12.612162   1.000000
      4        -10.421715   1.000000
      5         -6.210629   1.000000
      6         -0.134928   0.000000
      7          2.213904   0.000000
      8          3.291199   0.000000
      9          8.039588   0.000000
     10          8.307520   0.000000
     11          9.344770   0.000000
     12         10.496695   0.000000
 
  0.4000000E+00  0.1000000E+00  0.0000000E+00  0.1000000E-01
      1        -24.518389   1.000000
      2        -20.636539   1.000000
      3        -12.812368   1.000000
      4         -9.727190   1.000000
      5         -6.771116   1.000000
      6          0.027007   0.000000
      7          1.957240   0.000000
      8          3.473052   0.000000
      9          9.278880   0.000000
     10          9.841357   0.000000
     11         10.839009   0.000000
     12         11.898600   0.000000
 
  0.4500000E+00  0.1000000E+00  0.0000000E+00  0.5000000E-02
      1        -24.019331   1.000000
      2        -21.240862   1.000000
      3        -12.879555   1.000000
      4         -9.398001   1.000000
      5         -7.058925   1.000000
      6          0.101514   0.000000
      7          1.842691   0.000000
      8          3.545576   0.000000
      9         10.097115   0.000000
     10         11.303694   0.000000
     11         11.558241   0.000000
     12         11.662390   0.000000
 
  0.1500000E+00  0.1500000E+00  0.0000000E+00  0.5000000E-02
      1        -28.118883   1.000000
      2        -14.547270   1.000000
      3        -12.627211   1.000000
      4        -11.450716   1.000000
      5         -5.177356   1.000000
      6          0.369674   0.000000
      7          1.031994   0.000000
      8          3.379770   0.000000
      9          4.575529   0.000000
     10          4.672300   0.000000
     11          5.756438   0.000000
     12          6.826669   0.000000
 
  0.2000000E+00  0.1500000E+00  0.0000000E+00  0.1000000E-01
      1        -27.424590   1.000000
      2        -15.844253   1.000000
      3        -12.264485   1.000000
      4        -12.035263   1.000000
      5         -5.266104   1.000000
      6          0.494513   0.000000
      7          1.466424   0.000000
      8          3.394093   0.000000
      9          5.500158   0.000000
     10          5.560960   0.000000
     11          6.653357   0.000000
     12          7.752153   0.000000
 
  0.2500000E+00  0.1500000E+00  0.0000000E+00  0.1000000E-01
      1        -26.608238   1.000000
      2        -17.246393   1.000000
      3        -12.911288   1.000000
      4        -11.347075   1.000000
      5         -5.520014   1.000000
      6          0.535946   0.000000
      7          1.913019   0.000000
      8          3.292057   0.000000
      9          6.577936   0.000000
     10          6.639699   0.000000
     11          7.733804   0.000000
     12          8.858427   0.000000
 
  0.3000000E+00  0.1500000E+00  0.0000000E+00  0.1000000E-01
      1        -25.689530   1.000000
      2        -18.660793   1.000000
      3        -13.396782   1.000000
      4        -10.588951   1.000000
      5         -5.949234   1.000000
      6          0.649188   0.000000
      7          2.015287   0.000000
      8          3.339836   0.000000
      9          7.759082   0.000000
     10          7.919333   0.000000
     11          8.991647   0.000000
     12         10.138357   0.000000
 
  0.3500000E+00  0.1500000E+00  0.0000000E+00  0.1000000E-01
      1        -24.720955   1.000000
      2        -19.984921   1.000000
      3        -13.716959   1.000000
      4         -9.835635   1.000000
      5         -6.495982   1.000000
      6          0.845711   0.000000
      7          1.777320   0.000000
      8          3.568624   0.000000
      9          9.006464   0.000000
     10          9.373002   0.000000
     11         10.421755   0.000000
     12         11.560951   0.000000
 
  0.4000000E+00  0.1500000E+00  0.0000000E+00  0.1000000E-01
      1        -23.905676   1.000000
      2        -20.985052   1.000000
      3        -13.875900   1.000000
      4         -9.262613   1.000000
      5         -6.972289   1.000000
      6          1.108534   0.000000
      7          1.445707   0.000000
      8          3.744030   0.000000
      9         10.182809   0.000000
     10         10.953123   0.000000
     11         11.852734   0.000000
     12         12.218263   0.000000
 
  0.2000000E+00  0.2000000E+00  0.0000000E+00  0.5000000E-02
      1        -26.673579   1.000000
      2        -16.946401   1.000000
      3        -13.206294   1.000000
      4        -11.401848   1.000000
      5         -5.459798   1.000000
      6          1.245065   0.000000
      7          1.348913   0.000000
      8          3.364745   0.000000
      9          6.507442   0.000000
     10          6.517693   0.000000
     11          7.637486   0.000000
     12          8.767752   0.000000
 
  0.2500000E+00  0.2000000E+00  0.0000000E+00  0.1000000E-01
      1        -25.809454   1.000000
      2        -18.142556   1.000000
      3        -13.973210   1.000000
      4        -10.678780   1.000000
      5         -5.799392   1.000000
      6          1.168939   0.000000
      7          1.886183   0.000000
      8          3.382443   0.000000
      9          7.612641   0.000000
     10          7.712493   0.000000
     11          8.809087   0.000000
     12          9.958931   0.000000
 
  0.3000000E+00  0.2000000E+00  0.0000000E+00  0.1000000E-01
      1        -24.861068   1.000000
      2        -19.376530   1.000000
      3        -14.511118   1.000000
      4         -9.920697   1.000000
      5         -6.274824   1.000000
      6          1.000868   0.000000
      7          2.230988   0.000000
      8          3.572139   0.000000
      9          8.833045   0.000000
     10          9.078498   0.000000
     11         10.162377   0.000000
     12         11.310025   0.000000
 
  0.3500000E+00  0.2000000E+00  0.0000000E+00  0.1000000E-01
      1        -23.918661   1.000000
      2        -20.513097   1.000000
      3        -14.824729   1.000000
      4         -9.222119   1.000000
      5         -6.804362   1.000000
      6          0.868745   0.000000
      7          2.349867   0.000000
      8          3.833401   0.000000
      9         10.087878   0.000000
     10         10.589412   0.000000
     11         11.682666   0.000000
     12         12.596051   0.000000
 
  0.4000000E+00  0.2000000E+00  0.0000000E+00  0.5000000E-02
      1        -23.393880   1.000000
      2        -21.106570   1.000000
      3        -14.927440   1.000000
      4         -8.872556   1.000000
      5         -7.098234   1.000000
      6          0.818796   0.000000
      7          2.374590   0.000000
      8          3.949580   0.000000
      9         10.967456   0.000000
     10         11.762913   0.000000
     11         12.380436   0.000000
     12         12.413726   0.000000
 
  0.2500000E+00  0.2500000E+00  0.0000000E+00  0.5000000E-02
      1        -24.910368   1.000000
      2        -19.104613   1.000000
      3        -14.850332   1.000000
      4         -9.952160   1.000000
      5         -6.190201   1.000000
      6          0.951118   0.000000
      7          2.554694   0.000000
      8          3.543608   0.000000
      9          8.771799   0.000000
     10          8.976523   0.000000
     11         10.073734   0.000000
     12         11.224410   0.000000
 
  0.3000000E+00  0.2500000E+00  0.0000000E+00  0.1000000E-01
      1        -23.952432   1.000000
      2        -20.119409   1.000000
      3        -15.448623   1.000000
      4         -9.220431   1.000000
      5         -6.676119   1.000000
      6          0.626485   0.000000
      7          3.111147   0.000000
      8          3.786873   0.000000
      9         10.017916   0.000000
     10         10.396212   0.000000
     11         11.520753   0.000000
     12         12.596254   0.000000
 
  0.3500000E+00  0.2500000E+00  0.0000000E+00  0.1000000E-01
      1        -23.098356   1.000000
      2        -21.012676   1.000000
      3        -15.744683   1.000000
      4         -8.622501   1.000000
      5         -7.144486   1.000000
      6          0.434010   0.000000
      7          3.327590   0.000000
      8          4.033969   0.000000
      9         11.211586   0.000000
     10         11.836232   0.000000
     11         12.707519   0.000000
     12         13.099654   0.000000
 
  0.3000000E+00  0.3000000E+00  0.0000000E+00  0.5000000E-02
      1        -23.014685   1.000000
      2        -20.921074   1.000000
      3        -16.067257   1.000000
      4         -8.539875   1.000000
      5         -7.149181   1.000000
      6          0.291335   0.000000
      7          3.807468   0.000000
      8          3.950330   0.000000
      9         11.220538   0.000000
     10         11.794037   0.000000
     11         12.987302   0.000000
     12         13.053149   0.000000
 
  0.3500000E+00  0.3000000E+00  0.0000000E+00  0.5000000E-02
      1        -22.357494   1.000000
      2        -21.527704   1.000000
      3        -16.281656   1.000000
      4         -8.096484   1.000000
      5         -7.517854   1.000000
      6          0.166261   0.000000
      7          3.958948   0.000000
      8          4.121683   0.000000
      9         12.083927   0.000000
     10         12.383277   0.000000
     11         12.794285   0.000000
     12         13.683489   0.000000
 
  0.0000000E+00  0.0000000E+00  0.3333333E+00  0.1666667E-02
      1        -30.038039   1.000000
      2        -14.505180   1.000000
      3         -8.399054   1.000000
      4         -8.399054   1.000000
      5         -5.634596   1.000000
      6         -0.043231   0.000000
      7         -0.043230   0.000000
      8          0.312010   0.000000
      9          2.019629   0.000000
     10          2.366806   0.000000
     11          3.202961   0.000000
     12          4.518107   0.000000
 
  0.5000000E-01 -0.3469447E-17  0.3333333E+00  0.5000000E-02
      1        -29.966016   1.000000
      2        -14.438775   1.000000
      3         -8.801642   1.000000
      4         -8.525817   1.000000
      5         -5.599286   1.000000
      6         -0.086672   0.000000
      7          0.096289   0.000000
      8          0.578933   0.000000
      9          2.113333   0.000000
     10          2.456072   0.000000
     11          3.295835   0.000000
     12          4.605666   0.000000
 
  0.0000000E+00  0.5000000E-01  0.3333333E+00  0.5000000E-02
      1        -29.966014   1.000000
      2        -14.438774   1.000000
      3         -8.801651   1.000000
      4         -8.525825   1.000000
      5         -5.599288   1.000000
      6         -0.086668   0.000000
      7          0.096293   0.000000
      8          0.578928   0.000000
      9          2.113169   0.000000
     10          2.456358   0.000000
     11          3.295617   0.000000
     12          4.605852   0.000000
 
  0.1000000E+00 -0.6938894E-17  0.3333333E+00  0.5000000E-02
      1        -29.750320   1.000000
      2        -14.241893   1.000000
      3         -9.851598   1.000000
      4         -8.869836   1.000000
      5         -5.501023   1.000000
      6         -0.277458   0.000000
      7          0.472439   0.000000
      8          1.287369   0.000000
      9          2.394211   0.000000
     10          2.723647   0.000000
     11          3.574653   0.000000
     12          4.867844   0.000000
 
  0.0000000E+00  0.1000000E+00  0.3333333E+00  0.5000000E-02
      1        -29.750321   1.000000
      2        -14.241894   1.000000
      3         -9.851593   1.000000
      4         -8.869839   1.000000
      5         -5.501025   1.000000
      6         -0.277468   0.000000
      7          0.472437   0.000000
      8          1.287433   0.000000
      9          2.392792   0.000000
     10          2.725944   0.000000
     11          3.573058   0.000000
     12          4.869146   0.000000
 
  0.1500000E+00 -0.2775558E-16  0.3333333E+00  0.5000000E-02
      1        -29.392196   1.000000
      2        -13.925902   1.000000
      3        -11.267906   1.000000
      4         -9.349553   1.000000
      5         -5.365381   1.000000
      6         -0.565353   0.000000
      7          0.987327   0.000000
      8          2.112446   0.000000
      9          2.859117   0.000000
     10          3.177072   0.000000
     11          4.039220   0.000000
     12          5.305571   0.000000
 
  0.0000000E+00  0.1500000E+00  0.3333333E+00  0.5000000E-02
      1        -29.392197   1.000000
      2        -13.925905   1.000000
      3        -11.267898   1.000000
      4         -9.349552   1.000000
      5         -5.365385   1.000000
      6         -0.565353   0.000000
      7          0.987338   0.000000
      8          2.112834   0.000000
      9          2.854839   0.000000
     10          3.183186   0.000000
     11          4.035635   0.000000
     12          5.308198   0.000000
 
  0.2000000E+00 -0.1387779E-16  0.3333333E+00  0.5000000E-02
      1        -28.894013   1.000000
      2        -13.601342   1.000000
      3        -12.751046   1.000000
      4         -9.882455   1.000000
      5         -5.241613   1.000000
      6         -0.876869   0.000000
      7          1.538156   0.000000
      8          2.771984   0.000000
      9          3.501504   0.000000
     10          3.833197   0.000000
     11          4.687534   0.000000
     12          5.924461   0.000000
 
  0.0000000E+00  0.2000000E+00  0.3333333E+00  0.5000000E-02
      1        -28.894014   1.000000
      2        -13.601345   1.000000
      3        -12.751042   1.000000
      4         -9.882457   1.000000
      5         -5.241613   1.000000
      6         -0.876868   0.000000
      7          1.538182   0.000000
      8          2.772316   0.000000
      9          3.499081   0.000000
     10          3.835790   0.000000
     11          4.687634   0.000000
     12          5.922867   0.000000
 
  0.2500000E+00  0.0000000E+00  0.3333333E+00  0.5000000E-02
      1        -28.259801   1.000000
      2        -14.686941   1.000000
      3        -12.777005   1.000000
      4        -10.405429   1.000000
      5         -5.206242   1.000000
      6         -1.133799   0.000000
      7          2.046191   0.000000
      8          3.117793   0.000000
      9          4.328024   0.000000
     10          4.663324   0.000000
     11          5.516004   0.000000
     12          6.729006   0.000000
 
  0.0000000E+00  0.2500000E+00  0.3333333E+00  0.5000000E-02
      1        -28.259804   1.000000
      2        -14.686937   1.000000
      3        -12.777007   1.000000
      4        -10.405423   1.000000
      5         -5.206244   1.000000
      6         -1.133797   0.000000
      7          2.046202   0.000000
      8          3.117746   0.000000
      9          4.334397   0.000000
     10          4.649757   0.000000
     11          5.532752   0.000000
     12          6.708211   0.000000
 
  0.3000000E+00 -0.5551115E-16  0.3333333E+00  0.5000000E-02
      1        -27.496670   1.000000
      2        -16.334398   1.000000
      3        -12.137533   1.000000
      4        -10.875238   1.000000
      5         -5.345859   1.000000
      6         -1.267981   0.000000
      7          2.465009   0.000000
      8          3.150630   0.000000
      9          5.334951   0.000000
     10          5.634633   0.000000
     11          6.524174   0.000000
     12          7.710686   0.000000
 
  0.0000000E+00  0.3000000E+00  0.3333333E+00  0.5000000E-02
      1        -27.496666   1.000000
      2        -16.334400   1.000000
      3        -12.137530   1.000000
      4        -10.875237   1.000000
      5         -5.345870   1.000000
      6         -1.267980   0.000000
      7          2.465026   0.000000
      8          3.150618   0.000000
      9          5.352215   0.000000
     10          5.601248   0.000000
     11          6.565812   0.000000
     12          7.653544   0.000000
 
  0.3500000E+00 -0.5551115E-16  0.3333333E+00  0.5000000E-02
      1        -26.618476   1.000000
      2        -17.950785   1.000000
      3        -11.397312   1.000000
      4        -11.263459   1.000000
      5         -5.703985   1.000000
      6         -1.264591   0.000000
      7          2.777527   0.000000
      8          2.978863   0.000000
      9          6.497781   0.000000
     10          6.754933   0.000000
     11          7.713381   0.000000
     12          8.855028   0.000000
 
  0.0000000E+00  0.3500000E+00  0.3333333E+00  0.5000000E-02
      1        -26.618473   1.000000
      2        -17.950791   1.000000
      3        -11.397310   1.000000
      4        -11.263460   1.000000
      5         -5.704000   1.000000
      6         -1.264589   0.000000
      7          2.777526   0.000000
      8          2.978871   0.000000
      9          6.528369   0.000000