Automatically generated mesh
     121
Reciprocal lattice
    0.00000000000000    0.00000000000000    0.00000000000000             1
    0.05000000000000   -0.00000000000000    0.00000000000000             6
    0.10000000000000   -0.00000000000000    0.00000000000000             6
    0.15000000000000   -0.00000000000000    0.00000000000000             6
    0.20000000000000   -0.00000000000000    0.00000000000000             6
    0.25000000000000    0.00000000000000    0.00000000000000             6
    0.30000000000000   -0.00000000000000    0.00000000000000             6
    0.35000000000000   -0.00000000000000    0.00000000000000             6
    0.40000000000000   -0.00000000000000    0.00000000000000             6
    0.45000000000000   -0.00000000000000    0.00000000000000             6
    0.50000000000000    0.00000000000000    0.00000000000000             3
    0.05000000000000    0.05000000000000    0.00000000000000             6
    0.10000000000000    0.05000000000000    0.00000000000000            12
    0.15000000000000    0.05000000000000    0.00000000000000            12
    0.20000000000000    0.05000000000000    0.00000000000000            12
    0.25000000000000    0.05000000000000    0.00000000000000            12
    0.30000000000000    0.05000000000000    0.00000000000000            12
    0.35000000000000    0.05000000000000    0.00000000000000            12
    0.40000000000000    0.05000000000000    0.00000000000000            12
    0.45000000000000    0.05000000000000    0.00000000000000            12
    0.10000000000000    0.10000000000000    0.00000000000000             6
    0.15000000000000    0.10000000000000    0.00000000000000            12
    0.20000000000000    0.10000000000000    0.00000000000000            12
    0.25000000000000    0.10000000000000    0.00000000000000            12
    0.30000000000000    0.10000000000000    0.00000000000000            12
    0.35000000000000    0.10000000000000    0.00000000000000            12
    0.40000000000000    0.10000000000000    0.00000000000000            12
    0.45000000000000    0.10000000000000    0.00000000000000             6
    0.15000000000000    0.15000000000000    0.00000000000000             6
    0.20000000000000    0.15000000000000    0.00000000000000            12
    0.25000000000000    0.15000000000000    0.00000000000000            12
    0.30000000000000    0.15000000000000    0.00000000000000            12
    0.35000000000000    0.15000000000000    0.00000000000000            12
    0.40000000000000    0.15000000000000    0.00000000000000            12
    0.20000000000000    0.20000000000000    0.00000000000000             6
    0.25000000000000    0.20000000000000    0.00000000000000            12
    0.30000000000000    0.20000000000000    0.00000000000000            12
    0.35000000000000    0.20000000000000    0.00000000000000            12
    0.40000000000000    0.20000000000000    0.00000000000000             6
    0.25000000000000    0.25000000000000    0.00000000000000             6
    0.30000000000000    0.25000000000000    0.00000000000000            12
    0.35000000000000    0.25000000000000    0.00000000000000            12
    0.30000000000000    0.30000000000000    0.00000000000000             6
    0.35000000000000    0.30000000000000    0.00000000000000             6
    0.00000000000000    0.00000000000000    0.33333333333334             2
    0.05000000000000   -0.00000000000000    0.33333333333334             6
    0.00000000000000    0.05000000000000    0.33333333333334             6
    0.10000000000000   -0.00000000000000    0.33333333333334             6
    0.00000000000000    0.10000000000000    0.33333333333334             6
    0.15000000000000   -0.00000000000000    0.33333333333334             6
    0.00000000000000    0.15000000000000    0.33333333333334             6
    0.20000000000000   -0.00000000000000    0.33333333333334             6
    0.00000000000000    0.20000000000000    0.33333333333334             6
    0.25000000000000    0.00000000000000    0.33333333333334             6
    0.00000000000000    0.25000000000000    0.33333333333334             6
    0.30000000000000   -0.00000000000000    0.33333333333334             6
    0.00000000000000    0.30000000000000    0.33333333333334             6
    0.35000000000000   -0.00000000000000    0.33333333333334             6
    0.00000000000000    0.35000000000000    0.33333333333334             6
    0.40000000000000   -0.00000000000000    0.33333333333334             6
    0.00000000000000    0.40000000000000    0.33333333333334             6
    0.45000000000000   -0.00000000000000    0.33333333333334             6
    0.00000000000000    0.45000000000000    0.33333333333334             6
    0.50000000000000    0.00000000000000    0.33333333333334             6
    0.05000000000000    0.05000000000000    0.33333333333334            12
    0.10000000000000    0.05000000000000    0.33333333333334            12
   -0.05000000000000    0.15000000000000    0.33333333333334            12
    0.15000000000000    0.05000000000000    0.33333333333334            12
   -0.05000000000000    0.20000000000000    0.33333333333334            12
    0.20000000000000    0.05000000000000    0.33333333333334            12
   -0.05000000000000    0.25000000000000    0.33333333333334            12
    0.25000000000000    0.05000000000000    0.33333333333334            12
   -0.05000000000000    0.30000000000000    0.33333333333334            12
    0.30000000000000    0.05000000000000    0.33333333333334            12
   -0.05000000000000    0.34999999999999    0.33333333333334            12
    0.35000000000000    0.05000000000000    0.33333333333334            12
   -0.05000000000000    0.40000000000000    0.33333333333334            12
    0.40000000000000    0.05000000000000    0.33333333333334            12
   -0.05000000000000    0.45000000000000    0.33333333333334            12
    0.45000000000000    0.05000000000000    0.33333333333334            12
   -0.05000000000000    0.50000000000000    0.33333333333334            12
    0.10000000000000    0.10000000000000    0.33333333333334            12
    0.15000000000000    0.10000000000000    0.33333333333334            12
   -0.10000000000000    0.25000000000000    0.33333333333334            12
    0.20000000000000    0.10000000000000    0.33333333333334            12
   -0.10000000000000    0.30000000000000    0.33333333333334            12
    0.25000000000000    0.10000000000000    0.33333333333334            12
   -0.10000000000000    0.35000000000000    0.33333333333334            12
    0.30000000000000    0.10000000000000    0.33333333333334            12
   -0.10000000000000    0.40000000000000    0.33333333333334            12
    0.35000000000000    0.10000000000000    0.33333333333334            12
   -0.10000000000000    0.45000000000000    0.33333333333334            12
    0.40000000000000    0.10000000000000    0.33333333333334            12
   -0.10000000000000    0.50000000000000    0.33333333333334            12
    0.45000000000000    0.10000000000000    0.33333333333334            12
    0.15000000000000    0.15000000000000    0.33333333333334            12
    0.20000000000000    0.15000000000000    0.33333333333334            12
   -0.15000000000000    0.35000000000000    0.33333333333334            12
    0.25000000000000    0.15000000000000    0.33333333333334            12
   -0.15000000000000    0.40000000000000    0.33333333333334            12
    0.30000000000000    0.15000000000000    0.33333333333334            12
   -0.15000000000000    0.45000000000000    0.33333333333334            12
    0.35000000000000    0.15000000000000    0.33333333333334            12
   -0.15000000000000    0.50000000000000    0.33333333333334            12
    0.40000000000000    0.15000000000000    0.33333333333334            12
   -0.15000000000000   -0.45000000000000    0.33333333333334            12
    0.20000000000000    0.20000000000000    0.33333333333334            12
    0.25000000000000    0.20000000000000    0.33333333333334            12
   -0.20000000000000    0.45000000000000    0.33333333333334            12
    0.30000000000000    0.20000000000000    0.33333333333334            12
   -0.20000000000000    0.50000000000000    0.33333333333334            12
    0.35000000000000    0.20000000000000    0.33333333333334            12
   -0.20000000000000   -0.45000000000000    0.33333333333334            12
    0.40000000000000    0.20000000000000    0.33333333333334            12
    0.25000000000000    0.25000000000000    0.33333333333334            12
    0.30000000000000    0.25000000000000    0.33333333333334            12
   -0.25000000000000   -0.45000000000000    0.33333333333334            12
    0.35000000000000    0.25000000000000    0.33333333333334            12
   -0.25000000000000   -0.40000000000000    0.33333333333334            12
    0.30000000000000    0.30000000000000    0.33333333333334            12
    0.35000000000000    0.30000000000000    0.33333333333334            12
