       N       E                     dE             d eps       ncg     rms          rms(c)
DAV:   1     0.109980995959E+03    0.10998E+03   -0.52557E+03  2904   0.947E+02
DAV:   2    -0.373749645091E+01   -0.11372E+03   -0.92033E+02  4452   0.253E+02
DAV:   3    -0.138935702660E+02   -0.10156E+02   -0.99383E+01  4220   0.760E+01
DAV:   4    -0.140541351325E+02   -0.16056E+00   -0.16001E+00  4008   0.105E+01
DAV:   5    -0.140571587277E+02   -0.30236E-02   -0.30231E-02  3984   0.827E-01
DAV:   6    -0.140571830773E+02   -0.24350E-04   -0.24349E-04  4272   0.630E-02
DAV:   7    -0.140571831744E+02   -0.97144E-07   -0.97141E-07  4440   0.368E-03
DAV:   8    -0.140571831747E+02   -0.25352E-09   -0.27946E-09  3836   0.155E-04
DAV:   9    -0.140571831747E+02    0.90949E-12   -0.26406E-11  2492   0.107E-05
DAV:  10    -0.140571831747E+02    0.79581E-12    0.18406E-13  1776   0.196E-06
DAV:  11    -0.140571831747E+02    0.22737E-11   -0.32433E-14  1608   0.108E-06
DAV:  12    -0.140571831747E+02    0.22737E-11    0.38165E-13  1588   0.632E-07    0.608E+00
DAV:  13    -0.138899290791E+02    0.16725E+00   -0.26770E-02  3236   0.147E+00    0.535E+00
DAV:  14    -0.134305650781E+02    0.45936E+00   -0.14239E+00  3272   0.102E+01    0.710E-01
DAV:  15    -0.134327470576E+02   -0.21820E-02   -0.88741E-02  3076   0.284E+00    0.433E-01
DAV:  16    -0.134340004468E+02   -0.12534E-02   -0.38002E-03  4408   0.697E-01    0.115E-01
DAV:  17    -0.134337664097E+02    0.23404E-03   -0.13722E-03  3736   0.323E-01    0.852E-02
DAV:  18    -0.134337332894E+02    0.33120E-04   -0.18979E-04  4368   0.138E-01    0.341E-02
DAV:  19    -0.134337341927E+02   -0.90328E-06   -0.12215E-05  4408   0.322E-02    0.196E-02
DAV:  20    -0.134337366068E+02   -0.24142E-05   -0.12347E-05  3676   0.345E-02    0.249E-03
DAV:  21    -0.134337364541E+02    0.15271E-06   -0.91075E-07  2408   0.992E-03
   1 F= -.13433736E+02 E0= -.13433736E+02  d E =-.134337E+02
