 vasp.6.4.2 20Jul23 (build Nov 14 2023 12:59:38) complex                        
  
 executed on             LinuxIFC date 2023.12.16  19:26:06
 running   16 mpi-ranks, on    1 nodes
 distrk:  each k-point on   16 cores,    1 groups
 distr:  one band on NCORE=   4 cores,    4 groups


--------------------------------------------------------------------------------------------------------


 INCAR:
   ENCUT = 841.8040
   ALGO = Normal
   NELM = 200
   NELMIN = 6
   NELMDL = -12
   EDIFF = 1.0E-6
   AMIX = 0.1
   BMIX = 0.0001
   PREC = Accurate
   IVDW = 0
   ISPIN = 1
   ADDGRID = .TRUE.
   LASPH = .TRUE.
   NSW = 30
   EDIFFG = -0.010
   IBRION = 2
   ISIF = 3
   POTIM = 0.5
   STRESSTYPE = 2
   ISMEAR = 0
   SIGMA = 0.01
   LORBIT = 10
   NEDOS = 6001
   NWRITE = 1
   LWAVE = .FALSE.
   LCHARG = .FALSE.
   NCORE = 4
   LPLANE = .TRUE.

 POTCAR:    PAW_PBE N_GW 10Apr2007                
 POTCAR:    PAW_PBE N_GW 10Apr2007                
  local pseudopotential read in
  kinetic energy density of atom read in
  atomic valenz-charges read in
  non local Contribution for L=           0  read in
    real space projection operators read in
  non local Contribution for L=           0  read in
    real space projection operators read in
  non local Contribution for L=           1  read in
    real space projection operators read in
  non local Contribution for L=           1  read in
    real space projection operators read in
    PAW grid and wavefunctions read in
 
   number of l-projection  operators is LMAX  =           4
   number of lm-projection operators is LMMAX =           8
 
  PAW_PBE N_GW 10Apr2007                :
 energy of atom  1       EATOM= -264.5486
 kinetic energy error for atom=    0.0020 (will be added to EATOM!!)
 
 
 POSCAR: pnictogen honeycomb monolayer
  positions in direct lattice
  velocities in cartesian coordinates
 exchange correlation table for  LEXCH =        8
   RHO(1)=    0.500       N(1)  =     2000
   RHO(2)=  100.500       N(2)  =     4000
 


--------------------------------------------------------------------------------------------------------


 ion  position               nearest neighbor table
   1  0.667  0.333  0.478-   2 1.50   2 1.50   2 1.50
   2  0.333  0.667  0.522-   1 1.50   1 1.50   1 1.50
 
  LATTYP: Found a hexagonal cell.
 ALAT       =     2.2944985944
 C/A-ratio  =     6.9732010465
  
  Lattice vectors:
  
 A1 = (   2.2944985944,   0.0000000000,   0.0000000000)
 A2 = (  -1.1472492972,   1.9870940717,   0.0000000000)
 A3 = (   0.0000000000,   0.0000000000,  16.0000000000)


Analysis of symmetry for initial positions (statically):
=====================================================================
 Subroutine PRICEL returns:
 Original cell was already a primitive cell.
 

 Routine SETGRP: Setting up the symmetry group for a 
 hexagonal supercell.


 Subroutine GETGRP returns: Found 12 space group operations
 (whereof 12 operations were pure point group operations)
 out of a pool of 24 trial point group operations.


The static configuration has the point symmetry D_3d.


Analysis of symmetry for dynamics (positions and initial velocities):
=====================================================================
 Subroutine PRICEL returns:
 Original cell was already a primitive cell.
 

 Routine SETGRP: Setting up the symmetry group for a 
 hexagonal supercell.


 Subroutine GETGRP returns: Found 12 space group operations
 (whereof 12 operations were pure point group operations)
 out of a pool of 24 trial point group operations.


The dynamic configuration has the point symmetry D_3d.


 Subroutine INISYM returns: Found 12 space group operations
 (whereof 12 operations are pure point group operations),
 and found     1 'primitive' translations


----------------------------------------------------------------------------------------

                                     Primitive cell                                     

  volume of cell :      72.9502

  direct lattice vectors                    reciprocal lattice vectors
     2.294498594  0.000000000  0.000000000     0.435825065  0.251623719  0.000000000
    -1.147249297  1.987094072  0.000000000     0.000000000  0.503247438  0.000000000
     0.000000000  0.000000000 16.000000000     0.000000000  0.000000000  0.062500000

  length of vectors
     2.294498594  2.294498594 16.000000000     0.503247438  0.503247438  0.062500000

  position of ions in fractional coordinates (direct lattice)
     0.666666667  0.333333333  0.478221854
     0.333333333  0.666666667  0.521778146

  ion indices of the primitive-cell ions
   primitive index   ion index
                 1           1
                 2           2

----------------------------------------------------------------------------------------

 
 
 KPOINTS: Fully automatic mesh                    

Automatic generation of k-mesh.
 Grid dimensions derived from RKLEN:
 generate k-points for:   20   20    3

 Generating k-lattice:

  Cartesian coordinates                     Fractional coordinates (reciprocal lattice)
     0.021791253  0.012581186  0.000000000     0.050000000  0.000000000  0.000000000
     0.000000000  0.025162372  0.000000000     0.000000000  0.050000000  0.000000000
     0.000000000  0.000000000  0.020833333     0.000000000  0.000000000  0.333333333

  Length of vectors
     0.025162372  0.025162372  0.020833333

  Shift w.r.t. Gamma in fractional coordinates (k-lattice)
     0.000000000  0.000000000  0.000000000

 
 Subroutine IBZKPT returns following result:
 ===========================================
 
 Found    121 irreducible k-points:
 
 Following reciprocal coordinates:
            Coordinates               Weight
  0.000000  0.000000  0.000000      1.000000
  0.050000 -0.000000  0.000000      6.000000
  0.100000 -0.000000  0.000000      6.000000
  0.150000 -0.000000  0.000000      6.000000
  0.200000 -0.000000  0.000000      6.000000
  0.250000  0.000000  0.000000      6.000000
  0.300000 -0.000000  0.000000      6.000000
  0.350000 -0.000000  0.000000      6.000000
  0.400000 -0.000000  0.000000      6.000000
  0.450000 -0.000000  0.000000      6.000000
  0.500000  0.000000  0.000000      3.000000
  0.050000  0.050000  0.000000      6.000000
  0.100000  0.050000  0.000000     12.000000
  0.150000  0.050000  0.000000     12.000000
  0.200000  0.050000  0.000000     12.000000
  0.250000  0.050000  0.000000     12.000000
  0.300000  0.050000  0.000000     12.000000
  0.350000  0.050000  0.000000     12.000000
  0.400000  0.050000  0.000000     12.000000
  0.450000  0.050000  0.000000     12.000000
  0.100000  0.100000  0.000000      6.000000
  0.150000  0.100000  0.000000     12.000000
  0.200000  0.100000  0.000000     12.000000
  0.250000  0.100000  0.000000     12.000000
  0.300000  0.100000  0.000000     12.000000
  0.350000  0.100000  0.000000     12.000000
  0.400000  0.100000  0.000000     12.000000
  0.450000  0.100000  0.000000      6.000000
  0.150000  0.150000  0.000000      6.000000
  0.200000  0.150000  0.000000     12.000000
  0.250000  0.150000  0.000000     12.000000
  0.300000  0.150000  0.000000     12.000000
  0.350000  0.150000  0.000000     12.000000
  0.400000  0.150000  0.000000     12.000000
  0.200000  0.200000  0.000000      6.000000
  0.250000  0.200000  0.000000     12.000000
  0.300000  0.200000  0.000000     12.000000
  0.350000  0.200000  0.000000     12.000000
  0.400000  0.200000  0.000000      6.000000
  0.250000  0.250000  0.000000      6.000000
  0.300000  0.250000  0.000000     12.000000
  0.350000  0.250000  0.000000     12.000000
  0.300000  0.300000  0.000000      6.000000
  0.350000  0.300000  0.000000      6.000000
  0.000000  0.000000  0.333333      2.000000
  0.050000 -0.000000  0.333333      6.000000
  0.000000  0.050000  0.333333      6.000000
  0.100000 -0.000000  0.333333      6.000000
  0.000000  0.100000  0.333333      6.000000
  0.150000 -0.000000  0.333333      6.000000
  0.000000  0.150000  0.333333      6.000000
  0.200000 -0.000000  0.333333      6.000000
  0.000000  0.200000  0.333333      6.000000
  0.250000  0.000000  0.333333      6.000000
  0.000000  0.250000  0.333333      6.000000
  0.300000 -0.000000  0.333333      6.000000
  0.000000  0.300000  0.333333      6.000000
  0.350000 -0.000000  0.333333      6.000000
  0.000000  0.350000  0.333333      6.000000
  0.400000 -0.000000  0.333333      6.000000
  0.000000  0.400000  0.333333      6.000000
  0.450000 -0.000000  0.333333      6.000000
  0.000000  0.450000  0.333333      6.000000
  0.500000  0.000000  0.333333      6.000000
  0.050000  0.050000  0.333333     12.000000
  0.100000  0.050000  0.333333     12.000000
 -0.050000  0.150000  0.333333     12.000000
  0.150000  0.050000  0.333333     12.000000
 -0.050000  0.200000  0.333333     12.000000
  0.200000  0.050000  0.333333     12.000000
 -0.050000  0.250000  0.333333     12.000000
  0.250000  0.050000  0.333333     12.000000
 -0.050000  0.300000  0.333333     12.000000
  0.300000  0.050000  0.333333     12.000000
 -0.050000  0.350000  0.333333     12.000000
  0.350000  0.050000  0.333333     12.000000
 -0.050000  0.400000  0.333333     12.000000
  0.400000  0.050000  0.333333     12.000000
 -0.050000  0.450000  0.333333     12.000000
  0.450000  0.050000  0.333333     12.000000
 -0.050000  0.500000  0.333333     12.000000
  0.100000  0.100000  0.333333     12.000000
  0.150000  0.100000  0.333333     12.000000
 -0.100000  0.250000  0.333333     12.000000
  0.200000  0.100000  0.333333     12.000000
 -0.100000  0.300000  0.333333     12.000000
  0.250000  0.100000  0.333333     12.000000
 -0.100000  0.350000  0.333333     12.000000
  0.300000  0.100000  0.333333     12.000000
 -0.100000  0.400000  0.333333     12.000000
  0.350000  0.100000  0.333333     12.000000
 -0.100000  0.450000  0.333333     12.000000
  0.400000  0.100000  0.333333     12.000000
 -0.100000  0.500000  0.333333     12.000000
  0.450000  0.100000  0.333333     12.000000
  0.150000  0.150000  0.333333     12.000000
  0.200000  0.150000  0.333333     12.000000
 -0.150000  0.350000  0.333333     12.000000
  0.250000  0.150000  0.333333     12.000000
 -0.150000  0.400000  0.333333     12.000000
  0.300000  0.150000  0.333333     12.000000
 -0.150000  0.450000  0.333333     12.000000
  0.350000  0.150000  0.333333     12.000000
 -0.150000  0.500000  0.333333     12.000000
  0.400000  0.150000  0.333333     12.000000
 -0.150000 -0.450000  0.333333     12.000000
  0.200000  0.200000  0.333333     12.000000
  0.250000  0.200000  0.333333     12.000000
 -0.200000  0.450000  0.333333     12.000000
  0.300000  0.200000  0.333333     12.000000
 -0.200000  0.500000  0.333333     12.000000
  0.350000  0.200000  0.333333     12.000000
 -0.200000 -0.450000  0.333333     12.000000
  0.400000  0.200000  0.333333     12.000000
  0.250000  0.250000  0.333333     12.000000
  0.300000  0.250000  0.333333     12.000000
 -0.250000 -0.450000  0.333333     12.000000
  0.350000  0.250000  0.333333     12.000000
 -0.250000 -0.400000  0.333333     12.000000
  0.300000  0.300000  0.333333     12.000000
  0.350000  0.300000  0.333333     12.000000
 
 Following cartesian coordinates:
            Coordinates               Weight
  0.000000  0.000000  0.000000      1.000000
  0.021791  0.012581  0.000000      6.000000
  0.043583  0.025162  0.000000      6.000000
  0.065374  0.037744  0.000000      6.000000
  0.087165  0.050325  0.000000      6.000000
  0.108956  0.062906  0.000000      6.000000
  0.130748  0.075487  0.000000      6.000000
  0.152539  0.088068  0.000000      6.000000
  0.174330  0.100649  0.000000      6.000000
  0.196121  0.113231  0.000000      6.000000
  0.217913  0.125812  0.000000      3.000000
  0.021791  0.037744  0.000000      6.000000
  0.043583  0.050325  0.000000     12.000000
  0.065374  0.062906  0.000000     12.000000
  0.087165  0.075487  0.000000     12.000000
  0.108956  0.088068  0.000000     12.000000
  0.130748  0.100649  0.000000     12.000000
  0.152539  0.113231  0.000000     12.000000
  0.174330  0.125812  0.000000     12.000000
  0.196121  0.138393  0.000000     12.000000
  0.043583  0.075487  0.000000      6.000000
  0.065374  0.088068  0.000000     12.000000
  0.087165  0.100649  0.000000     12.000000
  0.108956  0.113231  0.000000     12.000000
  0.130748  0.125812  0.000000     12.000000
  0.152539  0.138393  0.000000     12.000000
  0.174330  0.150974  0.000000     12.000000
  0.196121  0.163555  0.000000      6.000000
  0.065374  0.113231  0.000000      6.000000
  0.087165  0.125812  0.000000     12.000000
  0.108956  0.138393  0.000000     12.000000
  0.130748  0.150974  0.000000     12.000000
  0.152539  0.163555  0.000000     12.000000
  0.174330  0.176137  0.000000     12.000000
  0.087165  0.150974  0.000000      6.000000
  0.108956  0.163555  0.000000     12.000000
  0.130748  0.176137  0.000000     12.000000
  0.152539  0.188718  0.000000     12.000000
  0.174330  0.201299  0.000000      6.000000
  0.108956  0.188718  0.000000      6.000000
  0.130748  0.201299  0.000000     12.000000
  0.152539  0.213880  0.000000     12.000000
  0.130748  0.226461  0.000000      6.000000
  0.152539  0.239043  0.000000      6.000000
  0.000000  0.000000  0.020833      2.000000
  0.021791  0.012581  0.020833      6.000000
  0.000000  0.025162  0.020833      6.000000
  0.043583  0.025162  0.020833      6.000000
  0.000000  0.050325  0.020833      6.000000
  0.065374  0.037744  0.020833      6.000000
  0.000000  0.075487  0.020833      6.000000
  0.087165  0.050325  0.020833      6.000000
  0.000000  0.100649  0.020833      6.000000
  0.108956  0.062906  0.020833      6.000000
  0.000000  0.125812  0.020833      6.000000
  0.130748  0.075487  0.020833      6.000000
  0.000000  0.150974  0.020833      6.000000
  0.152539  0.088068  0.020833      6.000000
  0.000000  0.176137  0.020833      6.000000
  0.174330  0.100649  0.020833      6.000000
  0.000000  0.201299  0.020833      6.000000
  0.196121  0.113231  0.020833      6.000000
  0.000000  0.226461  0.020833      6.000000
  0.217913  0.125812  0.020833      6.000000
  0.021791  0.037744  0.020833     12.000000
  0.043583  0.050325  0.020833     12.000000
 -0.021791  0.062906  0.020833     12.000000
  0.065374  0.062906  0.020833     12.000000
 -0.021791  0.088068  0.020833     12.000000
  0.087165  0.075487  0.020833     12.000000
 -0.021791  0.113231  0.020833     12.000000
  0.108956  0.088068  0.020833     12.000000
 -0.021791  0.138393  0.020833     12.000000
  0.130748  0.100649  0.020833     12.000000
 -0.021791  0.163555  0.020833     12.000000
  0.152539  0.113231  0.020833     12.000000
 -0.021791  0.188718  0.020833     12.000000
  0.174330  0.125812  0.020833     12.000000
 -0.021791  0.213880  0.020833     12.000000
  0.196121  0.138393  0.020833     12.000000
 -0.021791  0.239043  0.020833     12.000000
  0.043583  0.075487  0.020833     12.000000
  0.065374  0.088068  0.020833     12.000000
 -0.043583  0.100649  0.020833     12.000000
  0.087165  0.100649  0.020833     12.000000
 -0.043583  0.125812  0.020833     12.000000
  0.108956  0.113231  0.020833     12.000000
 -0.043583  0.150974  0.020833     12.000000
  0.130748  0.125812  0.020833     12.000000
 -0.043583  0.176137  0.020833     12.000000
  0.152539  0.138393  0.020833     12.000000
 -0.043583  0.201299  0.020833     12.000000
  0.174330  0.150974  0.020833     12.000000
 -0.043583  0.226461  0.020833     12.000000
  0.196121  0.163555  0.020833     12.000000
  0.065374  0.113231  0.020833     12.000000
  0.087165  0.125812  0.020833     12.000000
 -0.065374  0.138393  0.020833     12.000000
  0.108956  0.138393  0.020833     12.000000
 -0.065374  0.163555  0.020833     12.000000
  0.130748  0.150974  0.020833     12.000000
 -0.065374  0.188718  0.020833     12.000000
  0.152539  0.163555  0.020833     12.000000
 -0.065374  0.213880  0.020833     12.000000
  0.174330  0.176137  0.020833     12.000000
 -0.065374 -0.264205  0.020833     12.000000
  0.087165  0.150974  0.020833     12.000000
  0.108956  0.163555  0.020833     12.000000
 -0.087165  0.176137  0.020833     12.000000
  0.130748  0.176137  0.020833     12.000000
 -0.087165  0.201299  0.020833     12.000000
  0.152539  0.188718  0.020833     12.000000
 -0.087165 -0.276786  0.020833     12.000000
  0.174330  0.201299  0.020833     12.000000
  0.108956  0.188718  0.020833     12.000000
  0.130748  0.201299  0.020833     12.000000
 -0.108956 -0.289367  0.020833     12.000000
  0.152539  0.213880  0.020833     12.000000
 -0.108956 -0.264205  0.020833     12.000000
  0.130748  0.226461  0.020833     12.000000
  0.152539  0.239043  0.020833     12.000000
 


--------------------------------------------------------------------------------------------------------




 Dimension of arrays:
   k-points           NKPTS =    121   k-points in BZ     NKDIM =    121   number of bands    NBANDS=     12
   number of dos      NEDOS =   6001   number of ions     NIONS =      2
   non local maximal  LDIM  =      4   non local SUM 2l+1 LMDIM =      8
   total plane-waves  NPLWV =  92160
   max r-space proj   IRMAX =      1   max aug-charges    IRDMAX=  71973
   dimension x,y,z NGX =    24 NGY =   24 NGZ =  160
   dimension x,y,z NGXF=    48 NGYF=   48 NGZF=  320
   support grid    NGXF=    96 NGYF=   96 NGZF=  640
   ions per type =               2
   NGX,Y,Z   is equivalent  to a cutoff of  17.39, 17.39, 16.62 a.u.
   NGXF,Y,Z  is equivalent  to a cutoff of  34.78, 34.78, 33.25 a.u.

 SYSTEM =  unknown system                          
 POSCAR =  pnictogen honeycomb monolayer           

 Startparameter for this run:
   NWRITE =      1    write-flag & timer
   PREC   = accura    normal or accurate (medium, high low for compatibility)
   ISTART =      0    job   : 0-new  1-cont  2-samecut
   ICHARG =      2    charge: 1-file 2-atom 10-const
   ISPIN  =      1    spin polarized calculation?
   LNONCOLLINEAR =      F non collinear calculations
   LSORBIT =      F    spin-orbit coupling
   INIWAV =      1    electr: 0-lowe 1-rand  2-diag
   LASPH  =      T    aspherical Exc in radial PAW
 Electronic Relaxation 1
   ENCUT  =  841.8 eV  61.87 Ry    7.87 a.u.   5.43  5.43 37.85*2*pi/ulx,y,z
   ENINI  =  841.8     initial cutoff
   ENAUG  =  904.6 eV  augmentation charge cutoff
   NELM   =    200;   NELMIN=  6; NELMDL=-12     # of ELM steps 
   EDIFF  = 0.1E-05   stopping-criterion for ELM
   LREAL  =      F    real-space projection
   NLSPLINE    = F    spline interpolate recip. space projectors
   LCOMPAT=      F    compatible to vasp.4.4
   GGA_COMPAT  = T    GGA compatible to vasp.4.4-vasp.4.6
   LMAXPAW     = -100 max onsite density
   LMAXMIX     =    2 max onsite mixed and CHGCAR
   VOSKOWN=      0    Vosko Wilk Nusair interpolation
   ROPT   =    0.00000
 Ionic relaxation
   EDIFFG = -.1E-01   stopping-criterion for IOM
   NSW    =     30    number of steps for IOM
   NBLOCK =      1;   KBLOCK =     30    inner block; outer block 
   IBRION =      2    ionic relax: 0-MD 1-quasi-New 2-CG
   NFREE  =      1    steps in history (QN), initial steepest desc. (CG)
   ISIF   =      3    stress and relaxation
   IWAVPR =     11    prediction:  0-non 1-charg 2-wave 3-comb
   ISYM   =      2    0-nonsym 1-usesym 2-fastsym
   LCORR  =      T    Harris-Foulkes like correction to forces

   POTIM  = 0.5000    time-step for ionic-motion
   TEIN   =    0.0    initial temperature
   TEBEG  =    0.0;   TEEND  =   0.0 temperature during run
   SMASS  =  -3.00    Nose mass-parameter (am)
   estimated Nose-frequenzy (Omega)   =  0.10E-29 period in steps = 0.13E+47 mass=  -0.120E-27a.u.
   SCALEE = 1.0000    scale energy and forces
   NPACO  =    256;   APACO  = 10.0  distance and # of slots for P.C.
   PSTRESS=    0.0 pullay stress

  Mass of Ions in am
   POMASS =  14.00
  Ionic Valenz
   ZVAL   =   5.00
  Atomic Wigner-Seitz radii
   RWIGS  =  -1.00
  virtual crystal weights 
   VCA    =   1.00
   NELECT =      10.0000    total number of electrons
   NUPDOWN=      -1.0000    fix difference up-down

 DOS related values:
   EMIN   =  10.00;   EMAX   =-10.00  energy-range for DOS
   EFERMI =   0.00;   METHOD = LEGACY      
   ISMEAR =     0;   SIGMA  =   0.01  broadening in eV -4-tet -1-fermi 0-gaus

 Electronic relaxation 2 (details)
   IALGO  =     38    algorithm
   LDIAG  =      T    sub-space diagonalisation (order eigenvalues)
   LSUBROT=      F    optimize rotation matrix (better conditioning)
   TURBO    =      0    0=normal 1=particle mesh
   IRESTART =      0    0=no restart 2=restart with 2 vectors
   NREBOOT  =      0    no. of reboots
   NMIN     =      0    reboot dimension
   EREF     =   0.00    reference energy to select bands
   IMIX   =      4    mixing-type and parameters
     AMIX     =   0.10;   BMIX     =  0.00
     AMIX_MAG =   0.40;   BMIX_MAG =  0.00
     AMIN     =   0.10
     WC   =   100.;   INIMIX=   1;  MIXPRE=   1;  MAXMIX= -45

 Intra band minimization:
   WEIMIN = 0.0010     energy-eigenvalue tresh-hold
   EBREAK =  0.21E-07  absolut break condition
   DEPER  =   0.30     relativ break condition  

   TIME   =   0.40     timestep for ELM

  volume/ion in A,a.u.               =      36.48       246.15
  Fermi-wavevector in a.u.,A,eV,Ry     =   0.844111  1.595138  9.694463  0.712523
  Thomas-Fermi vector in A             =   1.959086
 
 Write flags
   LWAVE        =      F    write WAVECAR
   LDOWNSAMPLE  =      F    k-point downsampling of WAVECAR
   LCHARG       =      F    write CHGCAR
   LVTOT        =      F    write LOCPOT, total local potential
   LVHAR        =      F    write LOCPOT, Hartree potential only
   LELF         =      F    write electronic localiz. function (ELF)
   LORBIT       =     10    0 simple, 1 ext, 2 COOP (PROOUT), +10 PAW based schemes


 Dipole corrections
   LMONO  =      F    monopole corrections only (constant potential shift)
   LDIPOL =      F    correct potential (dipole corrections)
   IDIPOL =      0    1-x, 2-y, 3-z, 4-all directions 
   EPSILON=  1.0000000 bulk dielectric constant

 Exchange correlation treatment:
   GGA     =    --    GGA type
   LEXCH   =     8    internal setting for exchange type
   LIBXC   =     F    Libxc                    
   VOSKOWN =     0    Vosko Wilk Nusair interpolation
   LHFCALC =     F    Hartree Fock is set to
   LHFONE  =     F    Hartree Fock one center treatment
   AEXX    =    0.0000 exact exchange contribution

 Linear response parameters
   LEPSILON=     F    determine dielectric tensor
   LRPA    =     F    only Hartree local field effects (RPA)
   LNABLA  =     F    use nabla operator in PAW spheres
   LVEL    =     F    velocity operator in full k-point grid
   CSHIFT  =0.1000    complex shift for real part using Kramers Kronig
   OMEGAMAX=  -1.0    maximum frequency
   DEG_THRESHOLD= 0.2000000E-02 threshold for treating states as degnerate
   RTIME   =   -0.100 relaxation time in fs
  (WPLASMAI=    0.000 imaginary part of plasma frequency in eV, 0.658/RTIME)
   DFIELD  = 0.0000000 0.0000000 0.0000000 field for delta impulse in time
 
  Optional k-point grid parameters
   LKPOINTS_OPT  =     F    use optional k-point grid
   KPOINTS_OPT_MODE=     1    mode for optional k-point grid
 
 Orbital magnetization related:
   ORBITALMAG=     F  switch on orbital magnetization
   LCHIMAG   =     F  perturbation theory with respect to B field
   DQ        =  0.001000  dq finite difference perturbation B field
   LLRAUG    =     F  two centre corrections for induced B field
   LBONE     =     F  B-component reconstruction in AE one-centre
   LVGVCALC  =     T  calculate vGv susceptibility
   LVGVAPPL  =     F  apply vGv susceptibility instead of pGv for G=0

 Random number generation:
   RANDOM_GENERATOR = DEFAULT
   PCG_SEED         = not used


--------------------------------------------------------------------------------------------------------


 conjugate gradient relaxation of ions
 charge density and potential will be updated during run
 non-spin polarized calculation
 Variant of blocked Davidson
 Davidson routine will perform the subspace rotation
 perform sub-space diagonalisation
    after iterative eigenvector-optimisation
 modified Broyden-mixing scheme, WC =      100.0
 initial mixing is a Kerker type mixing with AMIX =  0.1000 and BMIX =      0.0001
 Hartree-type preconditioning will be used
 using additional bands            7
 reciprocal scheme for non local part
 calculate Harris-corrections to forces 
   (improved forces if not selfconsistent)
 use gradient corrections 
 use of overlap-Matrix (Vanderbilt PP)
 Gauss-broadening in eV      SIGMA  =   0.01


--------------------------------------------------------------------------------------------------------


  energy-cutoff  :      841.80
  volume of cell :       72.95
      direct lattice vectors                 reciprocal lattice vectors
     2.294498594  0.000000000  0.000000000     0.435825065  0.251623719  0.000000000
    -1.147249297  1.987094072  0.000000000     0.000000000  0.503247438  0.000000000
     0.000000000  0.000000000 16.000000000     0.000000000  0.000000000  0.062500000

  length of vectors
     2.294498594  2.294498594 16.000000000     0.503247438  0.503247438  0.062500000


 
 k-points in units of 2pi/SCALE and weight: Fully automatic mesh                    
   0.00000000  0.00000000  0.00000000       0.001
   0.02179125  0.01258119  0.00000000       0.005
   0.04358251  0.02516237  0.00000000       0.005
   0.06537376  0.03774356  0.00000000       0.005
   0.08716501  0.05032474  0.00000000       0.005
   0.10895627  0.06290593  0.00000000       0.005
   0.13074752  0.07548712  0.00000000       0.005
   0.15253877  0.08806830  0.00000000       0.005
   0.17433003  0.10064949  0.00000000       0.005
   0.19612128  0.11323067  0.00000000       0.005
   0.21791253  0.12581186  0.00000000       0.003
   0.02179125  0.03774356  0.00000000       0.005
   0.04358251  0.05032474  0.00000000       0.010
   0.06537376  0.06290593  0.00000000       0.010
   0.08716501  0.07548712  0.00000000       0.010
   0.10895627  0.08806830  0.00000000       0.010
   0.13074752  0.10064949  0.00000000       0.010
   0.15253877  0.11323067  0.00000000       0.010
   0.17433003  0.12581186  0.00000000       0.010
   0.19612128  0.13839305  0.00000000       0.010
   0.04358251  0.07548712  0.00000000       0.005
   0.06537376  0.08806830  0.00000000       0.010
   0.08716501  0.10064949  0.00000000       0.010
   0.10895627  0.11323067  0.00000000       0.010
   0.13074752  0.12581186  0.00000000       0.010
   0.15253877  0.13839305  0.00000000       0.010
   0.17433003  0.15097423  0.00000000       0.010
   0.19612128  0.16355542  0.00000000       0.005
   0.06537376  0.11323067  0.00000000       0.005
   0.08716501  0.12581186  0.00000000       0.010
   0.10895627  0.13839305  0.00000000       0.010
   0.13074752  0.15097423  0.00000000       0.010
   0.15253877  0.16355542  0.00000000       0.010
   0.17433003  0.17613660  0.00000000       0.010
   0.08716501  0.15097423  0.00000000       0.005
   0.10895627  0.16355542  0.00000000       0.010
   0.13074752  0.17613660  0.00000000       0.010
   0.15253877  0.18871779  0.00000000       0.010
   0.17433003  0.20129898  0.00000000       0.005
   0.10895627  0.18871779  0.00000000       0.005
   0.13074752  0.20129898  0.00000000       0.010
   0.15253877  0.21388016  0.00000000       0.010
   0.13074752  0.22646135  0.00000000       0.005
   0.15253877  0.23904253  0.00000000       0.005
   0.00000000  0.00000000  0.02083333       0.002
   0.02179125  0.01258119  0.02083333       0.005
   0.00000000  0.02516237  0.02083333       0.005
   0.04358251  0.02516237  0.02083333       0.005
   0.00000000  0.05032474  0.02083333       0.005
   0.06537376  0.03774356  0.02083333       0.005
   0.00000000  0.07548712  0.02083333       0.005
   0.08716501  0.05032474  0.02083333       0.005
   0.00000000  0.10064949  0.02083333       0.005
   0.10895627  0.06290593  0.02083333       0.005
   0.00000000  0.12581186  0.02083333       0.005
   0.13074752  0.07548712  0.02083333       0.005
   0.00000000  0.15097423  0.02083333       0.005
   0.15253877  0.08806830  0.02083333       0.005
   0.00000000  0.17613660  0.02083333       0.005
   0.17433003  0.10064949  0.02083333       0.005
   0.00000000  0.20129898  0.02083333       0.005
   0.19612128  0.11323067  0.02083333       0.005
   0.00000000  0.22646135  0.02083333       0.005
   0.21791253  0.12581186  0.02083333       0.005
   0.02179125  0.03774356  0.02083333       0.010
   0.04358251  0.05032474  0.02083333       0.010
  -0.02179125  0.06290593  0.02083333       0.010
   0.06537376  0.06290593  0.02083333       0.010
  -0.02179125  0.08806830  0.02083333       0.010
   0.08716501  0.07548712  0.02083333       0.010
  -0.02179125  0.11323067  0.02083333       0.010
   0.10895627  0.08806830  0.02083333       0.010
  -0.02179125  0.13839305  0.02083333       0.010
   0.13074752  0.10064949  0.02083333       0.010
  -0.02179125  0.16355542  0.02083333       0.010
   0.15253877  0.11323067  0.02083333       0.010
  -0.02179125  0.18871779  0.02083333       0.010
   0.17433003  0.12581186  0.02083333       0.010
  -0.02179125  0.21388016  0.02083333       0.010
   0.19612128  0.13839305  0.02083333       0.010
  -0.02179125  0.23904253  0.02083333       0.010
   0.04358251  0.07548712  0.02083333       0.010
   0.06537376  0.08806830  0.02083333       0.010
  -0.04358251  0.10064949  0.02083333       0.010
   0.08716501  0.10064949  0.02083333       0.010
  -0.04358251  0.12581186  0.02083333       0.010
   0.10895627  0.11323067  0.02083333       0.010
  -0.04358251  0.15097423  0.02083333       0.010
   0.13074752  0.12581186  0.02083333       0.010
  -0.04358251  0.17613660  0.02083333       0.010
   0.15253877  0.13839305  0.02083333       0.010
  -0.04358251  0.20129898  0.02083333       0.010
   0.17433003  0.15097423  0.02083333       0.010
  -0.04358251  0.22646135  0.02083333       0.010
   0.19612128  0.16355542  0.02083333       0.010
   0.06537376  0.11323067  0.02083333       0.010
   0.08716501  0.12581186  0.02083333       0.010
  -0.06537376  0.13839305  0.02083333       0.010
   0.10895627  0.13839305  0.02083333       0.010
  -0.06537376  0.16355542  0.02083333       0.010
   0.13074752  0.15097423  0.02083333       0.010
  -0.06537376  0.18871779  0.02083333       0.010
   0.15253877  0.16355542  0.02083333       0.010
  -0.06537376  0.21388016  0.02083333       0.010
   0.17433003  0.17613660  0.02083333       0.010
  -0.06537376 -0.26420490  0.02083333       0.010
   0.08716501  0.15097423  0.02083333       0.010
   0.10895627  0.16355542  0.02083333       0.010
  -0.08716501  0.17613660  0.02083333       0.010
   0.13074752  0.17613660  0.02083333       0.010
  -0.08716501  0.20129898  0.02083333       0.010
   0.15253877  0.18871779  0.02083333       0.010
  -0.08716501 -0.27678609  0.02083333       0.010
   0.17433003  0.20129898  0.02083333       0.010
   0.10895627  0.18871779  0.02083333       0.010
   0.13074752  0.20129898  0.02083333       0.010
  -0.10895627 -0.28936728  0.02083333       0.010
   0.15253877  0.21388016  0.02083333       0.010
  -0.10895627 -0.26420490  0.02083333       0.010
   0.13074752  0.22646135  0.02083333       0.010
   0.15253877  0.23904253  0.02083333       0.010
 
 k-points in reciprocal lattice and weights: Fully automatic mesh                    
   0.00000000  0.00000000  0.00000000       0.001
   0.05000000 -0.00000000  0.00000000       0.005
   0.10000000 -0.00000000  0.00000000       0.005
   0.15000000 -0.00000000  0.00000000       0.005
   0.20000000 -0.00000000  0.00000000       0.005
   0.25000000  0.00000000  0.00000000       0.005
   0.30000000 -0.00000000  0.00000000       0.005
   0.35000000 -0.00000000  0.00000000       0.005
   0.40000000 -0.00000000  0.00000000       0.005
   0.45000000 -0.00000000  0.00000000       0.005
   0.50000000  0.00000000  0.00000000       0.003
   0.05000000  0.05000000  0.00000000       0.005
   0.10000000  0.05000000  0.00000000       0.010
   0.15000000  0.05000000  0.00000000       0.010
   0.20000000  0.05000000  0.00000000       0.010
   0.25000000  0.05000000  0.00000000       0.010
   0.30000000  0.05000000  0.00000000       0.010
   0.35000000  0.05000000  0.00000000       0.010
   0.40000000  0.05000000  0.00000000       0.010
   0.45000000  0.05000000  0.00000000       0.010
   0.10000000  0.10000000  0.00000000       0.005
   0.15000000  0.10000000  0.00000000       0.010
   0.20000000  0.10000000  0.00000000       0.010
   0.25000000  0.10000000  0.00000000       0.010
   0.30000000  0.10000000  0.00000000       0.010
   0.35000000  0.10000000  0.00000000       0.010
   0.40000000  0.10000000  0.00000000       0.010
   0.45000000  0.10000000  0.00000000       0.005
   0.15000000  0.15000000  0.00000000       0.005
   0.20000000  0.15000000  0.00000000       0.010
   0.25000000  0.15000000  0.00000000       0.010
   0.30000000  0.15000000  0.00000000       0.010
   0.35000000  0.15000000  0.00000000       0.010
   0.40000000  0.15000000  0.00000000       0.010
   0.20000000  0.20000000  0.00000000       0.005
   0.25000000  0.20000000  0.00000000       0.010
   0.30000000  0.20000000  0.00000000       0.010
   0.35000000  0.20000000  0.00000000       0.010
   0.40000000  0.20000000  0.00000000       0.005
   0.25000000  0.25000000  0.00000000       0.005
   0.30000000  0.25000000  0.00000000       0.010
   0.35000000  0.25000000  0.00000000       0.010
   0.30000000  0.30000000  0.00000000       0.005
   0.35000000  0.30000000  0.00000000       0.005
   0.00000000  0.00000000  0.33333333       0.002
   0.05000000 -0.00000000  0.33333333       0.005
   0.00000000  0.05000000  0.33333333       0.005
   0.10000000 -0.00000000  0.33333333       0.005
   0.00000000  0.10000000  0.33333333       0.005
   0.15000000 -0.00000000  0.33333333       0.005
   0.00000000  0.15000000  0.33333333       0.005
   0.20000000 -0.00000000  0.33333333       0.005
   0.00000000  0.20000000  0.33333333       0.005
   0.25000000  0.00000000  0.33333333       0.005
   0.00000000  0.25000000  0.33333333       0.005
   0.30000000 -0.00000000  0.33333333       0.005
   0.00000000  0.30000000  0.33333333       0.005
   0.35000000 -0.00000000  0.33333333       0.005
   0.00000000  0.35000000  0.33333333       0.005
   0.40000000 -0.00000000  0.33333333       0.005
   0.00000000  0.40000000  0.33333333       0.005
   0.45000000 -0.00000000  0.33333333       0.005
   0.00000000  0.45000000  0.33333333       0.005
   0.50000000  0.00000000  0.33333333       0.005
   0.05000000  0.05000000  0.33333333       0.010
   0.10000000  0.05000000  0.33333333       0.010
  -0.05000000  0.15000000  0.33333333       0.010
   0.15000000  0.05000000  0.33333333       0.010
  -0.05000000  0.20000000  0.33333333       0.010
   0.20000000  0.05000000  0.33333333       0.010
  -0.05000000  0.25000000  0.33333333       0.010
   0.25000000  0.05000000  0.33333333       0.010
  -0.05000000  0.30000000  0.33333333       0.010
   0.30000000  0.05000000  0.33333333       0.010
  -0.05000000  0.35000000  0.33333333       0.010
   0.35000000  0.05000000  0.33333333       0.010
  -0.05000000  0.40000000  0.33333333       0.010
   0.40000000  0.05000000  0.33333333       0.010
  -0.05000000  0.45000000  0.33333333       0.010
   0.45000000  0.05000000  0.33333333       0.010
  -0.05000000  0.50000000  0.33333333       0.010
   0.10000000  0.10000000  0.33333333       0.010
   0.15000000  0.10000000  0.33333333       0.010
  -0.10000000  0.25000000  0.33333333       0.010
   0.20000000  0.10000000  0.33333333       0.010
  -0.10000000  0.30000000  0.33333333       0.010
   0.25000000  0.10000000  0.33333333       0.010
  -0.10000000  0.35000000  0.33333333       0.010
   0.30000000  0.10000000  0.33333333       0.010
  -0.10000000  0.40000000  0.33333333       0.010
   0.35000000  0.10000000  0.33333333       0.010
  -0.10000000  0.45000000  0.33333333       0.010
   0.40000000  0.10000000  0.33333333       0.010
  -0.10000000  0.50000000  0.33333333       0.010
   0.45000000  0.10000000  0.33333333       0.010
   0.15000000  0.15000000  0.33333333       0.010
   0.20000000  0.15000000  0.33333333       0.010
  -0.15000000  0.35000000  0.33333333       0.010
   0.25000000  0.15000000  0.33333333       0.010
  -0.15000000  0.40000000  0.33333333       0.010
   0.30000000  0.15000000  0.33333333       0.010
  -0.15000000  0.45000000  0.33333333       0.010
   0.35000000  0.15000000  0.33333333       0.010
  -0.15000000  0.50000000  0.33333333       0.010
   0.40000000  0.15000000  0.33333333       0.010
  -0.15000000 -0.45000000  0.33333333       0.010
   0.20000000  0.20000000  0.33333333       0.010
   0.25000000  0.20000000  0.33333333       0.010
  -0.20000000  0.45000000  0.33333333       0.010
   0.30000000  0.20000000  0.33333333       0.010
  -0.20000000  0.50000000  0.33333333       0.010
   0.35000000  0.20000000  0.33333333       0.010
  -0.20000000 -0.45000000  0.33333333       0.010
   0.40000000  0.20000000  0.33333333       0.010
   0.25000000  0.25000000  0.33333333       0.010
   0.30000000  0.25000000  0.33333333       0.010
  -0.25000000 -0.45000000  0.33333333       0.010
   0.35000000  0.25000000  0.33333333       0.010
  -0.25000000 -0.40000000  0.33333333       0.010
   0.30000000  0.30000000  0.33333333       0.010
   0.35000000  0.30000000  0.33333333       0.010
 
 position of ions in fractional coordinates (direct lattice) 
   0.66666667  0.33333333  0.47822185
   0.33333333  0.66666667  0.52177815
 
 position of ions in cartesian coordinates  (Angst):
   1.14724930  0.66236469  7.65154966
   0.00000000  1.32472938  8.34845034
 


--------------------------------------------------------------------------------------------------------


 k-point   1 :   0.0000 0.0000 0.0000  plane waves:    4143
 k-point   2 :   0.0500-0.0000 0.0000  plane waves:    4133
 k-point   3 :   0.1000-0.0000 0.0000  plane waves:    4107
 k-point   4 :   0.1500-0.0000 0.0000  plane waves:    4081
 k-point   5 :   0.2000-0.0000 0.0000  plane waves:    4079
 k-point   6 :   0.2500 0.0000 0.0000  plane waves:    4063
 k-point   7 :   0.3000-0.0000 0.0000  plane waves:    4054
 k-point   8 :   0.3500-0.0000 0.0000  plane waves:    4040
 k-point   9 :   0.4000-0.0000 0.0000  plane waves:    4014
 k-point  10 :   0.4500-0.0000 0.0000  plane waves:    4008
 k-point  11 :   0.5000 0.0000 0.0000  plane waves:    4016
 k-point  12 :   0.0500 0.0500 0.0000  plane waves:    4101
 k-point  13 :   0.1000 0.0500 0.0000  plane waves:    4082
 k-point  14 :   0.1500 0.0500 0.0000  plane waves:    4080
 k-point  15 :   0.2000 0.0500 0.0000  plane waves:    4060
 k-point  16 :   0.2500 0.0500 0.0000  plane waves:    4052
 k-point  17 :   0.3000 0.0500 0.0000  plane waves:    4043
 k-point  18 :   0.3500 0.0500 0.0000  plane waves:    4028
 k-point  19 :   0.4000 0.0500 0.0000  plane waves:    4010
 k-point  20 :   0.4500 0.0500 0.0000  plane waves:    4012
 k-point  21 :   0.1000 0.1000 0.0000  plane waves:    4073
 k-point  22 :   0.1500 0.1000 0.0000  plane waves:    4063
 k-point  23 :   0.2000 0.1000 0.0000  plane waves:    4061
 k-point  24 :   0.2500 0.1000 0.0000  plane waves:    4051
 k-point  25 :   0.3000 0.1000 0.0000  plane waves:    4040
 k-point  26 :   0.3500 0.1000 0.0000  plane waves:    4031
 k-point  27 :   0.4000 0.1000 0.0000  plane waves:    4022
 k-point  28 :   0.4500 0.1000 0.0000  plane waves:    4018
 k-point  29 :   0.1500 0.1500 0.0000  plane waves:    4061
 k-point  30 :   0.2000 0.1500 0.0000  plane waves:    4061
 k-point  31 :   0.2500 0.1500 0.0000  plane waves:    4040
 k-point  32 :   0.3000 0.1500 0.0000  plane waves:    4035
 k-point  33 :   0.3500 0.1500 0.0000  plane waves:    4025
 k-point  34 :   0.4000 0.1500 0.0000  plane waves:    4033
 k-point  35 :   0.2000 0.2000 0.0000  plane waves:    4023
 k-point  36 :   0.2500 0.2000 0.0000  plane waves:    4037
 k-point  37 :   0.3000 0.2000 0.0000  plane waves:    4040
 k-point  38 :   0.3500 0.2000 0.0000  plane waves:    4027
 k-point  39 :   0.4000 0.2000 0.0000  plane waves:    4040
 k-point  40 :   0.2500 0.2500 0.0000  plane waves:    4043
 k-point  41 :   0.3000 0.2500 0.0000  plane waves:    4044
 k-point  42 :   0.3500 0.2500 0.0000  plane waves:    4034
 k-point  43 :   0.3000 0.3000 0.0000  plane waves:    4020
 k-point  44 :   0.3500 0.3000 0.0000  plane waves:    4014
 k-point  45 :   0.0000 0.0000 0.3333  plane waves:    4102
 k-point  46 :   0.0500-0.0000 0.3333  plane waves:    4115
 k-point  47 :   0.0000 0.0500 0.3333  plane waves:    4115
 k-point  48 :   0.1000-0.0000 0.3333  plane waves:    4111
 k-point  49 :   0.0000 0.1000 0.3333  plane waves:    4111
 k-point  50 :   0.1500-0.0000 0.3333  plane waves:    4089
 k-point  51 :   0.0000 0.1500 0.3333  plane waves:    4089
 k-point  52 :   0.2000-0.0000 0.3333  plane waves:    4073
 k-point  53 :   0.0000 0.2000 0.3333  plane waves:    4073
 k-point  54 :   0.2500 0.0000 0.3333  plane waves:    4065
 k-point  55 :   0.0000 0.2500 0.3333  plane waves:    4065
 k-point  56 :   0.3000-0.0000 0.3333  plane waves:    4049
 k-point  57 :   0.0000 0.3000 0.3333  plane waves:    4049
 k-point  58 :   0.3500-0.0000 0.3333  plane waves:    4037
 k-point  59 :   0.0000 0.3500 0.3333  plane waves:    4037
 k-point  60 :   0.4000-0.0000 0.3333  plane waves:    4017
 k-point  61 :   0.0000 0.4000 0.3333  plane waves:    4017
 k-point  62 :   0.4500-0.0000 0.3333  plane waves:    4008
 k-point  63 :   0.0000 0.4500 0.3333  plane waves:    4008
 k-point  64 :   0.5000 0.0000 0.3333  plane waves:    4000
 k-point  65 :   0.0500 0.0500 0.3333  plane waves:    4115
 k-point  66 :   0.1000 0.0500 0.3333  plane waves:    4089
 k-point  67 :  -0.0500 0.1500 0.3333  plane waves:    4089
 k-point  68 :   0.1500 0.0500 0.3333  plane waves:    4077
 k-point  69 :  -0.0500 0.2000 0.3333  plane waves:    4077
 k-point  70 :   0.2000 0.0500 0.3333  plane waves:    4062
 k-point  71 :  -0.0500 0.2500 0.3333  plane waves:    4062
 k-point  72 :   0.2500 0.0500 0.3333  plane waves:    4054
 k-point  73 :  -0.0500 0.3000 0.3333  plane waves:    4054
 k-point  74 :   0.3000 0.0500 0.3333  plane waves:    4048
 k-point  75 :  -0.0500 0.3500 0.3333  plane waves:    4048
 k-point  76 :   0.3500 0.0500 0.3333  plane waves:    4031
 k-point  77 :  -0.0500 0.4000 0.3333  plane waves:    4031
 k-point  78 :   0.4000 0.0500 0.3333  plane waves:    4016
 k-point  79 :  -0.0500 0.4500 0.3333  plane waves:    4016
 k-point  80 :   0.4500 0.0500 0.3333  plane waves:    4007
 k-point  81 :  -0.0500 0.5000 0.3333  plane waves:    4007
 k-point  82 :   0.1000 0.1000 0.3333  plane waves:    4075
 k-point  83 :   0.1500 0.1000 0.3333  plane waves:    4074
 k-point  84 :  -0.1000 0.2500 0.3333  plane waves:    4074
 k-point  85 :   0.2000 0.1000 0.3333  plane waves:    4064
 k-point  86 :  -0.1000 0.3000 0.3333  plane waves:    4064
 k-point  87 :   0.2500 0.1000 0.3333  plane waves:    4049
 k-point  88 :  -0.1000 0.3500 0.3333  plane waves:    4049
 k-point  89 :   0.3000 0.1000 0.3333  plane waves:    4032
 k-point  90 :  -0.1000 0.4000 0.3333  plane waves:    4032
 k-point  91 :   0.3500 0.1000 0.3333  plane waves:    4024
 k-point  92 :  -0.1000 0.4500 0.3333  plane waves:    4024
 k-point  93 :   0.4000 0.1000 0.3333  plane waves:    4019
 k-point  94 :  -0.1000 0.5000 0.3333  plane waves:    4019
 k-point  95 :   0.4500 0.1000 0.3333  plane waves:    4016
 k-point  96 :   0.1500 0.1500 0.3333  plane waves:    4064
 k-point  97 :   0.2000 0.1500 0.3333  plane waves:    4057
 k-point  98 :  -0.1500 0.3500 0.3333  plane waves:    4057
 k-point  99 :   0.2500 0.1500 0.3333  plane waves:    4034
 k-point 100 :  -0.1500 0.4000 0.3333  plane waves:    4034
 k-point 101 :   0.3000 0.1500 0.3333  plane waves:    4032
 k-point 102 :  -0.1500 0.4500 0.3333  plane waves:    4032
 k-point 103 :   0.3500 0.1500 0.3333  plane waves:    4029
 k-point 104 :  -0.1500 0.5000 0.3333  plane waves:    4029
 k-point 105 :   0.4000 0.1500 0.3333  plane waves:    4027
 k-point 106 :  -0.1500-0.4500 0.3333  plane waves:    4027
 k-point 107 :   0.2000 0.2000 0.3333  plane waves:    4034
 k-point 108 :   0.2500 0.2000 0.3333  plane waves:    4044
 k-point 109 :  -0.2000 0.4500 0.3333  plane waves:    4044
 k-point 110 :   0.3000 0.2000 0.3333  plane waves:    4040
 k-point 111 :  -0.2000 0.5000 0.3333  plane waves:    4040
 k-point 112 :   0.3500 0.2000 0.3333  plane waves:    4033
 k-point 113 :  -0.2000-0.4500 0.3333  plane waves:    4033
 k-point 114 :   0.4000 0.2000 0.3333  plane waves:    4037
 k-point 115 :   0.2500 0.2500 0.3333  plane waves:    4044
 k-point 116 :   0.3000 0.2500 0.3333  plane waves:    4030
 k-point 117 :  -0.2500-0.4500 0.3333  plane waves:    4030
 k-point 118 :   0.3500 0.2500 0.3333  plane waves:    4032
 k-point 119 :  -0.2500-0.4000 0.3333  plane waves:    4032
 k-point 120 :   0.3000 0.3000 0.3333  plane waves:    4035
 k-point 121 :   0.3500 0.3000 0.3333  plane waves:    4033

 maximum and minimum number of plane-waves per node :      1047      989

 maximum number of plane-waves:      4143
 maximum index in each direction: 
   IXMAX=    5   IYMAX=    5   IZMAX=   37
   IXMIN=   -5   IYMIN=   -5   IZMIN=  -38


 parallel 3D FFT for wavefunctions:
    minimum data exchange during FFTs selected (reduces bandwidth)
 parallel 3D FFT for charge:
    minimum data exchange during FFTs selected (reduces bandwidth)


 total amount of memory used by VASP MPI-rank0    54731. kBytes
=======================================================================

   base      :      30000. kBytes
   nonl-proj :       8087. kBytes
   fftplans  :       7411. kBytes
   grid      :       3144. kBytes
   one-center:          3. kBytes
   wavefun   :       6086. kBytes
 
     INWAV:  cpu time      0.0001: real time      0.0001
 Broyden mixing: mesh for mixing (old mesh)
   NGX = 11   NGY = 11   NGZ = 75
  (NGX  = 48   NGY  = 48   NGZ  =320)
  gives a total of   9075 points

 initial charge density was supplied:
 charge density of overlapping atoms calculated
 number of electron      10.0000000 magnetization 
 keeping initial charge density in first step


--------------------------------------------------------------------------------------------------------


 Maximum index for augmentation-charges         4361 (set IRDMAX)


--------------------------------------------------------------------------------------------------------


 First call to EWALD:  gamma=   0.424
 Maximum number of real-space cells 5x 5x 1
 Maximum number of reciprocal cells 2x 2x 9

    FEWALD:  cpu time      0.0010: real time      0.0011


--------------------------------------- Ionic step        1  -------------------------------------------




--------------------------------------- Iteration      1(   1)  ---------------------------------------


    POTLOK:  cpu time      0.0239: real time      0.1232
    SETDIJ:  cpu time      0.0643: real time      0.0644
     EDDAV:  cpu time      0.9941: real time      0.9955
       DOS:  cpu time      0.0015: real time      0.0015
    --------------------------------------------
      LOOP:  cpu time      1.0839: real time      1.1846

 eigenvalue-minimisations  :  2904
 total energy-change (2. order) : 0.1099810E+03  (-0.5255707E+03)
 number of electron      10.0000000 magnetization 
 augmentation part       10.0000000 magnetization 

 Free energy of the ion-electron system (eV)
  ---------------------------------------------------
  alpha Z        PSCENC =         5.96913924
  Ewald energy   TEWEN  =      1610.65328944
  -Hartree energ DENC   =     -2055.25523171
  -exchange      EXHF   =         0.00000000
  -V(xc)+E(xc)   XCENC  =        40.24275595
  PAW double counting   =       409.78799272     -412.24743296
  entropy T*S    EENTRO =        -0.00005951
  eigenvalues    EBANDS =       -18.26274502
  atomic energy  EATOM  =       529.09328782
  Solvation  Ediel_sol  =         0.00000000
  ---------------------------------------------------
  free energy    TOTEN  =       109.98099596 eV

  energy without entropy =      109.98105547  energy(sigma->0) =      109.98102571


--------------------------------------------------------------------------------------------------------




--------------------------------------- Iteration      1(   2)  ---------------------------------------


     EDDAV:  cpu time      1.2881: real time      1.2899
       DOS:  cpu time      0.0023: real time      0.0023
    --------------------------------------------
      LOOP:  cpu time      1.2904: real time      1.2922

 eigenvalue-minimisations  :  4452
 total energy-change (2. order) :-0.1137185E+03  (-0.9203291E+02)
 number of electron      10.0000000 magnetization 
 augmentation part       10.0000000 magnetization 

 Free energy of the ion-electron system (eV)
  ---------------------------------------------------
  alpha Z        PSCENC =         5.96913924
  Ewald energy   TEWEN  =      1610.65328944
  -Hartree energ DENC   =     -2055.25523171
  -exchange      EXHF   =         0.00000000
  -V(xc)+E(xc)   XCENC  =        40.24275595
  PAW double counting   =       409.78799272     -412.24743296
  entropy T*S    EENTRO =        -0.00002748
  eigenvalues    EBANDS =      -131.98126946
  atomic energy  EATOM  =       529.09328782
  Solvation  Ediel_sol  =         0.00000000
  ---------------------------------------------------
  free energy    TOTEN  =        -3.73749645 eV

  energy without entropy =       -3.73746897  energy(sigma->0) =       -3.73748271


--------------------------------------------------------------------------------------------------------




--------------------------------------- Iteration      1(   3)  ---------------------------------------


     EDDAV:  cpu time      1.2158: real time      1.2175
       DOS:  cpu time      0.0010: real time      0.0010
    --------------------------------------------
      LOOP:  cpu time      1.2168: real time      1.2185

 eigenvalue-minimisations  :  4220
 total energy-change (2. order) :-0.1015607E+02  (-0.9938294E+01)
 number of electron      10.0000000 magnetization 
 augmentation part       10.0000000 magnetization 

 Free energy of the ion-electron system (eV)
  ---------------------------------------------------
  alpha Z        PSCENC =         5.96913924
  Ewald energy   TEWEN  =      1610.65328944
  -Hartree energ DENC   =     -2055.25523171
  -exchange      EXHF   =         0.00000000
  -V(xc)+E(xc)   XCENC  =        40.24275595
  PAW double counting   =       409.78799272     -412.24743296
  entropy T*S    EENTRO =        -0.00000000
  eigenvalues    EBANDS =      -142.13737076
  atomic energy  EATOM  =       529.09328782
  Solvation  Ediel_sol  =         0.00000000
  ---------------------------------------------------
  free energy    TOTEN  =       -13.89357027 eV

  energy without entropy =      -13.89357027  energy(sigma->0) =      -13.89357027


--------------------------------------------------------------------------------------------------------




--------------------------------------- Iteration      1(   4)  ---------------------------------------


     EDDAV:  cpu time      1.1694: real time      1.1711
       DOS:  cpu time      0.0010: real time      0.0010
    --------------------------------------------
      LOOP:  cpu time      1.1705: real time      1.1722

 eigenvalue-minimisations  :  4008
 total energy-change (2. order) :-0.1605649E+00  (-0.1600073E+00)
 number of electron      10.0000000 magnetization 
 augmentation part       10.0000000 magnetization 

 Free energy of the ion-electron system (eV)
  ---------------------------------------------------
  alpha Z        PSCENC =         5.96913924
  Ewald energy   TEWEN  =      1610.65328944
  -Hartree energ DENC   =     -2055.25523171
  -exchange      EXHF   =         0.00000000
  -V(xc)+E(xc)   XCENC  =        40.24275595
  PAW double counting   =       409.78799272     -412.24743296
  entropy T*S    EENTRO =        -0.00000000
  eigenvalues    EBANDS =      -142.29793562
  atomic energy  EATOM  =       529.09328782
  Solvation  Ediel_sol  =         0.00000000
  ---------------------------------------------------
  free energy    TOTEN  =       -14.05413513 eV

  energy without entropy =      -14.05413513  energy(sigma->0) =      -14.05413513


--------------------------------------------------------------------------------------------------------




--------------------------------------- Iteration      1(   5)  ---------------------------------------


     EDDAV:  cpu time      1.1686: real time      1.1703
       DOS:  cpu time      0.0010: real time      0.0010
    --------------------------------------------
      LOOP:  cpu time      1.1697: real time      1.1713

 eigenvalue-minimisations  :  3984
 total energy-change (2. order) :-0.3023595E-02  (-0.3023061E-02)
 number of electron      10.0000000 magnetization 
 augmentation part       10.0000000 magnetization 

 Free energy of the ion-electron system (eV)
  ---------------------------------------------------
  alpha Z        PSCENC =         5.96913924
  Ewald energy   TEWEN  =      1610.65328944
  -Hartree energ DENC   =     -2055.25523171
  -exchange      EXHF   =         0.00000000
  -V(xc)+E(xc)   XCENC  =        40.24275595
  PAW double counting   =       409.78799272     -412.24743296
  entropy T*S    EENTRO =        -0.00000000
  eigenvalues    EBANDS =      -142.30095922
  atomic energy  EATOM  =       529.09328782
  Solvation  Ediel_sol  =         0.00000000
  ---------------------------------------------------
  free energy    TOTEN  =       -14.05715873 eV

  energy without entropy =      -14.05715873  energy(sigma->0) =      -14.05715873


--------------------------------------------------------------------------------------------------------




--------------------------------------- Iteration      1(   6)  ---------------------------------------


     EDDAV:  cpu time      1.2402: real time      1.2419
       DOS:  cpu time      0.0011: real time      0.0011
    --------------------------------------------
      LOOP:  cpu time      1.2412: real time      1.2429

 eigenvalue-minimisations  :  4272
 total energy-change (2. order) :-0.2434957E-04  (-0.2434916E-04)
 number of electron      10.0000000 magnetization 
 augmentation part       10.0000000 magnetization 

 Free energy of the ion-electron system (eV)
  ---------------------------------------------------
  alpha Z        PSCENC =         5.96913924
  Ewald energy   TEWEN  =      1610.65328944
  -Hartree energ DENC   =     -2055.25523171
  -exchange      EXHF   =         0.00000000
  -V(xc)+E(xc)   XCENC  =        40.24275595
  PAW double counting   =       409.78799272     -412.24743296
  entropy T*S    EENTRO =        -0.00000000
  eigenvalues    EBANDS =      -142.30098357
  atomic energy  EATOM  =       529.09328782
  Solvation  Ediel_sol  =         0.00000000
  ---------------------------------------------------
  free energy    TOTEN  =       -14.05718308 eV

  energy without entropy =      -14.05718308  energy(sigma->0) =      -14.05718308


--------------------------------------------------------------------------------------------------------




--------------------------------------- Iteration      1(   7)  ---------------------------------------


     EDDAV:  cpu time      1.2595: real time      1.2613
       DOS:  cpu time      0.0010: real time      0.0010
    --------------------------------------------
      LOOP:  cpu time      1.2605: real time      1.2623

 eigenvalue-minimisations  :  4440
 total energy-change (2. order) :-0.9714438E-07  (-0.9714058E-07)
 number of electron      10.0000000 magnetization 
 augmentation part       10.0000000 magnetization 

 Free energy of the ion-electron system (eV)
  ---------------------------------------------------
  alpha Z        PSCENC =         5.96913924
  Ewald energy   TEWEN  =      1610.65328944
  -Hartree energ DENC   =     -2055.25523171
  -exchange      EXHF   =         0.00000000
  -V(xc)+E(xc)   XCENC  =        40.24275595
  PAW double counting   =       409.78799272     -412.24743296
  entropy T*S    EENTRO =        -0.00000000
  eigenvalues    EBANDS =      -142.30098367
  atomic energy  EATOM  =       529.09328782
  Solvation  Ediel_sol  =         0.00000000
  ---------------------------------------------------
  free energy    TOTEN  =       -14.05718317 eV

  energy without entropy =      -14.05718317  energy(sigma->0) =      -14.05718317


--------------------------------------------------------------------------------------------------------




--------------------------------------- Iteration      1(   8)  ---------------------------------------


     EDDAV:  cpu time      1.1316: real time      1.1333
       DOS:  cpu time      0.0010: real time      0.0010
    --------------------------------------------
      LOOP:  cpu time      1.1326: real time      1.1343

 eigenvalue-minimisations  :  3836
 total energy-change (2. order) :-0.2535216E-09  (-0.2794583E-09)
 number of electron      10.0000000 magnetization 
 augmentation part       10.0000000 magnetization 

 Free energy of the ion-electron system (eV)
  ---------------------------------------------------
  alpha Z        PSCENC =         5.96913924
  Ewald energy   TEWEN  =      1610.65328944
  -Hartree energ DENC   =     -2055.25523171
  -exchange      EXHF   =         0.00000000
  -V(xc)+E(xc)   XCENC  =        40.24275595
  PAW double counting   =       409.78799272     -412.24743296
  entropy T*S    EENTRO =        -0.00000000
  eigenvalues    EBANDS =      -142.30098367
  atomic energy  EATOM  =       529.09328782
  Solvation  Ediel_sol  =         0.00000000
  ---------------------------------------------------
  free energy    TOTEN  =       -14.05718317 eV

  energy without entropy =      -14.05718317  energy(sigma->0) =      -14.05718317


--------------------------------------------------------------------------------------------------------




--------------------------------------- Iteration      1(   9)  ---------------------------------------


     EDDAV:  cpu time      0.8606: real time      0.8618
       DOS:  cpu time      0.0014: real time      0.0168
    --------------------------------------------
      LOOP:  cpu time      0.8620: real time      0.8786

 eigenvalue-minimisations  :  2492
 total energy-change (2. order) : 0.9094947E-12  (-0.2640600E-11)
 number of electron      10.0000000 magnetization 
 augmentation part       10.0000000 magnetization 

 Free energy of the ion-electron system (eV)
  ---------------------------------------------------
  alpha Z        PSCENC =         5.96913924
  Ewald energy   TEWEN  =      1610.65328944
  -Hartree energ DENC   =     -2055.25523171
  -exchange      EXHF   =         0.00000000
  -V(xc)+E(xc)   XCENC  =        40.24275595
  PAW double counting   =       409.78799272     -412.24743296
  entropy T*S    EENTRO =        -0.00000000
  eigenvalues    EBANDS =      -142.30098367
  atomic energy  EATOM  =       529.09328782
  Solvation  Ediel_sol  =         0.00000000
  ---------------------------------------------------
  free energy    TOTEN  =       -14.05718317 eV

  energy without entropy =      -14.05718317  energy(sigma->0) =      -14.05718317


--------------------------------------------------------------------------------------------------------




--------------------------------------- Iteration      1(  10)  ---------------------------------------


     EDDAV:  cpu time      0.7141: real time      0.7151
       DOS:  cpu time      0.0011: real time      0.0010
    --------------------------------------------
      LOOP:  cpu time      0.7152: real time      0.7162

 eigenvalue-minimisations  :  1776
 total energy-change (2. order) : 0.7958079E-12  ( 0.1840602E-13)
 number of electron      10.0000000 magnetization 
 augmentation part       10.0000000 magnetization 

 Free energy of the ion-electron system (eV)
  ---------------------------------------------------
  alpha Z        PSCENC =         5.96913924
  Ewald energy   TEWEN  =      1610.65328944
  -Hartree energ DENC   =     -2055.25523171
  -exchange      EXHF   =         0.00000000
  -V(xc)+E(xc)   XCENC  =        40.24275595
  PAW double counting   =       409.78799272     -412.24743296
  entropy T*S    EENTRO =        -0.00000000
  eigenvalues    EBANDS =      -142.30098367
  atomic energy  EATOM  =       529.09328782
  Solvation  Ediel_sol  =         0.00000000
  ---------------------------------------------------
  free energy    TOTEN  =       -14.05718317 eV

  energy without entropy =      -14.05718317  energy(sigma->0) =      -14.05718317


--------------------------------------------------------------------------------------------------------




--------------------------------------- Iteration      1(  11)  ---------------------------------------


     EDDAV:  cpu time      0.6796: real time      0.6805
       DOS:  cpu time      0.0010: real time      0.0010
    --------------------------------------------
      LOOP:  cpu time      0.6806: real time      0.6815

 eigenvalue-minimisations  :  1608
 total energy-change (2. order) : 0.2273737E-11  (-0.3243332E-14)
 number of electron      10.0000000 magnetization 
 augmentation part       10.0000000 magnetization 

 Free energy of the ion-electron system (eV)
  ---------------------------------------------------
  alpha Z        PSCENC =         5.96913924
  Ewald energy   TEWEN  =      1610.65328944
  -Hartree energ DENC   =     -2055.25523171
  -exchange      EXHF   =         0.00000000
  -V(xc)+E(xc)   XCENC  =        40.24275595
  PAW double counting   =       409.78799272     -412.24743296
  entropy T*S    EENTRO =        -0.00000000
  eigenvalues    EBANDS =      -142.30098367
  atomic energy  EATOM  =       529.09328782
  Solvation  Ediel_sol  =         0.00000000
  ---------------------------------------------------
  free energy    TOTEN  =       -14.05718317 eV

  energy without entropy =      -14.05718317  energy(sigma->0) =      -14.05718317


--------------------------------------------------------------------------------------------------------




--------------------------------------- Iteration      1(  12)  ---------------------------------------


     EDDAV:  cpu time      0.6784: real time      0.6793
       DOS:  cpu time      0.0010: real time      0.0010
    CHARGE:  cpu time      0.0870: real time      0.0871
    MIXING:  cpu time      0.0022: real time      0.0022
    --------------------------------------------
      LOOP:  cpu time      0.7686: real time      0.7696

 eigenvalue-minimisations  :  1588
 total energy-change (2. order) : 0.2273737E-11  ( 0.3816503E-13)
 number of electron      10.0000000 magnetization 
 augmentation part        0.2269315 magnetization 

 Broyden mixing:
  rms(total) = 0.60754E+00    rms(broyden)= 0.60706E+00
  rms(prec ) = 0.64866E+00
  weight for this iteration     100.00

 Free energy of the ion-electron system (eV)
  ---------------------------------------------------
  alpha Z        PSCENC =         5.96913924
  Ewald energy   TEWEN  =      1610.65328944
  -Hartree energ DENC   =     -2055.25523171
  -exchange      EXHF   =         0.00000000
  -V(xc)+E(xc)   XCENC  =        40.24275595
  PAW double counting   =       409.78799272     -412.24743296
  entropy T*S    EENTRO =        -0.00000000
  eigenvalues    EBANDS =      -142.30098367
  atomic energy  EATOM  =       529.09328782
  Solvation  Ediel_sol  =         0.00000000
  ---------------------------------------------------
  free energy    TOTEN  =       -14.05718317 eV

  energy without entropy =      -14.05718317  energy(sigma->0) =      -14.05718317


--------------------------------------------------------------------------------------------------------




--------------------------------------- Iteration      1(  13)  ---------------------------------------


    POTLOK:  cpu time      0.0206: real time      0.0207
    SETDIJ:  cpu time      0.0626: real time      0.0627
     EDDAV:  cpu time      1.0058: real time      1.0073
       DOS:  cpu time      0.0011: real time      0.0011
    CHARGE:  cpu time      0.0924: real time      0.0925
    MIXING:  cpu time      0.0022: real time      0.0022
    --------------------------------------------
      LOOP:  cpu time      1.1848: real time      1.1864

 eigenvalue-minimisations  :  3236
 total energy-change (2. order) : 0.1672541E+00  (-0.2677010E-02)
 number of electron      10.0000000 magnetization 
 augmentation part        0.2232470 magnetization 

 Broyden mixing:
  rms(total) = 0.53541E+00    rms(broyden)= 0.53539E+00
  rms(prec ) = 0.57150E+00
  weight for this iteration     100.00

 eigenvalues of (default mixing * dielectric matrix)
  average eigenvalue GAMMA=   8.3179
  8.3179

 Free energy of the ion-electron system (eV)
  ---------------------------------------------------
  alpha Z        PSCENC =         5.96913924
  Ewald energy   TEWEN  =      1610.65328944
  -Hartree energ DENC   =     -2054.60897777
  -exchange      EXHF   =         0.00000000
  -V(xc)+E(xc)   XCENC  =        40.31205180
  PAW double counting   =       421.67754963     -424.13107330
  entropy T*S    EENTRO =        -0.00000000
  eigenvalues    EBANDS =      -142.85519594
  atomic energy  EATOM  =       529.09328782
  Solvation  Ediel_sol  =         0.00000000
  ---------------------------------------------------
  free energy    TOTEN  =       -13.88992908 eV

  energy without entropy =      -13.88992908  energy(sigma->0) =      -13.88992908


--------------------------------------------------------------------------------------------------------




--------------------------------------- Iteration      1(  14)  ---------------------------------------


    POTLOK:  cpu time      0.0205: real time      0.0206
    SETDIJ:  cpu time      0.0626: real time      0.0627
     EDDAV:  cpu time      1.0072: real time      1.0085
       DOS:  cpu time      0.0010: real time      0.0011
    CHARGE:  cpu time      0.0877: real time      0.0878
    MIXING:  cpu time      0.0025: real time      0.0025
    --------------------------------------------
      LOOP:  cpu time      1.1815: real time      1.1831

 eigenvalue-minimisations  :  3272
 total energy-change (2. order) : 0.4593640E+00  (-0.1423914E+00)
 number of electron      10.0000000 magnetization 
 augmentation part        0.1975424 magnetization 

 Broyden mixing:
  rms(total) = 0.71008E-01    rms(broyden)= 0.70997E-01
  rms(prec ) = 0.74900E-01
  weight for this iteration     100.00

 eigenvalues of (default mixing * dielectric matrix)
  average eigenvalue GAMMA=   7.7348
  7.7348  7.7348

 Free energy of the ion-electron system (eV)
  ---------------------------------------------------
  alpha Z        PSCENC =         5.96913924
  Ewald energy   TEWEN  =      1610.65328944
  -Hartree energ DENC   =     -2051.01849548
  -exchange      EXHF   =         0.00000000
  -V(xc)+E(xc)   XCENC  =        40.86383287
  PAW double counting   =       515.55619746     -517.93878544
  entropy T*S    EENTRO =        -0.00000000
  eigenvalues    EBANDS =      -146.60903098
  atomic energy  EATOM  =       529.09328782
  Solvation  Ediel_sol  =         0.00000000
  ---------------------------------------------------
  free energy    TOTEN  =       -13.43056508 eV

  energy without entropy =      -13.43056508  energy(sigma->0) =      -13.43056508


--------------------------------------------------------------------------------------------------------




--------------------------------------- Iteration      1(  15)  ---------------------------------------


    POTLOK:  cpu time      0.0205: real time      0.0206
    SETDIJ:  cpu time      0.0630: real time      0.0631
     EDDAV:  cpu time      0.9632: real time      0.9645
       DOS:  cpu time      0.0010: real time      0.0010
    CHARGE:  cpu time      0.0872: real time      0.0873
    MIXING:  cpu time      0.0021: real time      0.0021
    --------------------------------------------
      LOOP:  cpu time      1.1372: real time      1.1387

 eigenvalue-minimisations  :  3076
 total energy-change (2. order) :-0.2181979E-02  (-0.8874075E-02)
 number of electron      10.0000000 magnetization 
 augmentation part        0.2028070 magnetization 

 Broyden mixing:
  rms(total) = 0.43255E-01    rms(broyden)= 0.43254E-01
  rms(prec ) = 0.44879E-01
  weight for this iteration     100.00

 eigenvalues of (default mixing * dielectric matrix)
  average eigenvalue GAMMA=   6.1800
  0.9450  8.7976  8.7976

 Free energy of the ion-electron system (eV)
  ---------------------------------------------------
  alpha Z        PSCENC =         5.96913924
  Ewald energy   TEWEN  =      1610.65328944
  -Hartree energ DENC   =     -2051.68974556
  -exchange      EXHF   =         0.00000000
  -V(xc)+E(xc)   XCENC  =        40.82803687
  PAW double counting   =       517.46201605     -519.86143429
  entropy T*S    EENTRO =        -0.00000000
  eigenvalues    EBANDS =      -145.88733662
  atomic energy  EATOM  =       529.09328782
  Solvation  Ediel_sol  =         0.00000000
  ---------------------------------------------------
  free energy    TOTEN  =       -13.43274706 eV

  energy without entropy =      -13.43274706  energy(sigma->0) =      -13.43274706


--------------------------------------------------------------------------------------------------------




--------------------------------------- Iteration      1(  16)  ---------------------------------------


    POTLOK:  cpu time      0.0208: real time      0.0209
    SETDIJ:  cpu time      0.0627: real time      0.0628
     EDDAV:  cpu time      1.2585: real time      1.2603
       DOS:  cpu time      0.0011: real time      0.0011
    CHARGE:  cpu time      0.0872: real time      0.0873
    MIXING:  cpu time      0.0022: real time      0.0022
    --------------------------------------------
      LOOP:  cpu time      1.4326: real time      1.4346

 eigenvalue-minimisations  :  4408
 total energy-change (2. order) :-0.1253389E-02  (-0.3800223E-03)
 number of electron      10.0000000 magnetization 
 augmentation part        0.2041814 magnetization 

 Broyden mixing:
  rms(total) = 0.11516E-01    rms(broyden)= 0.11515E-01
  rms(prec ) = 0.12810E-01
  weight for this iteration     100.00

 eigenvalues of (default mixing * dielectric matrix)
  average eigenvalue GAMMA=   4.9596
  9.8549  7.3837  0.9853  1.6146

 Free energy of the ion-electron system (eV)
  ---------------------------------------------------
  alpha Z        PSCENC =         5.96913924
  Ewald energy   TEWEN  =      1610.65328944
  -Hartree energ DENC   =     -2052.01091293
  -exchange      EXHF   =         0.00000000
  -V(xc)+E(xc)   XCENC  =        40.83291508
  PAW double counting   =       526.02789199     -528.43676699
  entropy T*S    EENTRO =        -0.00000000
  eigenvalues    EBANDS =      -145.56284409
  atomic energy  EATOM  =       529.09328782
  Solvation  Ediel_sol  =         0.00000000
  ---------------------------------------------------
  free energy    TOTEN  =       -13.43400045 eV

  energy without entropy =      -13.43400045  energy(sigma->0) =      -13.43400045


--------------------------------------------------------------------------------------------------------




--------------------------------------- Iteration      1(  17)  ---------------------------------------


    POTLOK:  cpu time      0.0209: real time      0.0209
    SETDIJ:  cpu time      0.0627: real time      0.0628
     EDDAV:  cpu time      1.1001: real time      1.1016
       DOS:  cpu time      0.0010: real time      0.0010
    CHARGE:  cpu time      0.0859: real time      0.0859
    MIXING:  cpu time      0.0024: real time      0.0024
    --------------------------------------------
      LOOP:  cpu time      1.2729: real time      1.2746

 eigenvalue-minimisations  :  3736
 total energy-change (2. order) : 0.2340371E-03  (-0.1372152E-03)
 number of electron      10.0000000 magnetization 
 augmentation part        0.2033496 magnetization 

 Broyden mixing:
  rms(total) = 0.85172E-02    rms(broyden)= 0.85171E-02
  rms(prec ) = 0.89774E-02
  weight for this iteration     100.00

 eigenvalues of (default mixing * dielectric matrix)
  average eigenvalue GAMMA=   5.1559
  9.8348  6.9879  6.9879  0.9997  0.9690

 Free energy of the ion-electron system (eV)
  ---------------------------------------------------
  alpha Z        PSCENC =         5.96913924
  Ewald energy   TEWEN  =      1610.65328944
  -Hartree energ DENC   =     -2051.80295246
  -exchange      EXHF   =         0.00000000
  -V(xc)+E(xc)   XCENC  =        40.84835744
  PAW double counting   =       528.42056824     -530.82590703
  entropy T*S    EENTRO =        -0.00000000
  eigenvalues    EBANDS =      -145.78954909
  atomic energy  EATOM  =       529.09328782
  Solvation  Ediel_sol  =         0.00000000
  ---------------------------------------------------
  free energy    TOTEN  =       -13.43376641 eV

  energy without entropy =      -13.43376641  energy(sigma->0) =      -13.43376641


--------------------------------------------------------------------------------------------------------




--------------------------------------- Iteration      1(  18)  ---------------------------------------


    POTLOK:  cpu time      0.0208: real time      0.0209
    SETDIJ:  cpu time      0.0626: real time      0.0627
     EDDAV:  cpu time      1.2353: real time      1.2370
       DOS:  cpu time      0.0011: real time      0.0011
    CHARGE:  cpu time      0.0875: real time      0.0876
    MIXING:  cpu time      0.0019: real time      0.0019
    --------------------------------------------
      LOOP:  cpu time      1.4092: real time      1.4111

 eigenvalue-minimisations  :  4368
 total energy-change (2. order) : 0.3312037E-04  (-0.1897918E-04)
 number of electron      10.0000000 magnetization 
 augmentation part        0.2037701 magnetization 

 Broyden mixing:
  rms(total) = 0.34096E-02    rms(broyden)= 0.34095E-02
  rms(prec ) = 0.35558E-02
  weight for this iteration     100.00

 eigenvalues of (default mixing * dielectric matrix)
  average eigenvalue GAMMA=   5.0574
  9.4018  9.4018  7.3853  0.9950  0.9950  2.1653

 Free energy of the ion-electron system (eV)
  ---------------------------------------------------
  alpha Z        PSCENC =         5.96913924
  Ewald energy   TEWEN  =      1610.65328944
  -Hartree energ DENC   =     -2051.54207558
  -exchange      EXHF   =         0.00000000
  -V(xc)+E(xc)   XCENC  =        40.83970761
  PAW double counting   =       528.38489951     -530.79006664
  entropy T*S    EENTRO =        -0.00000000
  eigenvalues    EBANDS =      -146.04191468
  atomic energy  EATOM  =       529.09328782
  Solvation  Ediel_sol  =         0.00000000
  ---------------------------------------------------
  free energy    TOTEN  =       -13.43373329 eV

  energy without entropy =      -13.43373329  energy(sigma->0) =      -13.43373329


--------------------------------------------------------------------------------------------------------




--------------------------------------- Iteration      1(  19)  ---------------------------------------


    POTLOK:  cpu time      0.0209: real time      0.0209
    SETDIJ:  cpu time      0.0632: real time      0.0632
     EDDAV:  cpu time      1.2557: real time      1.2574
       DOS:  cpu time      0.0010: real time      0.0010
    CHARGE:  cpu time      0.0866: real time      0.0866
    MIXING:  cpu time      0.0022: real time      0.0022
    --------------------------------------------
      LOOP:  cpu time      1.4295: real time      1.4314

 eigenvalue-minimisations  :  4408
 total energy-change (2. order) :-0.9032849E-06  (-0.1221483E-05)
 number of electron      10.0000000 magnetization 
 augmentation part        0.2038501 magnetization 

 Broyden mixing:
  rms(total) = 0.19614E-02    rms(broyden)= 0.19614E-02
  rms(prec ) = 0.20650E-02
  weight for this iteration     100.00

 eigenvalues of (default mixing * dielectric matrix)
  average eigenvalue GAMMA=   5.2388
 10.5670  9.2572  7.8776  5.9819  1.0014  1.0014  0.9854

 Free energy of the ion-electron system (eV)
  ---------------------------------------------------
  alpha Z        PSCENC =         5.96913924
  Ewald energy   TEWEN  =      1610.65328944
  -Hartree energ DENC   =     -2051.50275721
  -exchange      EXHF   =         0.00000000
  -V(xc)+E(xc)   XCENC  =        40.83795136
  PAW double counting   =       528.39613727     -530.80121310
  entropy T*S    EENTRO =        -0.00000000
  eigenvalues    EBANDS =      -146.07956901
  atomic energy  EATOM  =       529.09328782
  Solvation  Ediel_sol  =         0.00000000
  ---------------------------------------------------
  free energy    TOTEN  =       -13.43373419 eV

  energy without entropy =      -13.43373419  energy(sigma->0) =      -13.43373419


--------------------------------------------------------------------------------------------------------




--------------------------------------- Iteration      1(  20)  ---------------------------------------


    POTLOK:  cpu time      0.0212: real time      0.0213
    SETDIJ:  cpu time      0.0625: real time      0.0625
     EDDAV:  cpu time      1.1035: real time      1.1051
       DOS:  cpu time      0.0011: real time      0.0011
    CHARGE:  cpu time      0.0865: real time      0.0866
    MIXING:  cpu time      0.0026: real time      0.0026
    --------------------------------------------
      LOOP:  cpu time      1.2774: real time      1.2791

 eigenvalue-minimisations  :  3676
 total energy-change (2. order) :-0.2414168E-05  (-0.1234685E-05)
 number of electron      10.0000000 magnetization 
 augmentation part        0.2038523 magnetization 

 Broyden mixing:
  rms(total) = 0.24885E-03    rms(broyden)= 0.24882E-03
  rms(prec ) = 0.26567E-03
  weight for this iteration     100.00

 eigenvalues of (default mixing * dielectric matrix)
  average eigenvalue GAMMA=   4.6751
 10.5961  9.4895  7.7392  5.6439  1.0698  0.9952  0.9952  0.8714

 Free energy of the ion-electron system (eV)
  ---------------------------------------------------
  alpha Z        PSCENC =         5.96913924
  Ewald energy   TEWEN  =      1610.65328944
  -Hartree energ DENC   =     -2051.57721448
  -exchange      EXHF   =         0.00000000
  -V(xc)+E(xc)   XCENC  =        40.84025812
  PAW double counting   =       528.68131568     -531.08558785
  entropy T*S    EENTRO =        -0.00000000
  eigenvalues    EBANDS =      -146.00822458
  atomic energy  EATOM  =       529.09328782
  Solvation  Ediel_sol  =         0.00000000
  ---------------------------------------------------
  free energy    TOTEN  =       -13.43373661 eV

  energy without entropy =      -13.43373661  energy(sigma->0) =      -13.43373661


--------------------------------------------------------------------------------------------------------




--------------------------------------- Iteration      1(  21)  ---------------------------------------


    POTLOK:  cpu time      0.0212: real time      0.0212
    SETDIJ:  cpu time      0.0628: real time      0.0629
     EDDAV:  cpu time      0.8464: real time      0.8476
       DOS:  cpu time      0.0010: real time      0.0010
    --------------------------------------------
      LOOP:  cpu time      0.9314: real time      0.9327

 eigenvalue-minimisations  :  2408
 total energy-change (2. order) : 0.1527053E-06  (-0.9107522E-07)
 number of electron      10.0000000 magnetization 
 augmentation part        0.2038523 magnetization 

 Free energy of the ion-electron system (eV)
  ---------------------------------------------------
  alpha Z        PSCENC =         5.96913924
  Ewald energy   TEWEN  =      1610.65328944
[...]
      1     -27.4246      2.00000
      2     -15.8443      2.00000
      3     -12.2645      2.00000
      4     -12.0353      2.00000
      5      -5.2661      2.00000
      6       0.4945      0.00000
      7       1.4664      0.00000
      8       3.3941      0.00000
      9       5.4491      0.00000
     10       5.6263      0.00000
     11       6.6277      0.00000
     12       7.7477      0.00000

 k-point    98 :      -0.1500    0.3500    0.3333
  band No.  band energies     occupation 
      1     -27.4246      2.00000
      2     -15.8443      2.00000
      3     -12.2645      2.00000
      4     -12.0353      2.00000
      5      -5.2661      2.00000
      6       0.4945      0.00000
      7       1.4664      0.00000
      8       3.3941      0.00000
      9       5.4554      0.00000
     10       5.6170      0.00000
     11       6.6361      0.00000
     12       7.7360      0.00000

 k-point    99 :       0.2500    0.1500    0.3333
  band No.  band energies     occupation 
      1     -26.6082      2.00000
      2     -17.2464      2.00000
      3     -12.9113      2.00000
      4     -11.3471      2.00000
      5      -5.5200      2.00000
      6       0.5360      0.00000
      7       1.9130      0.00000
      8       3.2921      0.00000
      9       6.5421      0.00000
     10       6.6821      0.00000
     11       7.7331      0.00000
     12       8.8071      0.00000

 k-point   100 :      -0.1500    0.4000    0.3333
  band No.  band energies     occupation 
      1     -26.6082      2.00000
      2     -17.2464      2.00000
      3     -12.9113      2.00000
      4     -11.3471      2.00000
      5      -5.5200      2.00000
      6       0.5360      0.00000
      7       1.9130      0.00000
      8       3.2921      0.00000
      9       6.5651      0.00000
     10       6.6517      0.00000
     11       7.7570      0.00000
     12       8.7706      0.00000

 k-point   101 :       0.3000    0.1500    0.3333
  band No.  band energies     occupation 
      1     -25.6895      2.00000
      2     -18.6608      2.00000
      3     -13.3968      2.00000
      4     -10.5890      2.00000
      5      -5.9492      2.00000
      6       0.6492      0.00000
      7       2.0153      0.00000
      8       3.3399      0.00000
      9       7.7546      0.00000
     10       7.9224      0.00000
     11       9.0166      0.00000
     12      10.0397      0.00000

 k-point   102 :      -0.1500    0.4500    0.3333
  band No.  band energies     occupation 
      1     -25.6895      2.00000
      2     -18.6608      2.00000
      3     -13.3968      2.00000
      4     -10.5890      2.00000
      5      -5.9492      2.00000
      6       0.6492      0.00000
      7       2.0153      0.00000
      8       3.3398      0.00000
      9       7.7843      0.00000
     10       7.8809      0.00000
     11       9.0628      0.00000
     12       9.9618      0.00000

 k-point   103 :       0.3500    0.1500    0.3333
  band No.  band energies     occupation 
      1     -24.7210      2.00000
      2     -19.9849      2.00000
      3     -13.7170      2.00000
      4      -9.8356      2.00000
      5      -6.4960      2.00000
      6       0.8457      0.00000
      7       1.7773      0.00000
      8       3.5686      0.00000
      9       9.0098      0.00000
     10       9.3617      0.00000
     11      10.4697      0.00000
     12      11.4253      0.00000

 k-point   104 :      -0.1500    0.5000    0.3333
  band No.  band energies     occupation 
      1     -24.7210      2.00000
      2     -19.9849      2.00000
      3     -13.7170      2.00000
      4      -9.8356      2.00000
      5      -6.4960      2.00000
      6       0.8457      0.00000
      7       1.7773      0.00000
      8       3.5686      0.00000
      9       9.0205      0.00000
     10       9.3367      0.00000
     11      10.5480      0.00000
     12      11.2743      0.00000

 k-point   105 :       0.4000    0.1500    0.3333
  band No.  band energies     occupation 
      1     -23.9057      2.00000
      2     -20.9850      2.00000
      3     -13.8759      2.00000
      4      -9.2626      2.00000
      5      -6.9723      2.00000
      6       1.1085      0.00000
      7       1.4457      0.00000
      8       3.7440      0.00000
      9      10.1840      0.00000
     10      10.9452      0.00000
     11      11.8390      0.00000
     12      12.3690      0.00000

 k-point   106 :      -0.1500   -0.4500    0.3333
  band No.  band energies     occupation 
      1     -23.9057      2.00000
      2     -20.9851      2.00000
      3     -13.8759      2.00000
      4      -9.2626      2.00000
      5      -6.9723      2.00000
      6       1.1085      0.00000
      7       1.4457      0.00000
      8       3.7440      0.00000
      9      10.1863      0.00000
     10      10.9283      0.00000
     11      11.9652      0.00000
     12      12.1833      0.00000

 k-point   107 :       0.2000    0.2000    0.3333
  band No.  band energies     occupation 
      1     -26.6736      2.00000
      2     -16.9464      2.00000
      3     -13.2063      2.00000
      4     -11.4019      2.00000
      5      -5.4598      2.00000
      6       1.2451      0.00000
      7       1.3489      0.00000
      8       3.3647      0.00000
      9       6.4695      0.00000
     10       6.5574      0.00000
     11       7.6511      0.00000
     12       8.6952      0.00000

 k-point   108 :       0.2500    0.2000    0.3333
  band No.  band energies     occupation 
      1     -25.8095      2.00000
      2     -18.1426      2.00000
      3     -13.9732      2.00000
      4     -10.6788      2.00000
      5      -5.7994      2.00000
      6       1.1689      0.00000
      7       1.8862      0.00000
      8       3.3824      0.00000
      9       7.6189      0.00000
     10       7.7012      0.00000
     11       8.8471      0.00000
     12       9.8374      0.00000

 k-point   109 :      -0.2000    0.4500    0.3333
  band No.  band energies     occupation 
      1     -25.8095      2.00000
      2     -18.1426      2.00000
      3     -13.9732      2.00000
      4     -10.6788      2.00000
      5      -5.7994      2.00000
      6       1.1689      0.00000
      7       1.8862      0.00000
      8       3.3824      0.00000
      9       7.6456      0.00000
     10       7.6707      0.00000
     11       8.8618      0.00000
     12       9.8132      0.00000

 k-point   110 :       0.3000    0.2000    0.3333
  band No.  band energies     occupation 
      1     -24.8611      2.00000
      2     -19.3765      2.00000
      3     -14.5111      2.00000
      4      -9.9207      2.00000
      5      -6.2748      2.00000
      6       1.0009      0.00000
      7       2.2310      0.00000
      8       3.5721      0.00000
      9       8.8411      0.00000
     10       9.0609      0.00000
     11      10.2185      0.00000
     12      11.1529      0.00000

 k-point   111 :      -0.2000    0.5000    0.3333
  band No.  band energies     occupation 
      1     -24.8611      2.00000
      2     -19.3765      2.00000
      3     -14.5111      2.00000
      4      -9.9207      2.00000
      5      -6.2748      2.00000
      6       1.0009      0.00000
      7       2.2310      0.00000
      8       3.5721      0.00000
      9       8.8523      0.00000
     10       9.0422      0.00000
     11      10.2558      0.00000
     12      11.0853      0.00000

 k-point   112 :       0.3500    0.2000    0.3333
  band No.  band energies     occupation 
      1     -23.9187      2.00000
      2     -20.5131      2.00000
      3     -14.8247      2.00000
      4      -9.2221      2.00000
      5      -6.8044      2.00000
      6       0.8687      0.00000
      7       2.3499      0.00000
      8       3.8334      0.00000
      9      10.0914      0.00000
     10      10.5760      0.00000
     11      11.7349      0.00000
     12      12.5984      0.00000

 k-point   113 :      -0.2000   -0.4500    0.3333
  band No.  band energies     occupation 
      1     -23.9187      2.00000
      2     -20.5131      2.00000
      3     -14.8247      2.00000
      4      -9.2221      2.00000
      5      -6.8044      2.00000
      6       0.8687      0.00000
      7       2.3498      0.00000
      8       3.8334      0.00000
      9      10.0955      0.00000
     10      10.5621      0.00000
     11      11.8189      0.00000
     12      12.3788      0.00000

 k-point   114 :       0.4000    0.2000    0.3333
  band No.  band energies     occupation 
      1     -23.3939      2.00000
      2     -21.1066      2.00000
      3     -14.9274      2.00000
      4      -8.8726      2.00000
      5      -7.0982      2.00000
      6       0.8188      0.00000
      7       2.3746      0.00000
      8       3.9496      0.00000
      9      10.9681      0.00000
     10      11.7654      0.00000
     11      12.3682      0.00000
     12      12.3964      0.00000

 k-point   115 :       0.2500    0.2500    0.3333
  band No.  band energies     occupation 
      1     -24.9104      2.00000
      2     -19.1046      2.00000
      3     -14.8503      2.00000
      4      -9.9522      2.00000
      5      -6.1902      2.00000
      6       0.9511      0.00000
      7       2.5547      0.00000
      8       3.5436      0.00000
      9       8.7889      0.00000
     10       8.9465      0.00000
     11      10.1459      0.00000
     12      11.0365      0.00000

 k-point   116 :       0.3000    0.2500    0.3333
  band No.  band energies     occupation 
      1     -23.9524      2.00000
      2     -20.1194      2.00000
      3     -15.4486      2.00000
      4      -9.2204      2.00000
      5      -6.6761      2.00000
      6       0.6265      0.00000
      7       3.1112      0.00000
      8       3.7869      0.00000
      9      10.0253      0.00000
     10      10.3761      0.00000
     11      11.5974      0.00000
     12      12.4191      0.00000

 k-point   117 :      -0.2500   -0.4500    0.3333
  band No.  band energies     occupation 
      1     -23.9524      2.00000
      2     -20.1194      2.00000
      3     -15.4486      2.00000
      4      -9.2204      2.00000
      5      -6.6761      2.00000
      6       0.6265      0.00000
      7       3.1112      0.00000
      8       3.7869      0.00000
      9      10.0277      0.00000
     10      10.3703      0.00000
     11      11.6208      0.00000
     12      12.3730      0.00000

 k-point   118 :       0.3500    0.2500    0.3333
  band No.  band energies     occupation 
      1     -23.0984      2.00000
      2     -21.0127      2.00000
      3     -15.7447      2.00000
      4      -8.6225      2.00000
      5      -7.1445      2.00000
      6       0.4340      0.00000
      7       3.3276      0.00000
      8       4.0340      0.00000
      9      11.2133      0.00000
     10      11.8306      0.00000
     11      12.6759      0.00000
     12      13.1857      0.00000

 k-point   119 :      -0.2500   -0.4000    0.3333
  band No.  band energies     occupation 
      1     -23.0984      2.00000
      2     -21.0127      2.00000
      3     -15.7447      2.00000
      4      -8.6225      2.00000
      5      -7.1445      2.00000
      6       0.4340      0.00000
      7       3.3276      0.00000
      8       4.0340      0.00000
      9      11.2144      0.00000
     10      11.8247      0.00000
     11      12.6911      0.00000
     12      13.2757      0.00000

 k-point   120 :       0.3000    0.3000    0.3333
  band No.  band energies     occupation 
      1     -23.0147      2.00000
      2     -20.9211      2.00000
      3     -16.0673      2.00000
      4      -8.5399      2.00000
      5      -7.1492      2.00000
      6       0.2913      0.00000
      7       3.8075      0.00000
      8       3.9503      0.00000
      9      11.2238      0.00000
     10      11.7814      0.00000
     11      12.9877      0.00000
     12      13.0863      0.00000

 k-point   121 :       0.3500    0.3000    0.3333
  band No.  band energies     occupation 
      1     -22.3575      2.00000
      2     -21.5277      2.00000
      3     -16.2817      2.00000
      4      -8.0965      2.00000
      5      -7.5179      2.00000
      6       0.1663      0.00000
      7       3.9589      0.00000
      8       4.1217      0.00000
      9      12.0843      0.00000
     10      12.3838      0.00000
     11      12.7936      0.00000
     12      13.6707      0.00000


--------------------------------------------------------------------------------------------------------


 soft charge-density along one line, spin component           1
         0         1         2         3         4         5         6         7         8         9
 total charge-density along one line
 
 pseudopotential strength for first ion, spin component:           1
 14.673 -14.799   0.000   0.036  -0.000  -0.000   0.238   0.000
-14.799  19.053  -0.000  -0.009   0.000   0.000  -0.333  -0.000
  0.000  -0.000  -7.674  -0.000   0.000   4.273   0.000  -0.000
  0.036  -0.009  -0.000  -7.638   0.000   0.000   4.177  -0.000
 -0.000   0.000   0.000   0.000  -7.674  -0.000  -0.000   4.273
 -0.000   0.000   4.273   0.000  -0.000  32.805  -0.000   0.000
  0.238  -0.333   0.000   4.177  -0.000  -0.000  32.915   0.000
  0.000  -0.000  -0.000  -0.000   4.273   0.000   0.000  32.805
 total augmentation occupancy for first ion, spin component:           1
  1.862   0.022   0.000  -0.274   0.000   0.000   0.017   0.000
  0.022   0.003   0.000   0.043  -0.000   0.000   0.002   0.000
  0.000   0.000   1.153  -0.000   0.000   0.060  -0.000   0.000
 -0.274   0.043   0.000   1.544   0.000  -0.000   0.038  -0.000
  0.000   0.000   0.000   0.000   1.153   0.000  -0.000   0.060
 -0.000   0.000   0.060   0.000   0.000   0.004   0.000   0.000
  0.017   0.002   0.000   0.038   0.000  -0.000   0.003  -0.000
  0.000   0.000   0.000   0.000   0.060   0.000   0.000   0.004


------------------------ aborting loop because EDIFF is reached ----------------------------------------





 total charge

# of ion       s       p       d       tot
------------------------------------------
    1        1.275   2.292   0.000   3.568
    2        1.275   2.292   0.000   3.568
--------------------------------------------------
tot          2.551   4.585   0.000   7.135
 
    CHARGE:  cpu time      0.0851: real time      0.0852
    FORLOC:  cpu time      0.0022: real time      0.0022
    FORNL :  cpu time      0.1589: real time      0.1593
    STRESS:  cpu time      0.6822: real time      0.6838
    FORHAR:  cpu time      0.0061: real time      0.0061
    MIXING:  cpu time      0.0010: real time      0.0010
    OFIELD:  cpu time      0.0000: real time      0.0000

  FORCE on cell =-STRESS in cart. coord.  units (eV):
  Direction    XX          YY          ZZ          XY          YZ          ZX
  --------------------------------------------------------------------------------------
  Alpha Z     5.96914     5.96914     5.96914
  Ewald    2005.27181  2005.27181 -2399.89038    -0.00000     0.00000    -0.00000
  Hartree  2016.02340  2016.02340 -1980.47228    -0.00000     0.00000    -0.00000
  E(xc)     -42.09665   -42.09665   -42.73929    -0.00000    -0.00000     0.00000
  Local   -4145.15553 -4145.15553  4224.66722    -0.00000    -0.00000     0.00000
  n-local   -23.40727   -23.90680   -30.26974    -0.38567    -0.27017     0.58383
  augment    -0.52250    -0.52250    -0.22024     0.00000    -0.00000     0.00000
  Kinetic   181.79594   186.51836   222.93707     3.49068     0.70465    -2.38637
  Fock        0.00000     0.00000     0.00000     0.00000     0.00000     0.00000
  -------------------------------------------------------------------------------------
  Total      -0.01022    -0.01022    -0.01848    -0.00000     0.00000    -0.00000
  in kB      -0.22441    -0.22441    -0.40585    -0.00000     0.00000    -0.00000
  external pressure =       -0.28 kB  Pullay stress =        0.00 kB


 VOLUME and BASIS-vectors are now :
 -----------------------------------------------------------------------------
  energy-cutoff  :      841.80
  volume of cell :       72.95
      direct lattice vectors                 reciprocal lattice vectors
     2.294498594  0.000000000  0.000000000     0.435825065  0.251623719  0.000000000
    -1.147249297  1.987094072  0.000000000     0.000000000  0.503247438  0.000000000
     0.000000000  0.000000000 16.000000000     0.000000000  0.000000000  0.062500000

  length of vectors
     2.294498594  2.294498594 16.000000000     0.503247438  0.503247438  0.062500000


 FORCES acting on ions
    electron-ion (+dipol)            ewald-force                    non-local-force                 convergence-correction
 -----------------------------------------------------------------------------------------------
   -.133E-07 -.106E-08 0.292E+03   0.101E-10 -.583E-11 -.331E+03   -.555E-16 0.833E-16 0.393E+02   -.133E-08 0.768E-09 0.110E-02
   0.133E-07 0.106E-08 -.292E+03   -.101E-10 0.583E-11 0.331E+03   0.555E-16 -.833E-16 -.393E+02   0.133E-08 -.768E-09 -.110E-02
 -----------------------------------------------------------------------------------------------
   -.836E-13 -.234E-12 -.135E-10   0.610E-14 0.468E-16 0.000E+00   0.000E+00 0.000E+00 0.000E+00   -.109E-13 -.286E-14 -.984E-14
 
 
 POSITION                                       TOTAL-FORCE (eV/Angst)
 -----------------------------------------------------------------------------------
      1.14725      0.66236      7.65155         0.000000     -0.000000      0.003190
      0.00000      1.32473      8.34845        -0.000000      0.000000     -0.003190
 -----------------------------------------------------------------------------------
    total drift:                               -0.000000     -0.000000     -0.000000


--------------------------------------------------------------------------------------------------------



  FREE ENERGIE OF THE ION-ELECTRON SYSTEM (eV)
  ---------------------------------------------------
  free  energy   TOTEN  =       -13.43373645 eV

  energy  without entropy=      -13.43373645  energy(sigma->0) =      -13.43373645
 


--------------------------------------------------------------------------------------------------------


    POTLOK:  cpu time      0.0823: real time      0.0824


--------------------------------------------------------------------------------------------------------




--------------------------------------------------------------------------------------------------------


  
 reached required accuracy - stopping structural energy minimisation
     LOOP+:  cpu time     24.9402: real time     25.4383
    4ORBIT:  cpu time      0.0000: real time      0.0000



 total charge

# of ion       s       p       d       tot
------------------------------------------
    1        1.275   2.292   0.000   3.568
    2        1.275   2.292   0.000   3.568
--------------------------------------------------
tot          2.551   4.585   0.000   7.135
 

 total amount of memory used by VASP MPI-rank0    54731. kBytes
=======================================================================

   base      :      30000. kBytes
   nonl-proj :       8087. kBytes
   fftplans  :       7411. kBytes
   grid      :       3144. kBytes
   one-center:          3. kBytes
   wavefun   :       6086. kBytes
 
  
  
 General timing and accounting informations for this job:
 ========================================================
  
                  Total CPU time used (sec):       26.226
                            User time (sec):       26.010
                          System time (sec):        0.216
                         Elapsed time (sec):       27.835
  
                   Maximum memory used (kb):      180476.
                   Average memory used (kb):          N/A
  
                          Minor page faults:        24760
                          Major page faults:         2918
                 Voluntary context switches:          266
