PROCAR new format
# of k-points:  121         # of bands:   12         # of ions:    2

 k-point     1 :    0.00000000 0.00000000 0.00000000     weight = 0.00083333

band     1 # energy  -30.03804830 # occ.  2.00000000
 
ion      s      p      d    tot
    1  0.318  0.025  0.000  0.344
    2  0.318  0.025  0.000  0.344
tot    0.636  0.051  0.000  0.687
 
band     2 # energy  -14.50518808 # occ.  2.00000000
 
ion      s      p      d    tot
    1  0.148  0.131  0.000  0.279
    2  0.148  0.131  0.000  0.279
tot    0.296  0.262  0.000  0.558
 
band     3 # energy   -8.39907753 # occ.  2.00000000
 
ion      s      p      d    tot
    1  0.000  0.423  0.000  0.423
    2  0.000  0.423  0.000  0.423
tot    0.000  0.846  0.000  0.846
 
band     4 # energy   -8.39907713 # occ.  2.00000000
 
ion      s      p      d    tot
    1  0.000  0.423  0.000  0.423
    2  0.000  0.423  0.000  0.423
tot    0.000  0.846  0.000  0.846
 
band     5 # energy   -5.63463089 # occ.  2.00000000
 
ion      s      p      d    tot
    1  0.003  0.276  0.000  0.279
    2  0.003  0.276  0.000  0.279
tot    0.006  0.553  0.000  0.559
 
band     6 # energy   -0.04326966 # occ.  0.00000000
 
ion      s      p      d    tot
    1  0.000  0.391  0.000  0.391
    2  0.000  0.391  0.000  0.391
tot    0.000  0.782  0.000  0.782
 
band     7 # energy   -0.04326915 # occ.  0.00000000
 
ion      s      p      d    tot
    1  0.000  0.391  0.000  0.391
    2  0.000  0.391  0.000  0.391
tot    0.000  0.782  0.000  0.782
 
band     8 # energy    0.31198794 # occ.  0.00000000
 
ion      s      p      d    tot
    1  0.297  0.148  0.000  0.445
    2  0.297  0.148  0.000  0.445
tot    0.594  0.295  0.000  0.889
 
band     9 # energy    2.08159013 # occ.  0.00000000
 
ion      s      p      d    tot
    1  0.001  0.012  0.000  0.013
    2  0.001  0.012  0.000  0.013
tot    0.002  0.024  0.000  0.026
 
band    10 # energy    2.24978076 # occ.  0.00000000
 
ion      s      p      d    tot
    1  0.002  0.017  0.000  0.019
    2  0.002  0.017  0.000  0.019
tot    0.004  0.034  0.000  0.038
 
band    11 # energy    3.34941963 # occ.  0.00000000
 
ion      s      p      d    tot
    1  0.002  0.019  0.000  0.022
    2  0.002  0.019  0.000  0.022
tot    0.005  0.038  0.000  0.043
 
band    12 # energy    4.32779932 # occ.  0.00000000
 
ion      s      p      d    tot
    1  0.002  0.007  0.000  0.010
    2  0.002  0.007  0.000  0.010
tot    0.005  0.014  0.000  0.019
 

 k-point     2 :    0.05000000-0.00000000 0.00000000     weight = 0.00500000

band     1 # energy  -29.96602160 # occ.  2.00000000
 
ion      s      p      d    tot
    1  0.318  0.026  0.000  0.344
    2  0.318  0.026  0.000  0.344
tot    0.635  0.053  0.000  0.688
 
band     2 # energy  -14.43877957 # occ.  2.00000000
 
ion      s      p      d    tot
    1  0.149  0.131  0.000  0.280
    2  0.149  0.131  0.000  0.280
tot    0.298  0.262  0.000  0.560
 
band     3 # energy   -8.80165210 # occ.  2.00000000
 
ion      s      p      d    tot
    1  0.013  0.407  0.000  0.420
    2  0.013  0.407  0.000  0.420
tot    0.027  0.813  0.000  0.840
 
band     4 # energy   -8.52582992 # occ.  2.00000000
 
ion      s      p      d    tot
    1  0.000  0.421  0.000  0.421
    2  0.000  0.421  0.000  0.421
tot    0.000  0.842  0.000  0.842
 
band     5 # energy   -5.59930498 # occ.  2.00000000
 
ion      s      p      d    tot
    1  0.003  0.278  0.000  0.281
    2  0.003  0.278  0.000  0.281
tot    0.006  0.557  0.000  0.563
 
band     6 # energy   -0.08668375 # occ.  0.00000000
 
ion      s      p      d    tot
    1  0.018  0.373  0.000  0.391
    2  0.018  0.373  0.000  0.391
tot    0.036  0.746  0.000  0.782
 
band     7 # energy    0.09626120 # occ.  0.00000000
 
ion      s      p      d    tot
    1  0.000  0.394  0.000  0.394
    2  0.000  0.394  0.000  0.394
tot    0.000  0.787  0.000  0.787
 
band     8 # energy    0.57892831 # occ.  0.00000000
 
ion      s      p      d    tot
    1  0.268  0.176  0.000  0.444
    2  0.268  0.176  0.000  0.444
tot    0.535  0.353  0.000  0.888
 
band     9 # energy    2.17488215 # occ.  0.00000000
 
ion      s      p      d    tot
    1  0.001  0.012  0.000  0.013
    2  0.001  0.012  0.000  0.013
tot    0.002  0.025  0.000  0.026
 
band    10 # energy    2.34075315 # occ.  0.00000000
 
ion      s      p      d    tot
    1  0.002  0.018  0.000  0.019
    2  0.002  0.018  0.000  0.019
tot    0.003  0.035  0.000  0.039
 
band    11 # energy    3.43866277 # occ.  0.00000000
 
ion      s      p      d    tot
    1  0.002  0.019  0.000  0.022
    2  0.002  0.019  0.000  0.022
tot    0.005  0.038  0.000  0.043
 
band    12 # energy    4.42061133 # occ.  0.00000000
 
ion      s      p      d    tot
    1  0.002  0.007  0.000  0.010
    2  0.002  0.007  0.000  0.010
tot    0.005  0.014  0.000  0.019
 

 k-point     3 :    0.10000000-0.00000000 0.00000000     weight = 0.00500000

band     1 # energy  -29.75031469 # occ.  2.00000000
 
ion      s      p      d    tot
    1  0.316  0.029  0.000  0.345
    2  0.316  0.029  0.000  0.345
tot    0.631  0.058  0.000  0.690
 
band     2 # energy  -14.24189125 # occ.  2.00000000
 
ion      s      p      d    tot
    1  0.152  0.130  0.000  0.283
    2  0.152  0.130  0.000  0.283
tot    0.305  0.261  0.000  0.566
 
band     3 # energy   -9.85159009 # occ.  2.00000000
 
ion      s      p      d    tot
    1  0.039  0.373  0.000  0.412
    2  0.039  0.373  0.000  0.412
tot    0.078  0.746  0.000  0.824
 
band     4 # energy   -8.86984120 # occ.  2.00000000
 
ion      s      p      d    tot
    1  0.000  0.417  0.000  0.417
    2  0.000  0.417  0.000  0.417
tot    0.000  0.833  0.000  0.833
 
band     5 # energy   -5.50101657 # occ.  2.00000000
 
ion      s      p      d    tot
    1  0.004  0.284  0.000  0.288
    2  0.004  0.284  0.000  0.288
tot    0.008  0.568  0.000  0.576
 
band     6 # energy   -0.27745716 # occ.  0.00000000
 
ion      s      p      d    tot
    1  0.048  0.338  0.000  0.386
    2  0.048  0.338  0.000  0.386
tot    0.095  0.676  0.000  0.771
 
band     7 # energy    0.47243127 # occ.  0.00000000
 
ion      s      p      d    tot
    1  0.000  0.400  0.000  0.400
    2  0.000  0.400  0.000  0.400
tot    0.000  0.800  0.000  0.800
 
band     8 # energy    1.28744836 # occ.  0.00000000
 
ion      s      p      d    tot
    1  0.215  0.228  0.000  0.443
    2  0.215  0.228  0.000  0.443
tot    0.430  0.456  0.000  0.886
 
band     9 # energy    2.45397875 # occ.  0.00000000
 
ion      s      p      d    tot
    1  0.001  0.014  0.000  0.015
    2  0.001  0.014  0.000  0.015
tot    0.001  0.028  0.000  0.029
 
band    10 # energy    2.61399869 # occ.  0.00000000
 
ion      s      p      d    tot
    1  0.002  0.019  0.000  0.021
    2  0.002  0.019  0.000  0.021
tot    0.003  0.039  0.000  0.042
 
band    11 # energy    3.70658995 # occ.  0.00000000
 
ion      s      p      d    tot
    1  0.002  0.019  0.000  0.022
    2  0.002  0.019  0.000  0.022
tot    0.004  0.039  0.000  0.043
 
band    12 # energy    4.69865930 # occ.  0.00000000
 
ion      s      p      d    tot
    1  0.003  0.007  0.000  0.010
    2  0.003  0.007  0.000  0.010
tot    0.005  0.015  0.000  0.020
 

 k-point     4 :    0.15000000-0.00000000 0.00000000     weight = 0.00500000

band     1 # energy  -29.39219572 # occ.  2.00000000
 
ion      s      p      d    tot
    1  0.313  0.034  0.000  0.346
    2  0.313  0.034  0.000  0.346
tot    0.625  0.068  0.000  0.693
 
band     2 # energy  -13.92590185 # occ.  2.00000000
 
ion      s      p      d    tot
    1  0.164  0.126  0.000  0.290
    2  0.164  0.126  0.000  0.290
tot    0.328  0.251  0.000  0.579
 
band     3 # energy  -11.26790071 # occ.  2.00000000
 
ion      s      p      d    tot
    1  0.057  0.343  0.000  0.400
    2  0.057  0.343  0.000  0.400
tot    0.114  0.687  0.000  0.801
 
band     4 # energy   -9.34954222 # occ.  2.00000000
 
ion      s      p      d    tot
    1  0.000  0.411  0.000  0.411
    2  0.000  0.411  0.000  0.411
tot    0.000  0.823  0.000  0.823
 
band     5 # energy   -5.36537920 # occ.  2.00000000
 
ion      s      p      d    tot
    1  0.006  0.293  0.000  0.300
    2  0.006  0.293  0.000  0.300
tot    0.013  0.587  0.000  0.600
 
band     6 # energy   -0.56534210 # occ.  0.00000000
 
ion      s      p      d    tot
    1  0.069  0.306  0.000  0.374
    2  0.069  0.306  0.000  0.374
tot    0.137  0.612  0.000  0.749
 
band     7 # energy    0.98734183 # occ.  0.00000000
 
ion      s      p      d    tot
    1  0.000  0.407  0.000  0.407
    2  0.000  0.407  0.000  0.407
tot    0.000  0.815  0.000  0.815
 
band     8 # energy    2.11254498 # occ.  0.00000000
 
ion      s      p      d    tot
    1  0.170  0.264  0.000  0.434
    2  0.170  0.264  0.000  0.434
tot    0.340  0.528  0.000  0.868
 
band     9 # energy    2.91481139 # occ.  0.00000000
 
ion      s      p      d    tot
    1  0.001  0.015  0.000  0.015
    2  0.001  0.015  0.000  0.015
tot    0.001  0.029  0.000  0.031
 
band    10 # energy    3.07655613 # occ.  0.00000000
 
ion      s      p      d    tot
    1  0.003  0.026  0.000  0.029
    2  0.003  0.026  0.000  0.029
tot    0.005  0.053  0.000  0.058
 
band    11 # energy    4.15582452 # occ.  0.00000000
 
ion      s      p      d    tot
    1  0.002  0.021  0.000  0.023
    2  0.002  0.021  0.000  0.023
tot    0.004  0.041  0.000  0.045
 
band    12 # energy    5.16093572 # occ.  0.00000000
 
ion      s      p      d    tot
    1  0.003  0.007  0.000  0.010
    2  0.003  0.007  0.000  0.010
tot    0.006  0.014  0.000  0.020
 

 k-point     5 :    0.20000000-0.00000000 0.00000000     weight = 0.00500000

band     1 # energy  -28.89401138 # occ.  2.00000000
 
ion      s      p      d    tot
    1  0.308  0.040  0.000  0.348
    2  0.308  0.040  0.000  0.348
tot    0.617  0.080  0.000  0.697
 
band     2 # energy  -13.60134416 # occ.  2.00000000
 
ion      s      p      d    tot
    1  0.229  0.099  0.000  0.328
    2  0.229  0.099  0.000  0.328
tot    0.458  0.199  0.000  0.657
 
band     3 # energy  -12.75105779 # occ.  2.00000000
 
ion      s      p      d    tot
    1  0.017  0.341  0.000  0.358
    2  0.017  0.341  0.000  0.358
tot    0.033  0.682  0.000  0.716
 
band     4 # energy   -9.88246525 # occ.  2.00000000
 
ion      s      p      d    tot
    1  0.000  0.406  0.000  0.406
    2  0.000  0.406  0.000  0.406
tot    0.000  0.813  0.000  0.813
 
band     5 # energy   -5.24161414 # occ.  2.00000000
 
ion      s      p      d    tot
    1  0.011  0.305  0.000  0.316
    2  0.011  0.305  0.000  0.316
tot    0.022  0.610  0.000  0.633
 
band     6 # energy   -0.87687976 # occ.  0.00000000
 
ion      s      p      d    tot
    1  0.086  0.274  0.000  0.359
    2  0.086  0.274  0.000  0.359
tot    0.171  0.547  0.000  0.719
 
band     7 # energy    1.53816815 # occ.  0.00000000
 
ion      s      p      d    tot
    1  0.000  0.414  0.000  0.414
    2  0.000  0.414  0.000  0.414
tot    0.000  0.827  0.000  0.827
 
band     8 # energy    2.77146661 # occ.  0.00000000
 
ion      s      p      d    tot
    1  0.126  0.279  0.000  0.405
    2  0.126  0.279  0.000  0.405
tot    0.252  0.558  0.000  0.810
 
band     9 # energy    3.55463779 # occ.  0.00000000
 
ion      s      p      d    tot
    1  0.003  0.010  0.000  0.013
    2  0.003  0.010  0.000  0.013
tot    0.006  0.021  0.000  0.026
 
band    10 # energy    3.73825580 # occ.  0.00000000
 
ion      s      p      d    tot
    1  0.006  0.042  0.000  0.048
    2  0.006  0.042  0.000  0.048
tot    0.012  0.084  0.000  0.096
 
band    11 # energy    4.79167558 # occ.  0.00000000
 
ion      s      p      d    tot
    1  0.002  0.024  0.000  0.026
    2  0.002  0.024  0.000  0.026
tot    0.004  0.048  0.000  0.053
 
band    12 # energy    5.80687968 # occ.  0.00000000
 
ion      s      p      d    tot
    1  0.004  0.007  0.000  0.010
    2  0.004  0.007  0.000  0.010
tot    0.007  0.014  0.000  0.021
 

 k-point     6 :    0.25000000 0.00000000 0.00000000     weight = 0.00500000

band     1 # energy  -28.25980600 # occ.  2.00000000
 
ion      s      p      d    tot
    1  0.303  0.048  0.000  0.351
    2  0.303  0.048  0.000  0.351
tot    0.607  0.096  0.000  0.702
 
band     2 # energy  -14.68693360 # occ.  2.00000000
 
ion      s      p      d    tot
    1  0.180  0.216  0.000  0.396
    2  0.180  0.216  0.000  0.396
tot    0.361  0.431  0.000  0.792
 
band     3 # energy  -12.77700633 # occ.  2.00000000
 
ion      s      p      d    tot
    1  0.085  0.203  0.000  0.288
    2  0.085  0.203  0.000  0.288
tot    0.171  0.405  0.000  0.576
 
band     4 # energy  -10.40541774 # occ.  2.00000000
 
ion      s      p      d    tot
    1  0.000  0.402  0.000  0.402
    2  0.000  0.402  0.000  0.402
tot    0.000  0.804  0.000  0.804
 
band     5 # energy   -5.20623310 # occ.  2.00000000
 
ion      s      p      d    tot
    1  0.020  0.316  0.000  0.336
    2  0.020  0.316  0.000  0.336
tot    0.040  0.632  0.000  0.672
 
band     6 # energy   -1.13380730 # occ.  0.00000000
 
ion      s      p      d    tot
    1  0.098  0.245  0.000  0.343
    2  0.098  0.245  0.000  0.343
tot    0.196  0.490  0.000  0.686
 
band     7 # energy    2.04618117 # occ.  0.00000000
 
ion      s      p      d    tot
    1  0.000  0.418  0.000  0.418
    2  0.000  0.418  0.000  0.418
tot    0.000  0.835  0.000  0.835
 
band     8 # energy    3.11745885 # occ.  0.00000000
 
ion      s      p      d    tot
    1  0.090  0.283  0.000  0.374
    2  0.090  0.283  0.000  0.374
tot    0.181  0.566  0.000  0.747
 
band     9 # energy    4.38104626 # occ.  0.00000000
 
ion      s      p      d    tot
    1  0.005  0.009  0.000  0.014
    2  0.005  0.009  0.000  0.014
tot    0.010  0.018  0.000  0.027
 
band    10 # energy    4.56987771 # occ.  0.00000000
 
ion      s      p      d    tot
    1  0.005  0.047  0.000  0.052
    2  0.005  0.047  0.000  0.052
tot    0.011  0.094  0.000  0.105
 
band    11 # energy    5.60948981 # occ.  0.00000000
 
ion      s      p      d    tot
    1  0.002  0.027  0.000  0.029
    2  0.002  0.027  0.000  0.029
tot    0.004  0.055  0.000  0.058
 
band    12 # energy    6.63777441 # occ.  0.00000000
 
ion      s      p      d    tot
    1  0.005  0.007  0.000  0.011
    2  0.005  0.007  0.000  0.011
tot    0.009  0.013  0.000  0.023
 

 k-point     7 :    0.30000000-0.00000000 0.00000000     weight = 0.00500000

band     1 # energy  -27.49666806 # occ.  2.00000000
 
ion      s      p      d    tot
    1  0.298  0.057  0.000  0.355
    2  0.298  0.057  0.000  0.355
tot    0.596  0.114  0.000  0.710
 
band     2 # energy  -16.33439737 # occ.  2.00000000
 
ion      s      p      d    tot
    1  0.173  0.213  0.000  0.387
    2  0.173  0.213  0.000  0.387
tot    0.347  0.427  0.000  0.774
 
band     3 # energy  -12.13753843 # occ.  2.00000000
 
ion      s      p      d    tot
    1  0.109  0.188  0.000  0.298
    2  0.109  0.188  0.000  0.298
tot    0.219  0.376  0.000  0.595
 
band     4 # energy  -10.87524170 # occ.  2.00000000
 
ion      s      p      d    tot
    1  0.000  0.399  0.000  0.399
    2  0.000  0.399  0.000  0.399
tot    0.000  0.798  0.000  0.798
 
band     5 # energy   -5.34586620 # occ.  2.00000000
 
ion      s      p      d    tot
    1  0.033  0.319  0.000  0.353
    2  0.033  0.319  0.000  0.353
tot    0.067  0.639  0.000  0.705
 
band     6 # energy   -1.26798760 # occ.  0.00000000
 
ion      s      p      d    tot
    1  0.105  0.224  0.000  0.329
    2  0.105  0.224  0.000  0.329
tot    0.210  0.449  0.000  0.658
 
band     7 # energy    2.46501515 # occ.  0.00000000
 
ion      s      p      d    tot
    1  0.000  0.419  0.000  0.419
    2  0.000  0.419  0.000  0.419
tot    0.000  0.837  0.000  0.837
 
band     8 # energy    3.15058912 # occ.  0.00000000
 
ion      s      p      d    tot
    1  0.064  0.282  0.000  0.346
    2  0.064  0.282  0.000  0.346
tot    0.127  0.564  0.000  0.691
 
band     9 # energy    5.38371030 # occ.  0.00000000
 
ion      s      p      d    tot
    1  0.005  0.011  0.000  0.016
    2  0.005  0.011  0.000  0.016
tot    0.010  0.022  0.000  0.031
 
band    10 # energy    5.55331311 # occ.  0.00000000
 
ion      s      p      d    tot
    1  0.004  0.043  0.000  0.047
    2  0.004  0.043  0.000  0.047
tot    0.008  0.085  0.000  0.093
 
band    11 # energy    6.59540803 # occ.  0.00000000
 
ion      s      p      d    tot
    1  0.001  0.025  0.000  0.026
    2  0.001  0.025  0.000  0.026
tot    0.002  0.050  0.000  0.053
 
band    12 # energy    7.65436531 # occ.  0.00000000
 
ion      s      p      d    tot
    1  0.005  0.008  0.000  0.013
    2  0.005  0.008  0.000  0.013
tot    0.010  0.015  0.000  0.026
 

 k-point     8 :    0.35000000-0.00000000 0.00000000     weight = 0.00500000

band     1 # energy  -26.61847680 # occ.  2.00000000
 
ion      s      p      d    tot
    1  0.293  0.066  0.000  0.359
    2  0.293  0.066  0.000  0.359
tot    0.586  0.133  0.000  0.718
 
band     2 # energy  -17.95078670 # occ.  2.00000000
 
ion      s      p      d    tot
    1  0.180  0.198  0.000  0.378
    2  0.180  0.198  0.000  0.378
tot    0.360  0.396  0.000  0.756
 
band     3 # energy  -11.39731373 # occ.  2.00000000
 
ion      s      p      d    tot
    1  0.117  0.192  0.000  0.308
    2  0.117  0.192  0.000  0.308
tot    0.233  0.384  0.000  0.617
 
band     4 # energy  -11.26346540 # occ.  2.00000000
 
ion      s      p      d    tot
    1  0.000  0.397  0.000  0.397
    2  0.000  0.397  0.000  0.397
tot    0.000  0.793  0.000  0.793
 
band     5 # energy   -5.70400216 # occ.  2.00000000
 
ion      s      p      d    tot
    1  0.048  0.312  0.000  0.360
    2  0.048  0.312  0.000  0.360
tot    0.096  0.624  0.000  0.720
 
band     6 # energy   -1.26459759 # occ.  0.00000000
 
ion      s      p      d    tot
    1  0.108  0.214  0.000  0.322
    2  0.108  0.214  0.000  0.322
tot    0.216  0.429  0.000  0.645
 
band     7 # energy    2.77752328 # occ.  0.00000000
 
ion      s      p      d    tot
    1  0.000  0.418  0.000  0.418
    2  0.000  0.418  0.000  0.418
tot    0.000  0.835  0.000  0.835
 
band     8 # energy    2.97888809 # occ.  0.00000000
 
ion      s      p      d    tot
    1  0.042  0.279  0.000  0.321
    2  0.042  0.279  0.000  0.321
tot    0.085  0.558  0.000  0.643
 
band     9 # energy    6.52907412 # occ.  0.00000000
 
ion      s      p      d    tot
    1  0.004  0.018  0.000  0.022
    2  0.004  0.018  0.000  0.022
tot    0.008  0.037  0.000  0.045
 
band    10 # energy    6.70572874 # occ.  0.00000000
 
ion      s      p      d    tot
    1  0.004  0.034  0.000  0.038
    2  0.004  0.034  0.000  0.038
tot    0.008  0.068  0.000  0.076
 
band    11 # energy    7.74703658 # occ.  0.00000000
 
ion      s      p      d    tot
    1  0.001  0.019  0.000  0.020
    2  0.001  0.019  0.000  0.020
tot    0.002  0.038  0.000  0.040
 
band    12 # energy    8.85305841 # occ.  0.00000000
 
ion      s      p      d    tot
    1  0.005  0.009  0.000  0.014
    2  0.005  0.009  0.000  0.014
tot    0.010  0.019  0.000  0.029
 

 k-point     9 :    0.40000000-0.00000000 0.00000000     weight = 0.00500000

band     1 # energy  -25.65820671 # occ.  2.00000000
 
ion      s      p      d    tot
    1  0.290  0.075  0.000  0.365
    2  0.290  0.075  0.000  0.365
tot    0.581  0.149  0.000  0.730
 
band     2 # energy  -19.45696818 # occ.  2.00000000
 
ion      s      p      d    tot
    1  0.185  0.184  0.000  0.369
    2  0.185  0.184  0.000  0.369
tot    0.371  0.368  0.000  0.739
 
band     3 # energy  -11.55175618 # occ.  2.00000000
 
ion      s      p      d    tot
    1  0.000  0.395  0.000  0.395
    2  0.000  0.395  0.000  0.395
tot    0.000  0.790  0.000  0.790
 
band     4 # energy  -10.62522925 # occ.  2.00000000
 
ion      s      p      d    tot
    1  0.122  0.200  0.000  0.321
    2  0.122  0.200  0.000  0.321
tot    0.243  0.399  0.000  0.643
 
band     5 # energy   -6.23703820 # occ.  2.00000000
 
ion      s      p      d    tot
    1  0.059  0.297  0.000  0.356
    2  0.059  0.297  0.000  0.356
tot    0.117  0.595  0.000  0.712
 
band     6 # energy   -1.17970680 # occ.  0.00000000
 
ion      s      p      d    tot
    1  0.112  0.210  0.000  0.322
    2  0.112  0.210  0.000  0.322
tot    0.224  0.419  0.000  0.643
 
band     7 # energy    2.75330141 # occ.  0.00000000
 
ion      s      p      d    tot
    1  0.026  0.280  0.000  0.306
    2  0.026  0.280  0.000  0.306
tot    0.052  0.561  0.000  0.613
 
band     8 # energy    2.98679379 # occ.  0.00000000
 
ion      s      p      d    tot
    1  0.000  0.416  0.000  0.416
    2  0.000  0.416  0.000  0.416
tot    0.000  0.831  0.000  0.831
 
band     9 # energy    7.75578746 # occ.  0.00000000
 
ion      s      p      d    tot
    1  0.003  0.026  0.000  0.029
    2  0.003  0.026  0.000  0.029
tot    0.006  0.051  0.000  0.057
 
band    10 # energy    8.05465573 # occ.  0.00000000
 
ion      s      p      d    tot
    1  0.004  0.026  0.000  0.030
    2  0.004  0.026  0.000  0.030
tot    0.008  0.052  0.000  0.060
 
band    11 # energy    9.07080508 # occ.  0.00000000
 
ion      s      p      d    tot
    1  0.000  0.012  0.000  0.012
    2  0.000  0.012  0.000  0.012
tot    0.001  0.024  0.000  0.025
 
band    12 # energy   10.22282096 # occ.  0.00000000
 
ion      s      p      d    tot
    1  0.004  0.012  0.000  0.017
    2  0.004  0.012  0.000  0.017
tot    0.009  0.024  0.000  0.033
 

 k-point    10 :    0.45000000-0.00000000 0.00000000     weight = 0.00500000

band     1 # energy  -24.72207068 # occ.  2.00000000
 
ion      s      p      d    tot
    1  0.295  0.079  0.000  0.373
    2  0.295  0.079  0.000  0.373
tot    0.589  0.157  0.000  0.747
 
band     2 # energy  -20.72718128 # occ.  2.00000000
 
ion      s      p      d    tot
    1  0.183  0.177  0.000  0.360
    2  0.183  0.177  0.000  0.360
tot    0.366  0.353  0.000  0.719
 
band     3 # energy  -11.72883168 # occ.  2.00000000
 
ion      s      p      d    tot
    1  0.000  0.394  0.000  0.394
    2  0.000  0.394  0.000  0.394
tot    0.000  0.788  0.000  0.788
 
band     4 # energy   -9.93680892 # occ.  2.00000000
 
ion      s      p      d    tot
    1  0.128  0.208  0.000  0.336
    2  0.128  0.208  0.000  0.336
tot    0.256  0.416  0.000  0.671
 
band     5 # energy   -6.80145946 # occ.  2.00000000
 
ion      s      p      d    tot
    1  0.061  0.284  0.000  0.345
    2  0.061  0.284  0.000  0.345
tot    0.122  0.567  0.000  0.690
 
band     6 # energy   -1.09310168 # occ.  0.00000000
 
ion      s      p      d    tot
    1  0.116  0.206  0.000  0.322
    2  0.116  0.206  0.000  0.322
tot    0.232  0.412  0.000  0.644
 
band     7 # energy    2.58601253 # occ.  0.00000000
 
ion      s      p      d    tot
    1  0.015  0.286  0.000  0.301
    2  0.015  0.286  0.000  0.301
tot    0.031  0.571  0.000  0.602
 
band     8 # energy    3.10476930 # occ.  0.00000000
 
ion      s      p      d    tot
    1  0.000  0.414  0.000  0.414
    2  0.000  0.414  0.000  0.414
tot    0.000  0.828  0.000  0.828
 
band     9 # energy    8.99280502 # occ.  0.00000000
 
ion      s      p      d    tot
    1  0.002  0.022  0.000  0.025
    2  0.002  0.022  0.000  0.025
tot    0.005  0.045  0.000  0.050
 
band    10 # energy    9.58853751 # occ.  0.00000000
 
ion      s      p      d    tot
    1  0.004  0.026  0.000  0.030
    2  0.004  0.026  0.000  0.030
tot    0.007  0.053  0.000  0.060
 
band    11 # energy   10.55506295 # occ.  0.00000000
 
ion      s      p      d    tot
    1  0.000  0.005  0.000  0.005
    2  0.000  0.005  0.000  0.005
tot    0.000  0.009  0.000  0.009
 
band    12 # energy   11.64913315 # occ.  0.00000000
 
ion      s      p      d    tot
    1  0.002  0.022  0.000  0.024
    2  0.002  0.022  0.000  0.024
tot    0.003  0.045  0.000  0.048
 

 k-point    11 :    0.50000000 0.00000000 0.00000000     weight = 0.00250000

band     1 # energy  -24.22837950 # occ.  2.00000000
 
ion      s      p      d    tot
    1  0.304  0.076  0.000  0.380
    2  0.304  0.076  0.000  0.380
tot    0.608  0.152  0.000  0.761
 
band     2 # energy  -21.33326469 # occ.  2.00000000
 
ion      s      p      d    tot
    1  0.174  0.178  0.000  0.352
    2  0.174  0.178  0.000  0.352
tot    0.348  0.356  0.000  0.704
 
band     3 # energy  -11.78850504 # occ.  2.00000000
 
ion      s      p      d    tot
    1  0.000  0.394  0.000  0.394
    2  0.000  0.394  0.000  0.394
tot    0.000  0.787  0.000  0.787
 
band     4 # energy   -9.61689524 # occ.  2.00000000
 
ion      s      p      d    tot
    1  0.133  0.211  0.000  0.344
    2  0.133  0.211  0.000  0.344
tot    0.266  0.423  0.000  0.689
 
band     5 # energy   -7.08371557 # occ.  2.00000000
 
ion      s      p      d    tot
    1  0.059  0.278  0.000  0.337
    2  0.059  0.278  0.000  0.337
tot    0.118  0.556  0.000  0.674
 
band     6 # energy   -1.05862721 # occ.  0.00000000
 
ion      s      p      d    tot
    1  0.118  0.205  0.000  0.323
    2  0.118  0.205  0.000  0.323
tot    0.236  0.409  0.000  0.645
 
band     7 # energy    2.52671864 # occ.  0.00000000
 
ion      s      p      d    tot
    1  0.012  0.288  0.000  0.300
    2  0.012  0.288  0.000  0.300
tot    0.023  0.577  0.000  0.600
 
band     8 # energy    3.14263176 # occ.  0.00000000
 
ion      s      p      d    tot
    1  0.000  0.413  0.000  0.413
    2  0.000  0.413  0.000  0.413
tot    0.000  0.826  0.000  0.826
 
band     9 # energy    9.79581630 # occ.  0.00000000
 
ion      s      p      d    tot
    1  0.000  0.012  0.000  0.013
    2  0.000  0.012  0.000  0.013
tot    0.001  0.024  0.000  0.025
 
band    10 # energy   11.12654473 # occ.  0.00000000
 
ion      s      p      d    tot
    1  0.001  0.065  0.000  0.066
    2  0.001  0.065  0.000  0.066
tot    0.002  0.131  0.000  0.132
 
band    11 # energy   11.27996855 # occ.  0.00000000
 
ion      s      p      d    tot
    1  0.007  0.010  0.000  0.016
    2  0.007  0.010  0.000  0.016
tot    0.013  0.020  0.000  0.033
 
band    12 # energy   11.39479887 # occ.  0.00000000
 
ion      s      p      d    tot
    1  0.002  0.010  0.000  0.012
    2  0.002  0.010  0.000  0.012
tot    0.005  0.019  0.000  0.024
 

 k-point    12 :    0.05000000 0.05000000 0.00000000     weight = 0.00500000

band     1 # energy  -29.82214391 # occ.  2.00000000
 
ion      s      p      d    tot
    1  0.316  0.028  0.000  0.345
    2  0.316  0.028  0.000  0.345
tot    0.633  0.056  0.000  0.689
 
band     2 # energy  -14.30707630 # occ.  2.00000000
 
ion      s      p      d    tot
    1  0.151  0.131  0.000  0.282
    2  0.151  0.131  0.000  0.282
tot    0.302  0.262  0.000  0.564
 
band     3 # energy   -9.50340876 # occ.  2.00000000
 
ion      s      p      d    tot
    1  0.032  0.383  0.000  0.415
    2  0.032  0.383  0.000  0.415
tot    0.065  0.766  0.000  0.830
 
band     4 # energy   -8.78499705 # occ.  2.00000000
 
ion      s      p      d    tot
    1  0.000  0.417  0.000  0.417
    2  0.000  0.417  0.000  0.417
tot    0.000  0.834  0.000  0.835
 
band     5 # energy   -5.53238680 # occ.  2.00000000
 
ion      s      p      d    tot
    1  0.004  0.282  0.000  0.286
    2  0.004  0.282  0.000  0.286
tot    0.008  0.564  0.000  0.572
 
band     6 # energy   -0.06470343 # occ.  0.00000000
 
ion      s      p      d    tot
    1  0.010  0.376  0.000  0.385
    2  0.010  0.376  0.000  0.385
tot    0.020  0.751  0.000  0.771
 
band     7 # energy    0.16774314 # occ.  0.00000000
 
ion      s      p      d    tot
    1  0.053  0.350  0.000  0.402
    2  0.053  0.350  0.000  0.402
tot    0.106  0.699  0.000  0.805
 
band     8 # energy    1.11420418 # occ.  0.00000000
 
ion      s      p      d    tot
    1  0.206  0.236  0.000  0.442
    2  0.206  0.236  0.000  0.442
tot    0.412  0.471  0.000  0.884
 
band     9 # energy    2.36115292 # occ.  0.00000000
 
ion      s      p      d    tot
    1  0.001  0.014  0.000  0.014
    2  0.001  0.014  0.000  0.014
tot    0.001  0.027  0.000  0.028
 
band    10 # energy    2.52228930 # occ.  0.00000000
 
ion      s      p      d    tot
    1  0.002  0.018  0.000  0.020
    2  0.002  0.018  0.000  0.020
tot    0.003  0.037  0.000  0.040
 
band    11 # energy    3.61702480 # occ.  0.00000000
 
ion      s      p      d    tot
    1  0.002  0.019  0.000  0.021
    2  0.002  0.019  0.000  0.021
tot    0.004  0.039  0.000  0.043
 
band    12 # energy    4.60604958 # occ.  0.00000000
 
ion      s      p      d    tot
    1  0.003  0.007  0.000  0.010
    2  0.003  0.007  0.000  0.010
tot    0.005  0.015  0.000  0.020
 

 k-point    13 :    0.10000000 0.05000000 0.00000000     weight = 0.01000000

band     1 # energy  -29.53521976 # occ.  2.00000000
 
ion      s      p      d    tot
    1  0.314  0.032  0.000  0.346
    2  0.314  0.032  0.000  0.346
tot    0.627  0.064  0.000  0.691
 
band     2 # energy  -14.04966264 # occ.  2.00000000
 
ion      s      p      d    tot
    1  0.158  0.128  0.000  0.286
    2  0.158  0.128  0.000  0.286
tot    0.316  0.257  0.000  0.573
 
band     3 # energy  -10.68543732 # occ.  2.00000000
 
ion      s      p      d    tot
    1  0.053  0.353  0.000  0.407
    2  0.053  0.353  0.000  0.407
tot    0.107  0.707  0.000  0.813
 
band     4 # energy   -9.24875404 # occ.  2.00000000
 
ion      s      p      d    tot
    1  0.001  0.410  0.000  0.411
    2  0.001  0.410  0.000  0.411
tot    0.002  0.820  0.000  0.822
 
band     5 # energy   -5.41482993 # occ.  2.00000000
 
ion      s      p      d    tot
    1  0.005  0.290  0.000  0.295
    2  0.005  0.290  0.000  0.295
tot    0.011  0.579  0.000  0.590
 
band     6 # energy   -0.22313261 # occ.  0.00000000
 
ion      s      p      d    tot
    1  0.044  0.337  0.000  0.381
    2  0.044  0.337  0.000  0.381
tot    0.088  0.673  0.000  0.761
 
band     7 # energy    0.52019806 # occ.  0.00000000
 
ion      s      p      d    tot
    1  0.038  0.365  0.000  0.404
    2  0.038  0.365  0.000  0.404
tot    0.077  0.731  0.000  0.808
 