<?xml version="1.0" encoding="ISO-8859-1"?>
<modeling>
 <generator>
  <i name="program" type="string">vasp </i>
  <i name="version" type="string">6.4.2  </i>
  <i name="subversion" type="string">20Jul23 (build Nov 14 2023 12:59:38) complex                          parallel </i>
  <i name="platform" type="string">LinuxIFC </i>
  <i name="date" type="string">2023 12 16 </i>
  <i name="time" type="string">19:26:06 </i>
 </generator>
 <incar>
  <i type="string" name="PREC">Accurate</i>
  <i type="string" name="ALGO">Normal</i>
  <i type="logical" name="ADDGRID"> T  </i>
  <i type="int" name="ISPIN">     1</i>
  <i name="AMIX">      0.10000000</i>
  <i name="BMIX">      0.00010000</i>
  <i type="int" name="NELM">   200</i>
  <i type="int" name="NELMDL">   -12</i>
  <i type="int" name="NELMIN">     6</i>
  <i type="int" name="IBRION">     2</i>
  <i name="EDIFF">      0.00000100</i>
  <i name="EDIFFG">     -0.01000000</i>
  <i type="int" name="NSW">    30</i>
  <i type="int" name="ISIF">     3</i>
  <i name="ENCUT">    841.80400000</i>
  <i name="POTIM">      0.50000000</i>
  <i type="int" name="NEDOS">  6001</i>
  <i type="logical" name="LPLANE"> T  </i>
  <i type="int" name="ISMEAR">     0</i>
  <i name="SIGMA">      0.01000000</i>
  <i type="int" name="NWRITE">     1</i>
  <i type="logical" name="LWAVE"> F  </i>
  <i type="logical" name="LCHARG"> F  </i>
  <i type="int" name="LORBIT">    10</i>
  <i type="logical" name="LASPH"> T  </i>
  <i type="int" name="IVDW">     0</i>
 </incar>
 <primitive_cell>
  <structure name="primitive_cell" >
   <crystal>
    <varray name="basis" >
     <v>       2.29449859       0.00000000       0.00000000 </v>
     <v>      -1.14724930       1.98709407       0.00000000 </v>
     <v>       0.00000000       0.00000000      16.00000000 </v>
    </varray>
    <i name="volume">     72.95015287 </i>
    <varray name="rec_basis" >
     <v>       0.43582507       0.25162372       0.00000000 </v>
     <v>       0.00000000       0.50324744       0.00000000 </v>
     <v>       0.00000000       0.00000000       0.06250000 </v>
    </varray>
   </crystal>
   <varray name="positions" >
    <v>       0.66666667       0.33333333       0.47822185 </v>
    <v>       0.33333333       0.66666667       0.52177815 </v>
   </varray>
  </structure>
  <varray name="primitive_index" >
   <v type="int" >        1 </v>
   <v type="int" >        2 </v>
  </varray>
 </primitive_cell>
 <kpoints>
  <generation param="Auto">
   <i name="subdivisionlength">     40.00000000 </i>
   <v type="int" name="divisions">      20       20        3 </v>
   <v name="usershift">      0.00000000       0.00000000       0.00000000 </v>
   <v name="genvec1">      0.05000000       0.00000000       0.00000000 </v>
   <v name="genvec2">      0.00000000       0.05000000       0.00000000 </v>
   <v name="genvec3">      0.00000000       0.00000000       0.33333333 </v>
   <v name="shift">      0.00000000       0.00000000       0.00000000 </v>
  </generation>
  <varray name="kpointlist" >
   <v>       0.00000000       0.00000000       0.00000000 </v>
   <v>       0.05000000      -0.00000000       0.00000000 </v>
   <v>       0.10000000      -0.00000000       0.00000000 </v>
   <v>       0.15000000      -0.00000000       0.00000000 </v>
   <v>       0.20000000      -0.00000000       0.00000000 </v>
   <v>       0.25000000       0.00000000       0.00000000 </v>
   <v>       0.30000000      -0.00000000       0.00000000 </v>
   <v>       0.35000000      -0.00000000       0.00000000 </v>
   <v>       0.40000000      -0.00000000       0.00000000 </v>
   <v>       0.45000000      -0.00000000       0.00000000 </v>
   <v>       0.50000000       0.00000000       0.00000000 </v>
   <v>       0.05000000       0.05000000       0.00000000 </v>
   <v>       0.10000000       0.05000000       0.00000000 </v>
   <v>       0.15000000       0.05000000       0.00000000 </v>
   <v>       0.20000000       0.05000000       0.00000000 </v>
   <v>       0.25000000       0.05000000       0.00000000 </v>
   <v>       0.30000000       0.05000000       0.00000000 </v>
   <v>       0.35000000       0.05000000       0.00000000 </v>
   <v>       0.40000000       0.05000000       0.00000000 </v>
   <v>       0.45000000       0.05000000       0.00000000 </v>
   <v>       0.10000000       0.10000000       0.00000000 </v>
   <v>       0.15000000       0.10000000       0.00000000 </v>
   <v>       0.20000000       0.10000000       0.00000000 </v>
   <v>       0.25000000       0.10000000       0.00000000 </v>
   <v>       0.30000000       0.10000000       0.00000000 </v>
   <v>       0.35000000       0.10000000       0.00000000 </v>
   <v>       0.40000000       0.10000000       0.00000000 </v>
   <v>       0.45000000       0.10000000       0.00000000 </v>
   <v>       0.15000000       0.15000000       0.00000000 </v>
   <v>       0.20000000       0.15000000       0.00000000 </v>
   <v>       0.25000000       0.15000000       0.00000000 </v>
   <v>       0.30000000       0.15000000       0.00000000 </v>
   <v>       0.35000000       0.15000000       0.00000000 </v>
   <v>       0.40000000       0.15000000       0.00000000 </v>
   <v>       0.20000000       0.20000000       0.00000000 </v>
   <v>       0.25000000       0.20000000       0.00000000 </v>
   <v>       0.30000000       0.20000000       0.00000000 </v>
   <v>       0.35000000       0.20000000       0.00000000 </v>
   <v>       0.40000000       0.20000000       0.00000000 </v>
   <v>       0.25000000       0.25000000       0.00000000 </v>
   <v>       0.30000000       0.25000000       0.00000000 </v>
   <v>       0.35000000       0.25000000       0.00000000 </v>
   <v>       0.30000000       0.30000000       0.00000000 </v>
   <v>       0.35000000       0.30000000       0.00000000 </v>
   <v>       0.00000000       0.00000000       0.33333333 </v>
   <v>       0.05000000      -0.00000000       0.33333333 </v>
   <v>       0.00000000       0.05000000       0.33333333 </v>
   <v>       0.10000000      -0.00000000       0.33333333 </v>
   <v>       0.00000000       0.10000000       0.33333333 </v>
   <v>       0.15000000      -0.00000000       0.33333333 </v>
   <v>       0.00000000       0.15000000       0.33333333 </v>
   <v>       0.20000000      -0.00000000       0.33333333 </v>
   <v>       0.00000000       0.20000000       0.33333333 </v>
   <v>       0.25000000       0.00000000       0.33333333 </v>
   <v>       0.00000000       0.25000000       0.33333333 </v>
   <v>       0.30000000      -0.00000000       0.33333333 </v>
   <v>       0.00000000       0.30000000       0.33333333 </v>
   <v>       0.35000000      -0.00000000       0.33333333 </v>
   <v>       0.00000000       0.35000000       0.33333333 </v>
   <v>       0.40000000      -0.00000000       0.33333333 </v>
   <v>       0.00000000       0.40000000       0.33333333 </v>
   <v>       0.45000000      -0.00000000       0.33333333 </v>
   <v>       0.00000000       0.45000000       0.33333333 </v>
   <v>       0.50000000       0.00000000       0.33333333 </v>
   <v>       0.05000000       0.05000000       0.33333333 </v>
   <v>       0.10000000       0.05000000       0.33333333 </v>
   <v>      -0.05000000       0.15000000       0.33333333 </v>
   <v>       0.15000000       0.05000000       0.33333333 </v>
   <v>      -0.05000000       0.20000000       0.33333333 </v>
   <v>       0.20000000       0.05000000       0.33333333 </v>
   <v>      -0.05000000       0.25000000       0.33333333 </v>
   <v>       0.25000000       0.05000000       0.33333333 </v>
   <v>      -0.05000000       0.30000000       0.33333333 </v>
   <v>       0.30000000       0.05000000       0.33333333 </v>
   <v>      -0.05000000       0.35000000       0.33333333 </v>
   <v>       0.35000000       0.05000000       0.33333333 </v>
   <v>      -0.05000000       0.40000000       0.33333333 </v>
   <v>       0.40000000       0.05000000       0.33333333 </v>
   <v>      -0.05000000       0.45000000       0.33333333 </v>
   <v>       0.45000000       0.05000000       0.33333333 </v>
   <v>      -0.05000000       0.50000000       0.33333333 </v>
   <v>       0.10000000       0.10000000       0.33333333 </v>
   <v>       0.15000000       0.10000000       0.33333333 </v>
   <v>      -0.10000000       0.25000000       0.33333333 </v>
   <v>       0.20000000       0.10000000       0.33333333 </v>
   <v>      -0.10000000       0.30000000       0.33333333 </v>
   <v>       0.25000000       0.10000000       0.33333333 </v>
   <v>      -0.10000000       0.35000000       0.33333333 </v>
   <v>       0.30000000       0.10000000       0.33333333 </v>
   <v>      -0.10000000       0.40000000       0.33333333 </v>
   <v>       0.35000000       0.10000000       0.33333333 </v>
   <v>      -0.10000000       0.45000000       0.33333333 </v>
   <v>       0.40000000       0.10000000       0.33333333 </v>
   <v>      -0.10000000       0.50000000       0.33333333 </v>
   <v>       0.45000000       0.10000000       0.33333333 </v>
   <v>       0.15000000       0.15000000       0.33333333 </v>
   <v>       0.20000000       0.15000000       0.33333333 </v>
   <v>      -0.15000000       0.35000000       0.33333333 </v>
   <v>       0.25000000       0.15000000       0.33333333 </v>
   <v>      -0.15000000       0.40000000       0.33333333 </v>
   <v>       0.30000000       0.15000000       0.33333333 </v>
   <v>      -0.15000000       0.45000000       0.33333333 </v>
   <v>       0.35000000       0.15000000       0.33333333 </v>
   <v>      -0.15000000       0.50000000       0.33333333 </v>
   <v>       0.40000000       0.15000000       0.33333333 </v>
   <v>      -0.15000000      -0.45000000       0.33333333 </v>
   <v>       0.20000000       0.20000000       0.33333333 </v>
   <v>       0.25000000       0.20000000       0.33333333 </v>
   <v>      -0.20000000       0.45000000       0.33333333 </v>
   <v>       0.30000000       0.20000000       0.33333333 </v>
   <v>      -0.20000000       0.50000000       0.33333333 </v>
   <v>       0.35000000       0.20000000       0.33333333 </v>
   <v>      -0.20000000      -0.45000000       0.33333333 </v>
   <v>       0.40000000       0.20000000       0.33333333 </v>
   <v>       0.25000000       0.25000000       0.33333333 </v>
   <v>       0.30000000       0.25000000       0.33333333 </v>
   <v>      -0.25000000      -0.45000000       0.33333333 </v>
   <v>       0.35000000       0.25000000       0.33333333 </v>
   <v>      -0.25000000      -0.40000000       0.33333333 </v>
   <v>       0.30000000       0.30000000       0.33333333 </v>
   <v>       0.35000000       0.30000000       0.33333333 </v>
  </varray>
  <varray name="weights" >
   <v>       0.00083333 </v>
   <v>       0.00500000 </v>
   <v>       0.00500000 </v>
   <v>       0.00500000 </v>
   <v>       0.00500000 </v>
   <v>       0.00500000 </v>
   <v>       0.00500000 </v>
   <v>       0.00500000 </v>
   <v>       0.00500000 </v>
   <v>       0.00500000 </v>
   <v>       0.00250000 </v>
   <v>       0.00500000 </v>
   <v>       0.01000000 </v>
   <v>       0.01000000 </v>
   <v>       0.01000000 </v>
   <v>       0.01000000 </v>
   <v>       0.01000000 </v>
   <v>       0.01000000 </v>
   <v>       0.01000000 </v>
   <v>       0.01000000 </v>
   <v>       0.00500000 </v>
   <v>       0.01000000 </v>
   <v>       0.01000000 </v>
   <v>       0.01000000 </v>
   <v>       0.01000000 </v>
   <v>       0.01000000 </v>
   <v>       0.01000000 </v>
   <v>       0.00500000 </v>
   <v>       0.00500000 </v>
   <v>       0.01000000 </v>
   <v>       0.01000000 </v>
   <v>       0.01000000 </v>
   <v>       0.01000000 </v>
   <v>       0.01000000 </v>
   <v>       0.00500000 </v>
   <v>       0.01000000 </v>
   <v>       0.01000000 </v>
   <v>       0.01000000 </v>
   <v>       0.00500000 </v>
   <v>       0.00500000 </v>
   <v>       0.01000000 </v>
   <v>       0.01000000 </v>
   <v>       0.00500000 </v>
   <v>       0.00500000 </v>
   <v>       0.00166667 </v>
   <v>       0.00500000 </v>
   <v>       0.00500000 </v>
   <v>       0.00500000 </v>
   <v>       0.00500000 </v>
   <v>       0.00500000 </v>
   <v>       0.00500000 </v>
   <v>       0.00500000 </v>
   <v>       0.00500000 </v>
   <v>       0.00500000 </v>
   <v>       0.00500000 </v>
   <v>       0.00500000 </v>
   <v>       0.00500000 </v>
   <v>       0.00500000 </v>
   <v>       0.00500000 </v>
   <v>       0.00500000 </v>
   <v>       0.00500000 </v>
   <v>       0.00500000 </v>
   <v>       0.00500000 </v>
   <v>       0.00500000 </v>
   <v>       0.01000000 </v>
   <v>       0.01000000 </v>
   <v>       0.01000000 </v>
   <v>       0.01000000 </v>
   <v>       0.01000000 </v>
   <v>       0.01000000 </v>
   <v>       0.01000000 </v>
   <v>       0.01000000 </v>
   <v>       0.01000000 </v>
   <v>       0.01000000 </v>
   <v>       0.01000000 </v>
   <v>       0.01000000 </v>
   <v>       0.01000000 </v>
   <v>       0.01000000 </v>
   <v>       0.01000000 </v>
   <v>       0.01000000 </v>
   <v>       0.01000000 </v>
   <v>       0.01000000 </v>
   <v>       0.01000000 </v>
   <v>       0.01000000 </v>
   <v>       0.01000000 </v>
   <v>       0.01000000 </v>
   <v>       0.01000000 </v>
   <v>       0.01000000 </v>
   <v>       0.01000000 </v>
   <v>       0.01000000 </v>
   <v>       0.01000000 </v>
   <v>       0.01000000 </v>
   <v>       0.01000000 </v>
   <v>       0.01000000 </v>
   <v>       0.01000000 </v>
   <v>       0.01000000 </v>
   <v>       0.01000000 </v>
   <v>       0.01000000 </v>
   <v>       0.01000000 </v>
   <v>       0.01000000 </v>
   <v>       0.01000000 </v>
   <v>       0.01000000 </v>
   <v>       0.01000000 </v>
   <v>       0.01000000 </v>
   <v>       0.01000000 </v>
   <v>       0.01000000 </v>
   <v>       0.01000000 </v>
   <v>       0.01000000 </v>
   <v>       0.01000000 </v>
   <v>       0.01000000 </v>
   <v>       0.01000000 </v>
   <v>       0.01000000 </v>
   <v>       0.01000000 </v>
   <v>       0.01000000 </v>
   <v>       0.01000000 </v>
   <v>       0.01000000 </v>
   <v>       0.01000000 </v>
   <v>       0.01000000 </v>
   <v>       0.01000000 </v>
   <v>       0.01000000 </v>
   <v>       0.01000000 </v>
  </varray>
 </kpoints>
 <parameters>
  <separator name="general" >
   <i type="string" name="SYSTEM">unknown system</i>
   <i type="logical" name="LCOMPAT"> F  </i>
  </separator>
  <separator name="electronic" >
   <i type="string" name="PREC">accura</i>
   <i name="ENMAX">    841.80400000</i>
   <i name="ENAUG">    904.64000000</i>
   <i name="EDIFF">      0.00000100</i>
   <i type="int" name="IALGO">    38</i>
   <i type="int" name="IWAVPR">    11</i>
   <i type="int" name="NBANDS">    12</i>
   <i type="int" name="NBANDSLOW">    -1</i>
   <i type="int" name="NBANDSHIGH">    -1</i>
   <i name="NELECT">     10.00000000</i>
   <i type="int" name="TURBO">     0</i>
   <i type="int" name="IRESTART">     0</i>
   <i type="int" name="NREBOOT">     0</i>
   <i type="int" name="NMIN">     0</i>
   <i name="EREF">      0.00000000</i>
   <separator name="electronic smearing" >
    <i type="int" name="ISMEAR">     0</i>
    <i name="SIGMA">      0.01000000</i>
    <i name="KSPACING">      0.50000000</i>
    <i type="logical" name="KGAMMA"> T  </i>
    <i type="logical" name="KBLOWUP"> T  </i>
   </separator>
   <separator name="electronic projectors" >
    <i type="logical" name="LREAL"> F  </i>
    <v name="ROPT">      0.00000000</v>
    <i type="int" name="LMAXPAW">  -100</i>
    <i type="int" name="LMAXMIX">     2</i>
    <i type="logical" name="NLSPLINE"> F  </i>
   </separator>
   <separator name="electronic startup" >
    <i type="int" name="ISTART">     0</i>
    <i type="int" name="ICHARG">     2</i>
    <i type="int" name="INIWAV">     1</i>
   </separator>
   <separator name="electronic spin" >
    <i type="int" name="ISPIN">     1</i>
    <i type="logical" name="LNONCOLLINEAR"> F  </i>
    <v name="MAGMOM">      1.00000000      1.00000000</v>
    <i name="NUPDOWN">     -1.00000000</i>
    <i type="logical" name="LSORBIT"> F  </i>
    <v name="SAXIS">      0.00000000      0.00000000      1.00000000</v>
    <i type="logical" name="LSPIRAL"> F  </i>
    <v name="QSPIRAL">      0.00000000      0.00000000      0.00000000</v>
    <i type="logical" name="LZEROZ"> F  </i>
   </separator>
   <separator name="electronic exchange-correlation" >
    <i type="logical" name="LASPH"> T  </i>
    <i type="logical" name="LMETAGGA"> F  </i>
   </separator>
   <separator name="electronic convergence" >
    <i type="int" name="NELM">   200</i>
    <i type="int" name="NELMDL">   -12</i>
    <i type="int" name="NELMIN">     6</i>
    <i name="ENINI">    841.80400000</i>
    <separator name="electronic convergence detail" >
     <i type="logical" name="LDIAG"> T  </i>
     <i type="logical" name="LSUBROT"> F  </i>
     <i name="WEIMIN">      0.00100000</i>
     <i name="EBREAK">      0.00000002</i>
     <i name="DEPER">      0.30000000</i>
     <i type="int" name="NRMM">     4</i>
     <i name="TIME">      0.40000000</i>
    </separator>
   </separator>
   <separator name="electronic mixer" >
    <i name="AMIX">      0.10000000</i>
    <i name="BMIX">      0.00010000</i>
    <i name="AMIN">      0.10000000</i>
    <i name="AMIX_MAG">      0.40000000</i>
    <i name="BMIX_MAG">      0.00010000</i>
    <separator name="electronic mixer details" >
     <i type="int" name="IMIX">     4</i>
     <i type="logical" name="MIXFIRST"> F  </i>
     <i type="int" name="MAXMIX">   -45</i>
     <i name="WC">    100.00000000</i>
     <i type="int" name="INIMIX">     1</i>
     <i type="int" name="MIXPRE">     1</i>
     <i type="int" name="MREMOVE">     5</i>
    </separator>
   </separator>
   <separator name="electronic dipolcorrection" >
    <i type="logical" name="LDIPOL"> F  </i>
    <i type="logical" name="LMONO"> F  </i>
    <i type="int" name="IDIPOL">     0</i>
    <i name="EPSILON">      1.00000000</i>
    <v name="DIPOL">   -100.00000000   -100.00000000   -100.00000000</v>
    <i name="EFIELD">      0.00000000</i>
   </separator>
  </separator>
  <separator name="grids" >
   <i type="int" name="NGX">    24</i>
   <i type="int" name="NGY">    24</i>
   <i type="int" name="NGZ">   160</i>
   <i type="int" name="NGXF">    48</i>
   <i type="int" name="NGYF">    48</i>
   <i type="int" name="NGZF">   320</i>
   <i type="logical" name="ADDGRID"> T  </i>
  </separator>
  <separator name="ionic" >
   <i type="int" name="NSW">    30</i>
   <i type="int" name="IBRION">     2</i>
   <i type="int" name="MDALGO">     0</i>
   <i type="int" name="ISIF">     3</i>
   <i name="PSTRESS">      0.00000000</i>
   <i name="EDIFFG">     -0.01000000</i>
   <i type="int" name="NFREE">     1</i>
   <i name="POTIM">      0.50000000</i>
   <i name="SMASS">     -3.00000000</i>
   <i name="SCALEE">      1.00000000</i>
  </separator>
  <separator name="ionic md" >
   <i name="TEBEG">      0.00010000</i>
   <i name="TEEND">      0.00010000</i>
   <i type="int" name="NBLOCK">     1</i>
   <i type="int" name="KBLOCK">    30</i>
   <i type="int" name="NPACO">   256</i>
   <i name="APACO">     10.00000000</i>
  </separator>
  <separator name="symmetry" >
   <i type="int" name="ISYM">     2</i>
   <i name="SYMPREC">      0.00001000</i>
  </separator>
  <separator name="dos" >
   <i type="int" name="LORBIT">    10</i>
   <v name="RWIGS">     -1.00000000</v>
   <i type="int" name="NEDOS">  6001</i>
   <i name="EMIN">     10.00000000</i>
   <i name="EMAX">    -10.00000000</i>
   <i name="EFERMI">      0.00000000</i>
  </separator>
  <separator name="writing" >
   <i type="int" name="NWRITE">     1</i>
   <i type="logical" name="LWAVE"> F  </i>
   <i type="logical" name="LDOWNSAMPLE"> F  </i>
   <i type="logical" name="LCHARG"> F  </i>
   <i type="logical" name="LPARD"> F  </i>
   <i type="logical" name="LVTOT"> F  </i>
   <i type="logical" name="LVHAR"> F  </i>
   <i type="logical" name="LELF"> F  </i>
   <i type="logical" name="LOPTICS"> F  </i>
   <v name="STM">      0.00000000      0.00000000      0.00000000      0.00000000      0.00000000      0.00000000      0.00000000</v>
  </separator>
  <separator name="performance" >
   <i type="int" name="NPAR">     4</i>
   <i type="int" name="NSIM">     4</i>
   <i type="int" name="NBLK">    -1</i>
   <i type="logical" name="LPLANE"> T  </i>
   <i type="logical" name="LSCALAPACK"> T  </i>
   <i type="logical" name="LSCAAWARE"> F  </i>
   <i type="logical" name="LSCALU"> F  </i>
   <i type="logical" name="LASYNC"> F  </i>
   <i type="logical" name="LORBITALREAL"> F  </i>
  </separator>
  <separator name="miscellaneous" >
   <i type="int" name="IDIOT">     3</i>
   <i type="int" name="PHON_NSTRUCT">    -1</i>
   <i type="logical" name="LMUSIC"> F  </i>
   <v name="POMASS">     14.00100000</v>
   <v name="DARWINR">      0.00000000</v>
   <v name="DARWINV">      1.00000000</v>
   <i type="logical" name="LCORR"> T  </i>
  </separator>
  <i type="logical" name="GGA_COMPAT"> T  </i>
  <i type="logical" name="LBERRY"> F  </i>
  <i type="int" name="ICORELEVEL">     0</i>
  <i type="logical" name="LDAU"> F  </i>
  <i type="int" name="I_CONSTRAINED_M">     0</i>
  <separator name="electronic exchange-correlation" >
   <i type="string" name="GGA">--</i>
   <i type="int" name="VOSKOWN">     0</i>
   <i type="logical" name="LHFCALC"> F  </i>
   <i type="string" name="PRECFOCK"></i>
   <i type="logical" name="LSYMGRAD"> F  </i>
   <i type="logical" name="LHFONE"> F  </i>
   <i type="logical" name="LRHFCALC"> F  </i>
   <i type="logical" name="LTHOMAS"> F  </i>
   <i type="logical" name="LMODELHF"> F  </i>
   <i type="logical" name="LFOCKACE"> F  </i>
   <i name="ENCUT4O">     -1.00000000</i>
   <i type="int" name="EXXOEP">     0</i>
   <i type="int" name="FOURORBIT">     0</i>
   <i name="AEXX">      0.00000000</i>
   <i name="HFALPHA">      0.00000000</i>
   <i name="MCALPHA">      0.00000000</i>
   <i name="ALDAX">      1.00000000</i>
   <i name="AGGAX">      1.00000000</i>
   <i name="ALDAC">      1.00000000</i>
   <i name="AGGAC">      1.00000000</i>
   <i type="int" name="NKREDX">     1</i>
   <i type="int" name="NKREDY">     1</i>
   <i type="int" name="NKREDZ">     1</i>
   <i type="logical" name="SHIFTRED"> F  </i>
   <i type="logical" name="ODDONLY"> F  </i>
   <i type="logical" name="EVENONLY"> F  </i>
   <i type="int" name="LMAXFOCK">     0</i>
   <i type="int" name="NMAXFOCKAE">     0</i>
   <i type="logical" name="LFOCKAEDFT"> F  </i>
   <i name="HFSCREEN">      0.00000000</i>
   <i name="HFSCREENC">      0.00000000</i>
   <i type="int" name="NBANDSGWLOW">     0</i>
  </separator>
  <separator name="vdW DFT" >
   <i type="logical" name="LUSE_VDW"> F  </i>
   <i type="int" name="IVDW_NL">     1</i>
   <i type="logical" name="LSPIN_VDW"> F  </i>
   <i name="Zab_VDW">     -0.84910000</i>
   <i name="PARAM1">      0.12340000</i>
   <i name="PARAM2">      1.00000000</i>
   <i name="PARAM3">      0.00000000</i>
  </separator>
  <separator name="model GW" >
   <i type="int" name="MODEL_GW">     0</i>
   <i name="MODEL_EPS0">     21.88504586</i>
   <i name="MODEL_ALPHA">      1.00000000</i>
  </separator>
  <separator name="linear response parameters" >
   <i type="logical" name="LEPSILON"> F  </i>
   <i type="logical" name="LRPA"> F  </i>
   <i type="logical" name="LNABLA"> F  </i>
   <i type="logical" name="LVEL"> F  </i>
   <i name="CSHIFT">      0.10000000</i>
   <i name="OMEGAMAX">     -1.00000000</i>
   <i name="DEG_THRESHOLD">      0.00200000</i>
   <i name="RTIME">     -0.10000000</i>
   <i name="WPLASMAI">      0.00000000</i>
   <v name="DFIELD">      0.00000000      0.00000000      0.00000000</v>
   <v name="WPLASMA">      0.00000000      0.00000000      0.00000000      0.00000000      0.00000000      0.00000000      0.00000000      0.00000000      0.00000000</v>
  </separator>
  <separator name="orbital magnetization" >
   <i type="logical" name="NUCIND"> F  </i>
   <v name="MAGPOS">      0.00000000      0.00000000      0.00000000</v>
   <i type="logical" name="LNICSALL"> T  </i>
   <i type="logical" name="ORBITALMAG"> F  </i>
   <i type="logical" name="LMAGBLOCH"> F  </i>
   <i type="logical" name="LCHIMAG"> F  </i>
   <i type="logical" name="LGAUGE"> T  </i>
   <i type="int" name="MAGATOM">     0</i>
   <v name="MAGDIPOL">      0.00000000      0.00000000      0.00000000</v>
   <v name="AVECCONST">      0.00000000      0.00000000      0.00000000</v>
  </separator>
  <separator name="response functions" >
   <i type="logical" name="LALL_IN_ONE"> F  </i>
   <i type="int" name="IALL_IN_ONE">    -1</i>
   <i type="int" name="NBANDS_WAVE">    -1</i>
   <i type="logical" name="LFINITE_TEMPERATURE"> F  </i>
   <i type="logical" name="LADDER"> F  </i>
   <i type="logical" name="LRPAFORCE"> F  </i>
   <i type="logical" name="LFXC"> F  </i>
   <i type="logical" name="LHARTREE"> T  </i>
   <i type="int" name="IBSE">     0</i>
   <v type="int" name="KPOINT">    -1     0     0     0</v>
   <i type="logical" name="LTCTC"> F  </i>
   <i type="logical" name="LTCTE"> F  </i>
   <i type="logical" name="LTETE"> F  </i>
   <i type="logical" name="LTRIPLET"> F  </i>
   <i type="logical" name="LFXCEPS"> F  </i>
   <i type="logical" name="LFXHEG"> F  </i>
   <i type="int" name="NATURALO">     2</i>
   <i type="logical" name="LHOLEGF"> F  </i>
   <i type="logical" name="L2ORDER"> F  </i>
   <i type="logical" name="LDMP1"> F  </i>
   <i type="logical" name="LMP2LT"> F  </i>
   <i type="logical" name="LSMP2LT"> F  </i>
   <i type="logical" name="LGWLF"> F  </i>
   <i name="ENCUTGW">     -1.60000002</i>
   <i name="ENCUTGWSOFT">     -1.60000002</i>
   <i name="ENCUTLF">     -1.00000000</i>
   <i type="logical" name="LESF_SPLINES"> F  </i>
   <i type="int" name="LMAXMP2">    -1</i>
   <i name="SCISSOR">      0.00000000</i>
   <i type="int" name="NOMEGA">     0</i>
   <i type="int" name="NOMEGAR">     0</i>
   <i type="int" name="NBANDSGW">    -1</i>
   <i type="int" name="NBANDSO">    -1</i>
   <i type="int" name="NBANDSV">    -1</i>
   <i type="int" name="NELMGW">     1</i>
   <i type="int" name="NELMHF">     1</i>
   <i type="int" name="DIM">     3</i>
   <i type="int" name="IESPILON">     4</i>
   <i type="int" name="ANTIRES">     0</i>
   <i name="OMEGAMAX">    -30.00000000</i>
   <i name="OMEGAMIN">    -30.00000000</i>
   <i name="OMEGATL">   -200.00000000</i>
   <i type="int" name="OMEGAGRID">     0</i>
   <i name="CSHIFT">     -0.10000000</i>
   <i type="logical" name="LSELFENERGY"> F  </i>
   <i type="logical" name="LSPECTRAL"> F  </i>
   <i type="logical" name="LSPECTRALGW"> F  </i>
   <i type="logical" name="LSINGLES"> F  </i>
   <i type="logical" name="LFERMIGW"> F  </i>
   <i type="logical" name="ODDONLYGW"> F  </i>
   <i type="logical" name="EVENONLYGW"> F  </i>
   <i type="int" name="NKREDLFX">     1</i>
   <i type="int" name="NKREDLFY">     1</i>
   <i type="int" name="NKREDLFZ">     1</i>
   <i type="int" name="MAXMEM">  2800</i>
   <i type="int" name="TELESCOPE">     0</i>
   <i type="int" name="NTAUPAR">    -1</i>
   <i type="int" name="NOMEGAPAR">    -1</i>
   <i name="DAMP_NEWTON">      0.80000001</i>
   <i name="LAMBDA">      1.00000000</i>
  </separator>
  <separator name="External order field" >
   <i name="OFIELD_KAPPA">      0.00000000</i>
   <v name="OFIELD_K">      0.00000000      0.00000000      0.00000000</v>
   <i name="OFIELD_Q6_NEAR">      0.00000000</i>
   <i name="OFIELD_Q6_FAR">      0.00000000</i>
   <i name="OFIELD_A">      0.00000000</i>
  </separator>
  <separator name="optional k-points parameters" >
   <i type="int" name="KPOINTS_OPT_MODE">     1</i>
   <i type="logical" name="LKPOINTS_OPT"> F  </i>
  </separator>
 </parameters>
 <atominfo>
  <atoms>       2 </atoms>
  <types>       1 </types>
  <array name="atoms" >
   <dimension dim="1">ion</dimension>
   <field type="string">element</field>
   <field type="int">atomtype</field>
   <set>
    <rc><c>N </c><c>   1</c></rc>
    <rc><c>N </c><c>   1</c></rc>
   </set>
  </array>
  <array name="atomtypes" >
   <dimension dim="1">type</dimension>
   <field type="int">atomspertype</field>
   <field type="string">element</field>
   <field>mass</field>
   <field>valence</field>
   <field type="string">pseudopotential</field>
   <set>
    <rc><c>   2</c><c>N </c><c>     14.00100000</c><c>      5.00000000</c><c>  PAW_PBE N_GW 10Apr2007                </c></rc>
   </set>
  </array>
 </atominfo>
 <structure name="initialpos" >
  <crystal>
   <varray name="basis" >
    <v>       2.29449859       0.00000000       0.00000000 </v>
    <v>      -1.14724930       1.98709407       0.00000000 </v>
    <v>       0.00000000       0.00000000      16.00000000 </v>
   </varray>
   <i name="volume">     72.95015287 </i>
   <varray name="rec_basis" >
    <v>       0.43582507       0.25162372       0.00000000 </v>
    <v>       0.00000000       0.50324744       0.00000000 </v>
    <v>       0.00000000       0.00000000       0.06250000 </v>
   </varray>
  </crystal>
  <varray name="positions" >
   <v>       0.66666667       0.33333333       0.47822185 </v>
   <v>       0.33333333       0.66666667       0.52177815 </v>
  </varray>
 </structure>
 <calculation>
  <scstep>
   <time name="dav">    0.99    1.00</time>
   <time name="total">    1.08    1.18</time>
   <energy>
    <i name="alphaZ">      5.96913924 </i>
    <i name="ewald">   1610.65328944 </i>
    <i name="hartreedc">  -2055.25523171 </i>
    <i name="XCdc">     40.24275595 </i>
    <i name="pawpsdc">    409.78799272 </i>
    <i name="pawaedc">   -412.24743296 </i>
    <i name="eentropy">     -0.00005951 </i>
    <i name="bandstr">    -18.26274502 </i>
    <i name="atom">    529.09328782 </i>
    <i name="e_fr_energy">    109.98099596 </i>
    <i name="e_wo_entrp">    109.98105547 </i>
    <i name="e_0_energy">    109.98102571 </i>
   </energy>
  </scstep>
  <scstep>
   <time name="dav">    1.29    1.29</time>
   <time name="total">    1.29    1.29</time>
   <energy>
    <i name="e_fr_energy">     -3.73749645 </i>
    <i name="e_wo_entrp">     -3.73746897 </i>
    <i name="e_0_energy">     -3.73748271 </i>
   </energy>
  </scstep>
  <scstep>
   <time name="dav">    1.22    1.22</time>
   <time name="total">    1.22    1.22</time>
   <energy>
    <i name="e_fr_energy">    -13.89357027 </i>
    <i name="e_wo_entrp">    -13.89357027 </i>
    <i name="e_0_energy">    -13.89357027 </i>
   </energy>
  </scstep>
  <scstep>
   <time name="dav">    1.17    1.17</time>
   <time name="total">    1.17    1.17</time>
   <energy>
    <i name="e_fr_energy">    -14.05413513 </i>
    <i name="e_wo_entrp">    -14.05413513 </i>
    <i name="e_0_energy">    -14.05413513 </i>
   </energy>
  </scstep>
  <scstep>
   <time name="dav">    1.17    1.17</time>
   <time name="total">    1.17    1.17</time>
   <energy>
    <i name="e_fr_energy">    -14.05715873 </i>
    <i name="e_wo_entrp">    -14.05715873 </i>
    <i name="e_0_energy">    -14.05715873 </i>
   </energy>
  </scstep>
  <scstep>
   <time name="dav">    1.24    1.24</time>
   <time name="total">    1.24    1.24</time>
   <energy>
    <i name="e_fr_energy">    -14.05718308 </i>
    <i name="e_wo_entrp">    -14.05718308 </i>
    <i name="e_0_energy">    -14.05718308 </i>
   </energy>
  </scstep>
  <scstep>
   <time name="dav">    1.26    1.26</time>
   <time name="total">    1.26    1.26</time>
   <energy>
    <i name="e_fr_energy">    -14.05718317 </i>
    <i name="e_wo_entrp">    -14.05718317 </i>
    <i name="e_0_energy">    -14.05718317 </i>
   </energy>
  </scstep>
  <scstep>
   <time name="dav">    1.13    1.13</time>
   <time name="total">    1.13    1.13</time>
   <energy>
    <i name="e_fr_energy">    -14.05718317 </i>
    <i name="e_wo_entrp">    -14.05718317 </i>
    <i name="e_0_energy">    -14.05718317 </i>
   </energy>
  </scstep>
  <scstep>
   <time name="dav">    0.86    0.86</time>
   <time name="total">    0.86    0.88</time>
   <energy>
    <i name="e_fr_energy">    -14.05718317 </i>
    <i name="e_wo_entrp">    -14.05718317 </i>
    <i name="e_0_energy">    -14.05718317 </i>
   </energy>
  </scstep>
  <scstep>
   <time name="dav">    0.71    0.72</time>
   <time name="total">    0.72    0.72</time>
   <energy>
    <i name="e_fr_energy">    -14.05718317 </i>
    <i name="e_wo_entrp">    -14.05718317 </i>
    <i name="e_0_energy">    -14.05718317 </i>
   </energy>
  </scstep>
  <scstep>
   <time name="dav">    0.68    0.68</time>
   <time name="total">    0.68    0.68</time>
   <energy>
    <i name="e_fr_energy">    -14.05718317 </i>
    <i name="e_wo_entrp">    -14.05718317 </i>
    <i name="e_0_energy">    -14.05718317 </i>
   </energy>
  </scstep>
  <scstep>
   <time name="dav">    0.68    0.68</time>
   <time name="total">    0.77    0.77</time>
   <energy>
    <i name="e_fr_energy">    -14.05718317 </i>
    <i name="e_wo_entrp">    -14.05718317 </i>
    <i name="e_0_energy">    -14.05718317 </i>
   </energy>
  </scstep>
  <scstep>
   <time name="dav">    1.01    1.01</time>
   <time name="total">    1.18    1.19</time>
   <energy>
    <i name="e_fr_energy">    -13.88992908 </i>
    <i name="e_wo_entrp">    -13.88992908 </i>
    <i name="e_0_energy">    -13.88992908 </i>
   </energy>
  </scstep>
  <scstep>
   <time name="dav">    1.01    1.01</time>
   <time name="total">    1.18    1.18</time>
   <energy>
    <i name="e_fr_energy">    -13.43056508 </i>
    <i name="e_wo_entrp">    -13.43056508 </i>
    <i name="e_0_energy">    -13.43056508 </i>
   </energy>
  </scstep>
  <scstep>
   <time name="dav">    0.96    0.96</time>
   <time name="total">    1.14    1.14</time>
   <energy>
    <i name="e_fr_energy">    -13.43274706 </i>
    <i name="e_wo_entrp">    -13.43274706 </i>
    <i name="e_0_energy">    -13.43274706 </i>
   </energy>
  </scstep>
  <scstep>
   <time name="dav">    1.26    1.26</time>
   <time name="total">    1.43    1.43</time>
   <energy>
    <i name="e_fr_energy">    -13.43400045 </i>
    <i name="e_wo_entrp">    -13.43400045 </i>
    <i name="e_0_energy">    -13.43400045 </i>
   </energy>
  </scstep>
  <scstep>
   <time name="dav">    1.10    1.10</time>
   <time name="total">    1.27    1.27</time>
   <energy>
    <i name="e_fr_energy">    -13.43376641 </i>
    <i name="e_wo_entrp">    -13.43376641 </i>
    <i name="e_0_energy">    -13.43376641 </i>
   </energy>
  </scstep>
  <scstep>
   <time name="dav">    1.24    1.24</time>
   <time name="total">    1.41    1.41</time>
   <energy>
    <i name="e_fr_energy">    -13.43373329 </i>
    <i name="e_wo_entrp">    -13.43373329 </i>
    <i name="e_0_energy">    -13.43373329 </i>
   </energy>
  </scstep>
  <scstep>
   <time name="dav">    1.26    1.26</time>
   <time name="total">    1.43    1.43</time>
   <energy>
    <i name="e_fr_energy">    -13.43373419 </i>
    <i name="e_wo_entrp">    -13.43373419 </i>
    <i name="e_0_energy">    -13.43373419 </i>
   </energy>
  </scstep>
  <scstep>
   <time name="dav">    1.10    1.11</time>
   <time name="total">    1.28    1.28</time>
   <energy>
    <i name="e_fr_energy">    -13.43373661 </i>
    <i name="e_wo_entrp">    -13.43373661 </i>
    <i name="e_0_energy">    -13.43373661 </i>
   </energy>
  </scstep>
  <scstep>
   <time name="dav">    0.85    0.85</time>
   <time name="total">    0.93    0.93</time>
   <energy>
    <i name="alphaZ">      5.96913924 </i>
    <i name="ewald">   1610.65328944 </i>
    <i name="hartreedc">  -2051.56494492 </i>
    <i name="XCdc">     40.83966801 </i>
    <i name="pawpsdc">    528.65132669 </i>
    <i name="pawaedc">   -531.05564208 </i>
    <i name="eentropy">     -0.00000000 </i>
    <i name="bandstr">   -146.01986064 </i>
    <i name="atom">    529.09328782 </i>
    <i name="e_fr_energy">    -13.43373645 </i>
    <i name="e_wo_entrp">    -13.43373645 </i>
    <i name="e_0_energy">    -13.43373645 </i>
   </energy>
  </scstep>
  <structure>
   <crystal>
    <varray name="basis" >
     <v>       2.29449859       0.00000000       0.00000000 </v>
     <v>      -1.14724930       1.98709407       0.00000000 </v>
     <v>       0.00000000       0.00000000      16.00000000 </v>
    </varray>
    <i name="volume">     72.95015287 </i>
    <varray name="rec_basis" >
     <v>       0.43582507       0.25162372       0.00000000 </v>
     <v>       0.00000000       0.50324744       0.00000000 </v>
     <v>       0.00000000       0.00000000       0.06250000 </v>
    </varray>
   </crystal>
   <varray name="positions" >
    <v>       0.66666667       0.33333333       0.47822185 </v>
    <v>       0.33333333       0.66666667       0.52177815 </v>
   </varray>
  </structure>
  <varray name="forces" >
   <v>       0.00000000      -0.00000000       0.00319042 </v>
   <v>      -0.00000000       0.00000000      -0.00319042 </v>
  </varray>
  <varray name="stress" >
   <v>      -0.22440764      -0.00000000      -0.00000000 </v>
   <v>      -0.00000000      -0.22440764       0.00000000 </v>
   <v>       0.00000000       0.00000000      -0.40585390 </v>
  </varray>
  <energy>
   <i name="e_fr_energy">    -13.43373645 </i>
   <i name="e_wo_entrp">    -13.43373645 </i>
   <i name="e_0_energy">    -13.43373645 </i>
  </energy>
  <time name="totalsc">   24.94   25.44</time>
  <eigenvalues>
   <array>
    <dimension dim="1">band</dimension>
    <dimension dim="2">kpoint</dimension>
    <dimension dim="3">spin</dimension>
    <field>eigene</field>
    <field>occ</field>
    <set>
     <set comment="spin 1">
      <set comment="kpoint 1">
       <r>  -30.0380    1.0000 </r>
       <r>  -14.5052    1.0000 </r>
       <r>   -8.3991    1.0000 </r>
       <r>   -8.3991    1.0000 </r>
       <r>   -5.6346    1.0000 </r>
       <r>   -0.0433    0.0000 </r>
       <r>   -0.0433    0.0000 </r>
       <r>    0.3120    0.0000 </r>
       <r>    2.0816    0.0000 </r>
       <r>    2.2498    0.0000 </r>
       <r>    3.3494    0.0000 </r>
       <r>    4.3278    0.0000 </r>
      </set>
      <set comment="kpoint 2">
       <r>  -29.9660    1.0000 </r>
       <r>  -14.4388    1.0000 </r>
       <r>   -8.8017    1.0000 </r>
       <r>   -8.5258    1.0000 </r>
       <r>   -5.5993    1.0000 </r>
       <r>   -0.0867    0.0000 </r>
       <r>    0.0963    0.0000 </r>
       <r>    0.5789    0.0000 </r>
       <r>    2.1749    0.0000 </r>
       <r>    2.3408    0.0000 </r>
       <r>    3.4387    0.0000 </r>
       <r>    4.4206    0.0000 </r>
      </set>
      <set comment="kpoint 3">
       <r>  -29.7503    1.0000 </r>
       <r>  -14.2419    1.0000 </r>
       <r>   -9.8516    1.0000 </r>
       <r>   -8.8698    1.0000 </r>
       <r>   -5.5010    1.0000 </r>
       <r>   -0.2775    0.0000 </r>
       <r>    0.4724    0.0000 </r>
       <r>    1.2874    0.0000 </r>
       <r>    2.4540    0.0000 </r>
       <r>    2.6140    0.0000 </r>
       <r>    3.7066    0.0000 </r>
       <r>    4.6987    0.0000 </r>
      </set>
      <set comment="kpoint 4">
       <r>  -29.3922    1.0000 </r>
       <r>  -13.9259    1.0000 </r>
       <r>  -11.2679    1.0000 </r>
       <r>   -9.3495    1.0000 </r>
       <r>   -5.3654    1.0000 </r>
       <r>   -0.5653    0.0000 </r>
       <r>    0.9873    0.0000 </r>
       <r>    2.1125    0.0000 </r>
       <r>    2.9148    0.0000 </r>
       <r>    3.0766    0.0000 </r>
       <r>    4.1558    0.0000 </r>
       <r>    5.1609    0.0000 </r>
      </set>
      <set comment="kpoint 5">
       <r>  -28.8940    1.0000 </r>
       <r>  -13.6013    1.0000 </r>
       <r>  -12.7511    1.0000 </r>
       <r>   -9.8825    1.0000 </r>
       <r>   -5.2416    1.0000 </r>
       <r>   -0.8769    0.0000 </r>
       <r>    1.5382    0.0000 </r>
       <r>    2.7715    0.0000 </r>
       <r>    3.5546    0.0000 </r>
       <r>    3.7383    0.0000 </r>
       <r>    4.7917    0.0000 </r>
       <r>    5.8069    0.0000 </r>
      </set>
      <set comment="kpoint 6">
       <r>  -28.2598    1.0000 </r>
       <r>  -14.6869    1.0000 </r>
       <r>  -12.7770    1.0000 </r>
       <r>  -10.4054    1.0000 </r>
       <r>   -5.2062    1.0000 </r>
       <r>   -1.1338    0.0000 </r>
       <r>    2.0462    0.0000 </r>
       <r>    3.1175    0.0000 </r>
       <r>    4.3810    0.0000 </r>
       <r>    4.5699    0.0000 </r>
       <r>    5.6095    0.0000 </r>
       <r>    6.6378    0.0000 </r>
      </set>
      <set comment="kpoint 7">
       <r>  -27.4967    1.0000 </r>
       <r>  -16.3344    1.0000 </r>
       <r>  -12.1375    1.0000 </r>
       <r>  -10.8752    1.0000 </r>
       <r>   -5.3459    1.0000 </r>
       <r>   -1.2680    0.0000 </r>
       <r>    2.4650    0.0000 </r>
       <r>    3.1506    0.0000 </r>
       <r>    5.3837    0.0000 </r>
       <r>    5.5533    0.0000 </r>
       <r>    6.5954    0.0000 </r>
       <r>    7.6544    0.0000 </r>
      </set>
      <set comment="kpoint 8">
       <r>  -26.6185    1.0000 </r>
       <r>  -17.9508    1.0000 </r>
       <r>  -11.3973    1.0000 </r>
       <r>  -11.2635    1.0000 </r>
       <r>   -5.7040    1.0000 </r>
       <r>   -1.2646    0.0000 </r>
       <r>    2.7775    0.0000 </r>
       <r>    2.9789    0.0000 </r>
       <r>    6.5291    0.0000 </r>
       <r>    6.7057    0.0000 </r>
       <r>    7.7470    0.0000 </r>
       <r>    8.8531    0.0000 </r>
      </set>
      <set comment="kpoint 9">
       <r>  -25.6582    1.0000 </r>
       <r>  -19.4570    1.0000 </r>
       <r>  -11.5518    1.0000 </r>
       <r>  -10.6252    1.0000 </r>
       <r>   -6.2370    1.0000 </r>
       <r>   -1.1797    0.0000 </r>
       <r>    2.7533    0.0000 </r>
       <r>    2.9868    0.0000 </r>
       <r>    7.7558    0.0000 </r>
       <r>    8.0547    0.0000 </r>
       <r>    9.0708    0.0000 </r>
       <r>   10.2228    0.0000 </r>
      </set>
      <set comment="kpoint 10">
       <r>  -24.7221    1.0000 </r>
       <r>  -20.7272    1.0000 </r>
       <r>  -11.7288    1.0000 </r>
       <r>   -9.9368    1.0000 </r>
       <r>   -6.8015    1.0000 </r>
       <r>   -1.0931    0.0000 </r>
       <r>    2.5860    0.0000 </r>
       <r>    3.1048    0.0000 </r>
       <r>    8.9928    0.0000 </r>
       <r>    9.5885    0.0000 </r>
       <r>   10.5551    0.0000 </r>
       <r>   11.6491    0.0000 </r>
      </set>
      <set comment="kpoint 11">
       <r>  -24.2284    1.0000 </r>
       <r>  -21.3333    1.0000 </r>
       <r>  -11.7885    1.0000 </r>
       <r>   -9.6169    1.0000 </r>
       <r>   -7.0837    1.0000 </r>
       <r>   -1.0586    0.0000 </r>
       <r>    2.5267    0.0000 </r>
       <r>    3.1426    0.0000 </r>
       <r>    9.7958    0.0000 </r>
       <r>   11.1265    0.0000 </r>
       <r>   11.2800    0.0000 </r>
       <r>   11.3948    0.0000 </r>
      </set>
      <set comment="kpoint 12">
       <r>  -29.8221    1.0000 </r>
       <r>  -14.3071    1.0000 </r>
       <r>   -9.5034    1.0000 </r>
       <r>   -8.7850    1.0000 </r>
       <r>   -5.5324    1.0000 </r>
       <r>   -0.0647    0.0000 </r>
       <r>    0.1677    0.0000 </r>
       <r>    1.1142    0.0000 </r>
       <r>    2.3612    0.0000 </r>
       <r>    2.5223    0.0000 </r>
       <r>    3.6170    0.0000 </r>
       <r>    4.6060    0.0000 </r>
      </set>
      <set comment="kpoint 13">
       <r>  -29.5352    1.0000 </r>
       <r>  -14.0497    1.0000 </r>
       <r>  -10.6854    1.0000 </r>
       <r>   -9.2488    1.0000 </r>
       <r>   -5.4148    1.0000 </r>
       <r>   -0.2231    0.0000 </r>
       <r>    0.5202    0.0000 </r>
       <r>    1.9001    0.0000 </r>
       <r>    2.7316    0.0000 </r>
       <r>    2.8859    0.0000 </r>
       <r>    3.9741    0.0000 </r>
       <r>    4.9763    0.0000 </r>
      </set>
      <set comment="kpoint 14">
       <r>  -29.1070    1.0000 </r>
       <r>  -13.6985    1.0000 </r>
       <r>  -12.1180    1.0000 </r>
       <r>   -9.8068    1.0000 </r>
       <r>   -5.2833    1.0000 </r>
       <r>   -0.5019    0.0000 </r>
       <r>    1.0712    0.0000 </r>
       <r>    2.6211    0.0000 </r>
       <r>    3.2810    0.0000 </r>
       <r>    3.4420    0.0000 </r>
       <r>    4.5139    0.0000 </r>
       <r>    5.5305    0.0000 </r>
      </set>
      <set comment="kpoint 15">
       <r>  -28.5406    1.0000 </r>
       <r>  -13.9658    1.0000 </r>
       <r>  -12.9507    1.0000 </r>
       <r>  -10.3762    1.0000 </r>
       <r>   -5.1994    1.0000 </r>
       <r>   -0.7744    0.0000 </r>
       <r>    1.6446    0.0000 </r>
       <r>    3.0794    0.0000 </r>
       <r>    4.0151    0.0000 </r>
       <r>    4.1881    0.0000 </r>
       <r>    5.2397    0.0000 </r>
       <r>    6.2691    0.0000 </r>
      </set>
      <set comment="kpoint 16">
       <r>  -27.8413    1.0000 </r>
       <r>  -15.5250    1.0000 </r>
       <r>  -12.4286    1.0000 </r>
       <r>  -10.9019    1.0000 </r>
       <r>   -5.2461    1.0000 </r>
       <r>   -0.9600    0.0000 </r>
       <r>    2.1518    0.0000 </r>
       <r>    3.2166    0.0000 </r>
       <r>    4.9335    0.0000 </r>
       <r>    5.0962    0.0000 </r>
       <r>    6.1431    0.0000 </r>
       <r>    7.1933    0.0000 </r>
      </set>
      <set comment="kpoint 17">
       <r>  -27.0189    1.0000 </r>
       <r>  -17.1493    1.0000 </r>
       <r>  -11.7441    1.0000 </r>
       <r>  -11.3382    1.0000 </r>
       <r>   -5.4937    1.0000 </r>
       <r>   -1.0101    0.0000 </r>
       <r>    2.5361    0.0000 </r>
       <r>    3.1125    0.0000 </r>
       <r>    6.0147    0.0000 </r>
       <r>    6.1645    0.0000 </r>
       <r>    7.2143    0.0000 </r>
       <r>    8.3014    0.0000 </r>
      </set>
      <set comment="kpoint 18">
       <r>  -26.0939    1.0000 </r>
       <r>  -18.7074    1.0000 </r>
       <r>  -11.7219    1.0000 </r>
       <r>  -10.9483    1.0000 </r>
       <r>   -5.9466    1.0000 </r>
       <r>   -0.9424    0.0000 </r>
       <r>    2.6402    0.0000 </r>
       <r>    3.0532    0.0000 </r>
       <r>    7.2084    0.0000 </r>
       <r>    7.4172    0.0000 </r>
       <r>    8.4545    0.0000 </r>
       <r>    9.5871    0.0000 </r>
      </set>
      <set comment="kpoint 19">
       <r>  -25.1227    1.0000 </r>
       <r>  -20.1132    1.0000 </r>
       <r>  -11.9582    1.0000 </r>
       <r>  -10.2004    1.0000 </r>
       <r>   -6.5191    1.0000 </r>
       <r>   -0.8299    0.0000 </r>
       <r>    2.4538    0.0000 </r>
       <r>    3.1922    0.0000 </r>
       <r>    8.4530    0.0000 </r>
       <r>    8.8642    0.0000 </r>
       <r>    9.8667    0.0000 </r>
       <r>   11.0257    0.0000 </r>
      </set>
      <set comment="kpoint 20">
       <r>  -24.3181    1.0000 </r>
       <r>  -21.1386    1.0000 </r>
       <r>  -12.0798    1.0000 </r>
       <r>   -9.6438    1.0000 </r>
       <r>   -6.9969    1.0000 </r>
       <r>   -0.7505    0.0000 </r>
       <r>    2.3148    0.0000 </r>
       <r>    3.2867    0.0000 </r>
       <r>    9.6071    0.0000 </r>
       <r>   10.4723    0.0000 </r>
       <r>   11.2935    0.0000 </r>
       <r>   11.8100    0.0000 </r>
      </set>
      <set comment="kpoint 21">
       <r>  -29.1781    1.0000 </r>
       <r>  -13.7495    1.0000 </r>
       <r>  -11.8090    1.0000 </r>
       <r>   -9.8755    1.0000 </r>
       <r>   -5.2999    1.0000 </r>
       <r>   -0.0056    0.0000 </r>
       <r>    0.5391    0.0000 </r>
       <r>    2.6025    0.0000 </r>
       <r>    3.1904    0.0000 </r>
       <r>    3.3344    0.0000 </r>
       <r>    4.4189    0.0000 </r>
       <r>    5.4385    0.0000 </r>
      </set>
      <set comment="kpoint 22">
       <r>  -28.6815    1.0000 </r>
       <r>  -13.6119    1.0000 </r>
       <r>  -12.8700    1.0000 </r>
       <r>  -10.5771    1.0000 </r>
       <r>   -5.2034    1.0000 </r>
       <r>   -0.0880    0.0000 </r>
       <r>    0.9893    0.0000 </r>
       <r>    3.1147    0.0000 </r>
       <r>    3.8330    0.0000 </r>
       <r>    3.9691    0.0000 </r>
       <r>    5.0453    0.0000 </r>
       <r>    6.0856    0.0000 </r>
      </set>
      <set comment="kpoint 23">
       <r>  -28.0493    1.0000 </r>
       <r>  -14.8422    1.0000 </r>
       <r>  -12.5882    1.0000 </r>
       <r>  -11.2362    1.0000 </r>
       <r>   -5.1932    1.0000 </r>
       <r>   -0.2502    0.0000 </r>
       <r>    1.5787    0.0000 </r>
       <r>    3.3212    0.0000 </r>
       <r>    4.6647    0.0000 </r>
       <r>    4.7892    0.0000 </r>
       <r>    5.8567    0.0000 </r>
       <r>    6.9180    0.0000 </r>
      </set>
      <set comment="kpoint 24">
       <r>  -27.2888    1.0000 </r>
       <r>  -16.3825    1.0000 </r>
       <r>  -12.0014    1.0000 </r>
       <r>  -11.7526    1.0000 </r>
       <r>   -5.3425    1.0000 </r>
       <r>   -0.3271    0.0000 </r>
       <r>    2.0909    0.0000 </r>
       <r>    3.2637    0.0000 </r>
       <r>    5.6706    0.0000 </r>
       <r>    5.7798    0.0000 </r>
       <r>    6.8474    0.0000 </r>
       <r>    7.9347    0.0000 </r>
      </set>
      <set comment="kpoint 25">
       <r>  -26.4135    1.0000 </r>
       <r>  -17.9263    1.0000 </r>
       <r>  -12.2849    1.0000 </r>
       <r>  -11.1888    1.0000 </r>
       <r>   -5.6918    1.0000 </r>
       <r>   -0.2790    0.0000 </r>
       <r>    2.3561    0.0000 </r>
       <r>    3.1608    0.0000 </r>
       <r>    6.8151    0.0000 </r>
       <r>    6.9470    0.0000 </r>
       <r>    8.0104    0.0000 </r>
       <r>    9.1313    0.0000 </r>
      </set>
      <set comment="kpoint 26">
       <r>  -25.4557    1.0000 </r>
       <r>  -19.3878    1.0000 </r>
       <r>  -12.6122    1.0000 </r>
       <r>  -10.4217    1.0000 </r>
       <r>   -6.2106    1.0000 </r>
       <r>   -0.1349    0.0000 </r>
       <r>    2.2139    0.0000 </r>
       <r>    3.2912    0.0000 </r>
       <r>    8.0396    0.0000 </r>
       <r>    8.3075    0.0000 </r>
       <r>    9.3448    0.0000 </r>
       <r>   10.4967    0.0000 </r>
      </set>
      <set comment="kpoint 27">
       <r>  -24.5184    1.0000 </r>
       <r>  -20.6365    1.0000 </r>
       <r>  -12.8124    1.0000 </r>
       <r>   -9.7272    1.0000 </r>
       <r>   -6.7711    1.0000 </r>
       <r>    0.0270    0.0000 </r>
       <r>    1.9572    0.0000 </r>
       <r>    3.4731    0.0000 </r>
       <r>    9.2789    0.0000 </r>
       <r>    9.8414    0.0000 </r>
       <r>   10.8390    0.0000 </r>
       <r>   11.8986    0.0000 </r>
      </set>
      <set comment="kpoint 28">
       <r>  -24.0193    1.0000 </r>
       <r>  -21.2409    1.0000 </r>
       <r>  -12.8796    1.0000 </r>
       <r>   -9.3980    1.0000 </r>
       <r>   -7.0589    1.0000 </r>
       <r>    0.1015    0.0000 </r>
       <r>    1.8427    0.0000 </r>
       <r>    3.5456    0.0000 </r>
       <r>   10.0971    0.0000 </r>
       <r>   11.3037    0.0000 </r>
       <r>   11.5582    0.0000 </r>
       <r>   11.6624    0.0000 </r>
      </set>
      <set comment="kpoint 29">
       <r>  -28.1189    1.0000 </r>
       <r>  -14.5473    1.0000 </r>
       <r>  -12.6272    1.0000 </r>
       <r>  -11.4507    1.0000 </r>
       <r>   -5.1774    1.0000 </r>
       <r>    0.3697    0.0000 </r>
       <r>    1.0320    0.0000 </r>
       <r>    3.3798    0.0000 </r>
       <r>    4.5755    0.0000 </r>
       <r>    4.6723    0.0000 </r>
       <r>    5.7564    0.0000 </r>
       <r>    6.8267    0.0000 </r>
      </set>
      <set comment="kpoint 30">
       <r>  -27.4246    1.0000 </r>
       <r>  -15.8443    1.0000 </r>
       <r>  -12.2645    1.0000 </r>
       <r>  -12.0353    1.0000 </r>
       <r>   -5.2661    1.0000 </r>
       <r>    0.4945    0.0000 </r>
       <r>    1.4664    0.0000 </r>
       <r>    3.3941    0.0000 </r>
       <r>    5.5002    0.0000 </r>
       <r>    5.5610    0.0000 </r>
       <r>    6.6534    0.0000 </r>
       <r>    7.7522    0.0000 </r>
      </set>
      <set comment="kpoint 31">
       <r>  -26.6082    1.0000 </r>
       <r>  -17.2464    1.0000 </r>
       <r>  -12.9113    1.0000 </r>
       <r>  -11.3471    1.0000 </r>
       <r>   -5.5200    1.0000 </r>
       <r>    0.5359    0.0000 </r>
       <r>    1.9130    0.0000 </r>
       <r>    3.2921    0.0000 </r>
       <r>    6.5779    0.0000 </r>
       <r>    6.6397    0.0000 </r>
       <r>    7.7338    0.0000 </r>
       <r>    8.8584    0.0000 </r>
      </set>
      <set comment="kpoint 32">
       <r>  -25.6895    1.0000 </r>
       <r>  -18.6608    1.0000 </r>
       <r>  -13.3968    1.0000 </r>
       <r>  -10.5890    1.0000 </r>
       <r>   -5.9492    1.0000 </r>
       <r>    0.6492    0.0000 </r>
       <r>    2.0153    0.0000 </r>
       <r>    3.3398    0.0000 </r>
       <r>    7.7591    0.0000 </r>
       <r>    7.9193    0.0000 </r>
       <r>    8.9916    0.0000 </r>
       <r>   10.1384    0.0000 </r>
      </set>
      <set comment="kpoint 33">
       <r>  -24.7210    1.0000 </r>
       <r>  -19.9849    1.0000 </r>
       <r>  -13.7170    1.0000 </r>
       <r>   -9.8356    1.0000 </r>
       <r>   -6.4960    1.0000 </r>
       <r>    0.8457    0.0000 </r>
       <r>    1.7773    0.0000 </r>
       <r>    3.5686    0.0000 </r>
       <r>    9.0065    0.0000 </r>
       <r>    9.3730    0.0000 </r>
       <r>   10.4218    0.0000 </r>
       <r>   11.5610    0.0000 </r>
      </set>
      <set comment="kpoint 34">
       <r>  -23.9057    1.0000 </r>
       <r>  -20.9851    1.0000 </r>
       <r>  -13.8759    1.0000 </r>
       <r>   -9.2626    1.0000 </r>
       <r>   -6.9723    1.0000 </r>
       <r>    1.1085    0.0000 </r>
       <r>    1.4457    0.0000 </r>
       <r>    3.7440    0.0000 </r>
       <r>   10.1828    0.0000 </r>
       <r>   10.9531    0.0000 </r>
       <r>   11.8527    0.0000 </r>
       <r>   12.2183    0.0000 </r>
      </set>
      <set comment="kpoint 35">
       <r>  -26.6736    1.0000 </r>
       <r>  -16.9464    1.0000 </r>
       <r>  -13.2063    1.0000 </r>
       <r>  -11.4018    1.0000 </r>
       <r>   -5.4598    1.0000 </r>
       <r>    1.2451    0.0000 </r>
       <r>    1.3489    0.0000 </r>
       <r>    3.3647    0.0000 </r>
       <r>    6.5074    0.0000 </r>
       <r>    6.5177    0.0000 </r>
       <r>    7.6375    0.0000 </r>
       <r>    8.7678    0.0000 </r>
      </set>
      <set comment="kpoint 36">
       <r>  -25.8095    1.0000 </r>
       <r>  -18.1426    1.0000 </r>
       <r>  -13.9732    1.0000 </r>
       <r>  -10.6788    1.0000 </r>
       <r>   -5.7994    1.0000 </r>
       <r>    1.1689    0.0000 </r>
       <r>    1.8862    0.0000 </r>
       <r>    3.3824    0.0000 </r>
       <r>    7.6126    0.0000 </r>
       <r>    7.7125    0.0000 </r>
       <r>    8.8091    0.0000 </r>
       <r>    9.9589    0.0000 </r>
      </set>
      <set comment="kpoint 37">
       <r>  -24.8611    1.0000 </r>
       <r>  -19.3765    1.0000 </r>
       <r>  -14.5111    1.0000 </r>
       <r>   -9.9207    1.0000 </r>
       <r>   -6.2748    1.0000 </r>
       <r>    1.0009    0.0000 </r>
       <r>    2.2310    0.0000 </r>
       <r>    3.5721    0.0000 </r>
       <r>    8.8330    0.0000 </r>
       <r>    9.0785    0.0000 </r>
       <r>   10.1624    0.0000 </r>
       <r>   11.3100    0.0000 </r>
      </set>
      <set comment="kpoint 38">
       <r>  -23.9187    1.0000 </r>
       <r>  -20.5131    1.0000 </r>
       <r>  -14.8247    1.0000 </r>
       <r>   -9.2221    1.0000 </r>
       <r>   -6.8044    1.0000 </r>
       <r>    0.8687    0.0000 </r>
       <r>    2.3499    0.0000 </r>
       <r>    3.8334    0.0000 </r>
       <r>   10.0879    0.0000 </r>
       <r>   10.5894    0.0000 </r>
       <r>   11.6827    0.0000 </r>
       <r>   12.5961    0.0000 </r>
      </set>
      <set comment="kpoint 39">
       <r>  -23.3939    1.0000 </r>
       <r>  -21.1066    1.0000 </r>
       <r>  -14.9274    1.0000 </r>
       <r>   -8.8726    1.0000 </r>
       <r>   -7.0982    1.0000 </r>
       <r>    0.8188    0.0000 </r>
       <r>    2.3746    0.0000 </r>
       <r>    3.9496    0.0000 </r>
       <r>   10.9675    0.0000 </r>
       <r>   11.7629    0.0000 </r>
       <r>   12.3804    0.0000 </r>
       <r>   12.4137    0.0000 </r>
      </set>
      <set comment="kpoint 40">
       <r>  -24.9104    1.0000 </r>
       <r>  -19.1046    1.0000 </r>
       <r>  -14.8503    1.0000 </r>
       <r>   -9.9522    1.0000 </r>
       <r>   -6.1902    1.0000 </r>
       <r>    0.9511    0.0000 </r>
       <r>    2.5547    0.0000 </r>
       <r>    3.5436    0.0000 </r>
       <r>    8.7718    0.0000 </r>
       <r>    8.9765    0.0000 </r>
       <r>   10.0737    0.0000 </r>
       <r>   11.2244    0.0000 </r>
      </set>
      <set comment="kpoint 41">
       <r>  -23.9524    1.0000 </r>
       <r>  -20.1194    1.0000 </r>
       <r>  -15.4486    1.0000 </r>
       <r>   -9.2204    1.0000 </r>
       <r>   -6.6761    1.0000 </r>
       <r>    0.6265    0.0000 </r>
       <r>    3.1111    0.0000 </r>
       <r>    3.7869    0.0000 </r>
       <r>   10.0179    0.0000 </r>
       <r>   10.3962    0.0000 </r>
       <r>   11.5208    0.0000 </r>
       <r>   12.5963    0.0000 </r>
      </set>
      <set comment="kpoint 42">
       <r>  -23.0984    1.0000 </r>
       <r>  -21.0127    1.0000 </r>
       <r>  -15.7447    1.0000 </r>
       <r>   -8.6225    1.0000 </r>
       <r>   -7.1445    1.0000 </r>
       <r>    0.4340    0.0000 </r>
       <r>    3.3276    0.0000 </r>
       <r>    4.0340    0.0000 </r>
       <r>   11.2116    0.0000 </r>
       <r>   11.8362    0.0000 </r>
       <r>   12.7075    0.0000 </r>
       <r>   13.0997    0.0000 </r>
      </set>
      <set comment="kpoint 43">
       <r>  -23.0147    1.0000 </r>
       <r>  -20.9211    1.0000 </r>
       <r>  -16.0673    1.0000 </r>
       <r>   -8.5399    1.0000 </r>
       <r>   -7.1492    1.0000 </r>
       <r>    0.2913    0.0000 </r>
       <r>    3.8075    0.0000 </r>
       <r>    3.9503    0.0000 </r>
       <r>   11.2205    0.0000 </r>
       <r>   11.7940    0.0000 </r>
       <r>   12.9873    0.0000 </r>
       <r>   13.0531    0.0000 </r>
      </set>
      <set comment="kpoint 44">
       <r>  -22.3575    1.0000 </r>
       <r>  -21.5277    1.0000 </r>
       <r>  -16.2817    1.0000 </r>
       <r>   -8.0965    1.0000 </r>
       <r>   -7.5179    1.0000 </r>
       <r>    0.1663    0.0000 </r>
       <r>    3.9589    0.0000 </r>
       <r>    4.1217    0.0000 </r>
       <r>   12.0839    0.0000 </r>
       <r>   12.3833    0.0000 </r>
       <r>   12.7943    0.0000 </r>
       <r>   13.6835    0.0000 </r>
      </set>
      <set comment="kpoint 45">
       <r>  -30.0380    1.0000 </r>
       <r>  -14.5052    1.0000 </r>
       <r>   -8.3991    1.0000 </r>
       <r>   -8.3991    1.0000 </r>
       <r>   -5.6346    1.0000 </r>
       <r>   -0.0432    0.0000 </r>
       <r>   -0.0432    0.0000 </r>
       <r>    0.3120    0.0000 </r>
       <r>    2.0196    0.0000 </r>
       <r>    2.3668    0.0000 </r>
       <r>    3.2030    0.0000 </r>
       <r>    4.5181    0.0000 </r>
      </set>
      <set comment="kpoint 46">
       <r>  -29.9660    1.0000 </r>
       <r>  -14.4388    1.0000 </r>
       <r>   -8.8016    1.0000 </r>
       <r>   -8.5258    1.0000 </r>
       <r>   -5.5993    1.0000 </r>
       <r>   -0.0867    0.0000 </r>
       <r>    0.0963    0.0000 </r>
       <r>    0.5789    0.0000 </r>
       <r>    2.1133    0.0000 </r>
       <r>    2.4561    0.0000 </r>
       <r>    3.2958    0.0000 </r>
       <r>    4.6057    0.0000 </r>
      </set>
      <set comment="kpoint 47">
       <r>  -29.9660    1.0000 </r>
       <r>  -14.4388    1.0000 </r>
       <r>   -8.8017    1.0000 </r>
       <r>   -8.5258    1.0000 </r>
       <r>   -5.5993    1.0000 </r>
       <r>   -0.0867    0.0000 </r>
       <r>    0.0963    0.0000 </r>
       <r>    0.5789    0.0000 </r>
       <r>    2.1132    0.0000 </r>
       <r>    2.4564    0.0000 </r>
       <r>    3.2956    0.0000 </r>
       <r>    4.6059    0.0000 </r>
      </set>
      <set comment="kpoint 48">
       <r>  -29.7503    1.0000 </r>
       <r>  -14.2419    1.0000 </r>
       <r>   -9.8516    1.0000 </r>
       <r>   -8.8698    1.0000 </r>
       <r>   -5.5010    1.0000 </r>
       <r>   -0.2775    0.0000 </r>
       <r>    0.4724    0.0000 </r>
       <r>    1.2874    0.0000 </r>
       <r>    2.3942    0.0000 </r>
       <r>    2.7236    0.0000 </r>
       <r>    3.5747    0.0000 </r>
       <r>    4.8678    0.0000 </r>
      </set>
      <set comment="kpoint 49">
       <r>  -29.7503    1.0000 </r>
       <r>  -14.2419    1.0000 </r>
       <r>   -9.8516    1.0000 </r>
       <r>   -8.8698    1.0000 </r>
       <r>   -5.5010    1.0000 </r>
       <r>   -0.2775    0.0000 </r>
       <r>    0.4724    0.0000 </r>
       <r>    1.2874    0.0000 </r>
       <r>    2.3928    0.0000 </r>
       <r>    2.7259    0.0000 </r>
       <r>    3.5731    0.0000 </r>
       <r>    4.8691    0.0000 </r>
      </set>
      <set comment="kpoint 50">
       <r>  -29.3922    1.0000 </r>
       <r>  -13.9259    1.0000 </r>
       <r>  -11.2679    1.0000 </r>
       <r>   -9.3496    1.0000 </r>
       <r>   -5.3654    1.0000 </r>
       <r>   -0.5654    0.0000 </r>
       <r>    0.9873    0.0000 </r>
       <r>    2.1124    0.0000 </r>
       <r>    2.8591    0.0000 </r>
       <r>    3.1771    0.0000 </r>
       <r>    4.0392    0.0000 </r>
       <r>    5.3056    0.0000 </r>
      </set>
      <set comment="kpoint 51">
       <r>  -29.3922    1.0000 </r>
       <r>  -13.9259    1.0000 </r>
       <r>  -11.2679    1.0000 </r>
       <r>   -9.3496    1.0000 </r>
       <r>   -5.3654    1.0000 </r>
       <r>   -0.5654    0.0000 </r>
       <r>    0.9873    0.0000 </r>
       <r>    2.1128    0.0000 </r>
       <r>    2.8548    0.0000 </r>
       <r>    3.1832    0.0000 </r>
       <r>    4.0356    0.0000 </r>
       <r>    5.3082    0.0000 </r>
      </set>
      <set comment="kpoint 52">
       <r>  -28.8940    1.0000 </r>
       <r>  -13.6013    1.0000 </r>
       <r>  -12.7510    1.0000 </r>
       <r>   -9.8825    1.0000 </r>
       <r>   -5.2416    1.0000 </r>
       <r>   -0.8769    0.0000 </r>
       <r>    1.5382    0.0000 </r>
       <r>    2.7720    0.0000 </r>
       <r>    3.5015    0.0000 </r>
       <r>    3.8332    0.0000 </r>
       <r>    4.6875    0.0000 </r>
       <r>    5.9245    0.0000 </r>
      </set>
      <set comment="kpoint 53">
       <r>  -28.8940    1.0000 </r>
       <r>  -13.6013    1.0000 </r>
       <r>  -12.7510    1.0000 </r>
       <r>   -9.8825    1.0000 </r>
       <r>   -5.2416    1.0000 </r>
       <r>   -0.8769    0.0000 </r>
       <r>    1.5382    0.0000 </r>
       <r>    2.7723    0.0000 </r>
       <r>    3.4991    0.0000 </r>
       <r>    3.8358    0.0000 </r>
       <r>    4.6876    0.0000 </r>
       <r>    5.9229    0.0000 </r>
      </set>
      <set comment="kpoint 54">
       <r>  -28.2598    1.0000 </r>
       <r>  -14.6869    1.0000 </r>
       <r>  -12.7770    1.0000 </r>
       <r>  -10.4054    1.0000 </r>
       <r>   -5.2062    1.0000 </r>
       <r>   -1.1338    0.0000 </r>
       <r>    2.0462    0.0000 </r>
       <r>    3.1178    0.0000 </r>
       <r>    4.3280    0.0000 </r>
       <r>    4.6633    0.0000 </r>
       <r>    5.5160    0.0000 </r>
       <r>    6.7290    0.0000 </r>
      </set>
      <set comment="kpoint 55">
       <r>  -28.2598    1.0000 </r>
       <r>  -14.6869    1.0000 </r>
       <r>  -12.7770    1.0000 </r>
       <r>  -10.4054    1.0000 </r>
       <r>   -5.2062    1.0000 </r>
       <r>   -1.1338    0.0000 </r>
       <r>    2.0462    0.0000 </r>
       <r>    3.1177    0.0000 </r>
       <r>    4.3344    0.0000 </r>
       <r>    4.6498    0.0000 </r>
       <r>    5.5328    0.0000 </r>
       <r>    6.7082    0.0000 </r>
      </set>
      <set comment="kpoint 56">
       <r>  -27.4967    1.0000 </r>
       <r>  -16.3344    1.0000 </r>
       <r>  -12.1375    1.0000 </r>
       <r>  -10.8752    1.0000 </r>
       <r>   -5.3459    1.0000 </r>
       <r>   -1.2680    0.0000 </r>
       <r>    2.4650    0.0000 </r>
       <r>    3.1506    0.0000 </r>
       <r>    5.3350    0.0000 </r>
       <r>    5.6346    0.0000 </r>
       <r>    6.5242    0.0000 </r>
       <r>    7.7107    0.0000 </r>
      </set>
      <set comment="kpoint 57">
       <r>  -27.4967    1.0000 </r>
       <r>  -16.3344    1.0000 </r>
       <r>  -12.1375    1.0000 </r>
       <r>  -10.8752    1.0000 </r>
       <r>   -5.3459    1.0000 </r>
       <r>   -1.2680    0.0000 </r>
       <r>    2.4650    0.0000 </r>
       <r>    3.1506    0.0000 </r>
       <r>    5.3522    0.0000 </r>
       <r>    5.6012    0.0000 </r>
       <r>    6.5658    0.0000 </r>
       <r>    7.6535    0.0000 </r>
      </set>
      <set comment="kpoint 58">
       <r>  -26.6185    1.0000 </r>
       <r>  -17.9508    1.0000 </r>
       <r>  -11.3973    1.0000 </r>
       <r>  -11.2635    1.0000 </r>
       <r>   -5.7040    1.0000 </r>
       <r>   -1.2646    0.0000 </r>
       <r>    2.7775    0.0000 </r>
       <r>    2.9789    0.0000 </r>
       <r>    6.4978    0.0000 </r>
       <r>    6.7549    0.0000 </r>
       <r>    7.7134    0.0000 </r>
       <r>    8.8550    0.0000 </r>
      </set>
      <set comment="kpoint 59">
       <r>  -26.6185    1.0000 </r>
       <r>  -17.9508    1.0000 </r>
       <r>  -11.3973    1.0000 </r>
       <r>  -11.2635    1.0000 </r>
       <r>   -5.7040    1.0000 </r>
       <r>   -1.2646    0.0000 </r>
       <r>    2.7775    0.0000 </r>
       <r>    2.9789    0.0000 </r>
       <r>    6.5284    0.0000 </r>
       <r>    6.7026    0.0000 </r>
       <r>    7.7813    0.0000 </r>
       <r>    8.7498    0.0000 </r>
      </set>
      <set comment="kpoint 60">
       <r>  -25.6582    1.0000 </r>
       <r>  -19.4570    1.0000 </r>
       <r>  -11.5518    1.0000 </r>
       <r>  -10.6252    1.0000 </r>
       <r>   -6.2370    1.0000 </r>
       <r>   -1.1797    0.0000 </r>
       <r>    2.7533    0.0000 </r>
       <r>    2.9868    0.0000 </r>
       <r>    7.7504    0.0000 </r>
       <r>    8.0623    0.0000 </r>
       <r>    9.0818    0.0000 </r>
       <r>   10.1501    0.0000 </r>
      </set>
      <set comment="kpoint 61">
       <r>  -25.6582    1.0000 </r>
       <r>  -19.4570    1.0000 </r>
       <r>  -11.5518    1.0000 </r>
       <r>  -10.6252    1.0000 </r>
       <r>   -6.2370    1.0000 </r>
       <r>   -1.1797    0.0000 </r>
       <r>    2.7533    0.0000 </r>
       <r>    2.9868    0.0000 </r>
       <r>    7.7733    0.0000 </r>
       <r>    8.0161    0.0000 </r>
       <r>    9.1770    0.0000 </r>
       <r>    9.9859    0.0000 </r>
      </set>
      <set comment="kpoint 62">
       <r>  -24.7221    1.0000 </r>
       <r>  -20.7272    1.0000 </r>
       <r>  -11.7288    1.0000 </r>
       <r>   -9.9368    1.0000 </r>
       <r>   -6.8015    1.0000 </r>
       <r>   -1.0931    0.0000 </r>
       <r>    2.5860    0.0000 </r>
       <r>    3.1048    0.0000 </r>
       <r>    8.9943    0.0000 </r>
       <r>    9.5786    0.0000 </r>
       <r>   10.6039    0.0000 </r>
       <r>   11.5168    0.0000 </r>
      </set>
      <set comment="kpoint 63">
       <r>  -24.7221    1.0000 </r>
       <r>  -20.7272    1.0000 </r>
       <r>  -11.7288    1.0000 </r>
       <r>   -9.9368    1.0000 </r>
       <r>   -6.8015    1.0000 </r>
       <r>   -1.0931    0.0000 </r>
       <r>    2.5860    0.0000 </r>
       <r>    3.1048    0.0000 </r>
       <r>    9.0009    0.0000 </r>
       <r>    9.5508    0.0000 </r>
       <r>   10.7479    0.0000 </r>
       <r>   11.2400    0.0000 </r>
      </set>
      <set comment="kpoint 64">
       <r>  -24.2284    1.0000 </r>
       <r>  -21.3333    1.0000 </r>
       <r>  -11.7885    1.0000 </r>
       <r>   -9.6169    1.0000 </r>
       <r>   -7.0837    1.0000 </r>
       <r>   -1.0586    0.0000 </r>
       <r>    2.5267    0.0000 </r>
       <r>    3.1426    0.0000 </r>
       <r>    9.7965    0.0000 </r>
       <r>   11.1238    0.0000 </r>
       <r>   11.2821    0.0000 </r>
       <r>   11.3699    0.0000 </r>
      </set>
      <set comment="kpoint 65">
       <r>  -29.8222    1.0000 </r>
       <r>  -14.3071    1.0000 </r>
       <r>   -9.5034    1.0000 </r>
       <r>   -8.7850    1.0000 </r>
       <r>   -5.5324    1.0000 </r>
       <r>   -0.0647    0.0000 </r>
       <r>    0.1677    0.0000 </r>
       <r>    1.1141    0.0000 </r>
       <r>    2.3002    0.0000 </r>
       <r>    2.6346    0.0000 </r>
       <r>    3.4811    0.0000 </r>
       <r>    4.7808    0.0000 </r>
      </set>
      <set comment="kpoint 66">
       <r>  -29.5352    1.0000 </r>
       <r>  -14.0497    1.0000 </r>
       <r>  -10.6854    1.0000 </r>
       <r>   -9.2488    1.0000 </r>
       <r>   -5.4148    1.0000 </r>
       <r>   -0.2231    0.0000 </r>
       <r>    0.5202    0.0000 </r>
       <r>    1.8999    0.0000 </r>
       <r>    2.6733    0.0000 </r>
       <r>    2.9906    0.0000 </r>
       <r>    3.8524    0.0000 </r>
       <r>    5.1299    0.0000 </r>
      </set>
      <set comment="kpoint 67">
       <r>  -29.5352    1.0000 </r>
       <r>  -14.0497    1.0000 </r>
       <r>  -10.6854    1.0000 </r>
       <r>   -9.2488    1.0000 </r>
       <r>   -5.4148    1.0000 </r>
       <r>   -0.2231    0.0000 </r>
       <r>    0.5202    0.0000 </r>
       <r>    1.9001    0.0000 </r>
       <r>    2.6715    0.0000 </r>
       <r>    2.9932    0.0000 </r>
       <r>    3.8508    0.0000 </r>
       <r>    5.1312    0.0000 </r>
      </set>
      <set comment="kpoint 68">
       <r>  -29.1070    1.0000 </r>
       <r>  -13.6985    1.0000 </r>
       <r>  -12.1180    1.0000 </r>
       <r>   -9.8068    1.0000 </r>
       <r>   -5.2833    1.0000 </r>
       <r>   -0.5019    0.0000 </r>
       <r>    1.0712    0.0000 </r>
       <r>    2.6212    0.0000 </r>
       <r>    3.2267    0.0000 </r>
       <r>    3.5373    0.0000 </r>
       <r>    4.4088    0.0000 </r>
       <r>    5.6558    0.0000 </r>
      </set>
      <set comment="kpoint 69">
       <r>  -29.1070    1.0000 </r>
       <r>  -13.6985    1.0000 </r>
       <r>  -12.1180    1.0000 </r>
       <r>   -9.8068    1.0000 </r>
       <r>   -5.2833    1.0000 </r>
       <r>   -0.5019    0.0000 </r>
       <r>    1.0712    0.0000 </r>
       <r>    2.6216    0.0000 </r>
       <r>    3.2232    0.0000 </r>
       <r>    3.5418    0.0000 </r>
       <r>    4.4067    0.0000 </r>
       <r>    5.6569    0.0000 </r>
      </set>
      <set comment="kpoint 70">
       <r>  -28.5406    1.0000 </r>
       <r>  -13.9658    1.0000 </r>
       <r>  -12.9507    1.0000 </r>
       <r>  -10.3762    1.0000 </r>
       <r>   -5.1994    1.0000 </r>
       <r>   -0.7744    0.0000 </r>
       <r>    1.6445    0.0000 </r>
       <r>    3.0799    0.0000 </r>
       <r>    3.9616    0.0000 </r>
       <r>    4.2798    0.0000 </r>
       <r>    5.1478    0.0000 </r>
       <r>    6.3651    0.0000 </r>
      </set>
      <set comment="kpoint 71">
       <r>  -28.5406    1.0000 </r>
       <r>  -13.9658    1.0000 </r>
       <r>  -12.9507    1.0000 </r>
       <r>  -10.3762    1.0000 </r>
       <r>   -5.1994    1.0000 </r>
       <r>   -0.7745    0.0000 </r>
       <r>    1.6445    0.0000 </r>
       <r>    3.0799    0.0000 </r>
       <r>    3.9637    0.0000 </r>
       <r>    4.2749    0.0000 </r>
       <r>    5.1543    0.0000 </r>
       <r>    6.3568    0.0000 </r>
      </set>
      <set comment="kpoint 72">
       <r>  -27.8413    1.0000 </r>
       <r>  -15.5250    1.0000 </r>
       <r>  -12.4286    1.0000 </r>
       <r>  -10.9019    1.0000 </r>
       <r>   -5.2461    1.0000 </r>
       <r>   -0.9600    0.0000 </r>
       <r>    2.1519    0.0000 </r>
       <r>    3.2168    0.0000 </r>
       <r>    4.8817    0.0000 </r>
       <r>    5.1819    0.0000 </r>
       <r>    6.0674    0.0000 </r>
       <r>    7.2579    0.0000 </r>
      </set>
      <set comment="kpoint 73">
       <r>  -27.8413    1.0000 </r>
       <r>  -15.5250    1.0000 </r>
       <r>  -12.4286    1.0000 </r>
       <r>  -10.9019    1.0000 </r>
       <r>   -5.2462    1.0000 </r>
       <r>   -0.9600    0.0000 </r>
       <r>    2.1519    0.0000 </r>
       <r>    3.2167    0.0000 </r>
       <r>    4.8930    0.0000 </r>
       <r>    5.1601    0.0000 </r>
       <r>    6.0933    0.0000 </r>
       <r>    7.2242    0.0000 </r>
      </set>
      <set comment="kpoint 74">
       <r>  -27.0189    1.0000 </r>
       <r>  -17.1493    1.0000 </r>
       <r>  -11.7441    1.0000 </r>
       <r>  -11.3382    1.0000 </r>
       <r>   -5.4937    1.0000 </r>
       <r>   -1.0101    0.0000 </r>
       <r>    2.5361    0.0000 </r>
       <r>    3.1125    0.0000 </r>
       <r>    5.9723    0.0000 </r>
       <r>    6.2300    0.0000 </r>
       <r>    7.1673    0.0000 </r>
       <r>    8.3227    0.0000 </r>
      </set>
      <set comment="kpoint 75">
       <r>  -27.0189    1.0000 </r>
       <r>  -17.1493    1.0000 </r>
       <r>  -11.7441    1.0000 </r>
       <r>  -11.3382    1.0000 </r>
       <r>   -5.4937    1.0000 </r>
       <r>   -1.0101    0.0000 </r>
       <r>    2.5361    0.0000 </r>
       <r>    3.1125    0.0000 </r>
       <r>    5.9962    0.0000 </r>
       <r>    6.1884    0.0000 </r>
       <r>    7.2178    0.0000 </r>
       <r>    8.2486    0.0000 </r>
      </set>
      <set comment="kpoint 76">
       <r>  -26.0939    1.0000 </r>
       <r>  -18.7074    1.0000 </r>
       <r>  -11.7219    1.0000 </r>
       <r>  -10.9483    1.0000 </r>
       <r>   -5.9466    1.0000 </r>
       <r>   -0.9424    0.0000 </r>
       <r>    2.6402    0.0000 </r>
       <r>    3.0532    0.0000 </r>
       <r>    7.1921    0.0000 </r>
       <r>    7.4418    0.0000 </r>
       <r>    8.4473    0.0000 </r>
       <r>    9.5463    0.0000 </r>
      </set>
      <set comment="kpoint 77">
       <r>  -26.0939    1.0000 </r>
       <r>  -18.7074    1.0000 </r>
       <r>  -11.7219    1.0000 </r>
       <r>  -10.9483    1.0000 </r>
       <r>   -5.9466    1.0000 </r>
       <r>   -0.9424    0.0000 </r>
       <r>    2.6402    0.0000 </r>
       <r>    3.0532    0.0000 </r>
       <r>    7.2234    0.0000 </r>
       <r>    7.3890    0.0000 </r>
       <r>    8.5239    0.0000 </r>
       <r>    9.4205    0.0000 </r>
      </set>
      <set comment="kpoint 78">
       <r>  -25.1227    1.0000 </r>
       <r>  -20.1132    1.0000 </r>
       <r>  -11.9582    1.0000 </r>
       <r>  -10.2004    1.0000 </r>
       <r>   -6.5191    1.0000 </r>
       <r>   -0.8299    0.0000 </r>
       <r>    2.4538    0.0000 </r>
       <r>    3.1922    0.0000 </r>
       <r>    8.4534    0.0000 </r>
       <r>    8.8593    0.0000 </r>
       <r>    9.9004    0.0000 </r>
       <r>   10.9093    0.0000 </r>
      </set>
      <set comment="kpoint 79">
       <r>  -25.1227    1.0000 </r>
       <r>  -20.1132    1.0000 </r>
       <r>  -11.9582    1.0000 </r>
       <r>  -10.2005    1.0000 </r>
       <r>   -6.5191    1.0000 </r>
       <r>   -0.8299    0.0000 </r>
       <r>    2.4538    0.0000 </r>
       <r>    3.1922    0.0000 </r>
       <r>    8.4667    0.0000 </r>
       <r>    8.8245    0.0000 </r>
       <r>   10.0088    0.0000 </r>
       <r>   10.7096    0.0000 </r>
      </set>
      <set comment="kpoint 80">
       <r>  -24.3181    1.0000 </r>
       <r>  -21.1386    1.0000 </r>
       <r>  -12.0798    1.0000 </r>
       <r>   -9.6438    1.0000 </r>
       <r>   -6.9968    1.0000 </r>
       <r>   -0.7505    0.0000 </r>
       <r>    2.3148    0.0000 </r>
       <r>    3.2867    0.0000 </r>
       <r>    9.6081    0.0000 </r>
       <r>   10.4619    0.0000 </r>
       <r>   11.3225    0.0000 </r>
       <r>   11.8555    0.0000 </r>
      </set>
      <set comment="kpoint 81">
       <r>  -24.3181    1.0000 </r>
       <r>  -21.1386    1.0000 </r>
       <r>  -12.0798    1.0000 </r>
       <r>   -9.6438    1.0000 </r>
       <r>   -6.9968    1.0000 </r>
       <r>   -0.7505    0.0000 </r>
       <r>    2.3148    0.0000 </r>
       <r>    3.2867    0.0000 </r>
       <r>    9.6105    0.0000 </r>
       <r>   10.4404    0.0000 </r>
       <r>   11.4787    0.0000 </r>
       <r>   11.6574    0.0000 </r>
      </set>
      <set comment="kpoint 82">
       <r>  -29.1781    1.0000 </r>
       <r>  -13.7495    1.0000 </r>
       <r>  -11.8090    1.0000 </r>
       <r>   -9.8755    1.0000 </r>
       <r>   -5.2999    1.0000 </r>
       <r>   -0.0056    0.0000 </r>
       <r>    0.5391    0.0000 </r>
       <r>    2.6023    0.0000 </r>
       <r>    3.1335    0.0000 </r>
       <r>    3.4321    0.0000 </r>
       <r>    4.3139    0.0000 </r>
       <r>    5.5660    0.0000 </r>
      </set>
      <set comment="kpoint 83">
       <r>  -28.6815    1.0000 </r>
       <r>  -13.6119    1.0000 </r>
       <r>  -12.8700    1.0000 </r>
       <r>  -10.5771    1.0000 </r>
       <r>   -5.2034    1.0000 </r>
       <r>   -0.0880    0.0000 </r>
       <r>    0.9893    0.0000 </r>
       <r>    3.1148    0.0000 </r>
       <r>    3.7789    0.0000 </r>
       <r>    4.0568    0.0000 </r>
       <r>    4.9618    0.0000 </r>
       <r>    6.1775    0.0000 </r>
      </set>
      <set comment="kpoint 84">
       <r>  -28.6815    1.0000 </r>
       <r>  -13.6119    1.0000 </r>
       <r>  -12.8700    1.0000 </r>
       <r>  -10.5771    1.0000 </r>
       <r>   -5.2034    1.0000 </r>
       <r>   -0.0880    0.0000 </r>
       <r>    0.9893    0.0000 </r>
       <r>    3.1148    0.0000 </r>
       <r>    3.7791    0.0000 </r>
       <r>    4.0561    0.0000 </r>
       <r>    4.9630    0.0000 </r>
       <r>    6.1759    0.0000 </r>
      </set>
      <set comment="kpoint 85">
       <r>  -28.0493    1.0000 </r>
       <r>  -14.8422    1.0000 </r>
       <r>  -12.5882    1.0000 </r>
       <r>  -11.2361    1.0000 </r>
       <r>   -5.1932    1.0000 </r>
       <r>   -0.2502    0.0000 </r>
       <r>    1.5787    0.0000 </r>
       <r>    3.3213    0.0000 </r>
       <r>    4.6116    0.0000 </r>
       <r>    4.8700    0.0000 </r>
       <r>    5.7933    0.0000 </r>
       <r>    6.9723    0.0000 </r>
      </set>
      <set comment="kpoint 86">
       <r>  -28.0493    1.0000 </r>
       <r>  -14.8422    1.0000 </r>
       <r>  -12.5882    1.0000 </r>
       <r>  -11.2361    1.0000 </r>
       <r>   -5.1932    1.0000 </r>
       <r>   -0.2502    0.0000 </r>
       <r>    1.5787    0.0000 </r>
       <r>    3.3213    0.0000 </r>
       <r>    4.6175    0.0000 </r>
       <r>    4.8598    0.0000 </r>
       <r>    5.8039    0.0000 </r>
       <r>    6.9588    0.0000 </r>
      </set>
      <set comment="kpoint 87">
       <r>  -27.2888    1.0000 </r>
       <r>  -16.3825    1.0000 </r>
       <r>  -12.0014    1.0000 </r>
       <r>  -11.7526    1.0000 </r>
       <r>   -5.3425    1.0000 </r>
       <r>   -0.3270    0.0000 </r>
       <r>    2.0909    0.0000 </r>
       <r>    3.2637    0.0000 </r>
       <r>    5.6220    0.0000 </r>
       <r>    5.8491    0.0000 </r>
       <r>    6.8062    0.0000 </r>
       <r>    7.9490    0.0000 </r>
      </set>
      <set comment="kpoint 88">
       <r>  -27.2888    1.0000 </r>
       <r>  -16.3825    1.0000 </r>
       <r>  -12.0014    1.0000 </r>
       <r>  -11.7526    1.0000 </r>
       <r>   -5.3425    1.0000 </r>
       <r>   -0.3271    0.0000 </r>
       <r>    2.0909    0.0000 </r>
       <r>    3.2637    0.0000 </r>
       <r>    5.6379    0.0000 </r>
       <r>    5.8230    0.0000 </r>
       <r>    6.8343    0.0000 </r>
       <r>    7.9092    0.0000 </r>
      </set>
      <set comment="kpoint 89">
       <r>  -26.4135    1.0000 </r>
       <r>  -17.9263    1.0000 </r>
       <r>  -12.2849    1.0000 </r>
       <r>  -11.1888    1.0000 </r>
       <r>   -5.6918    1.0000 </r>
       <r>   -0.2790    0.0000 </r>
       <r>    2.3561    0.0000 </r>
       <r>    3.1609    0.0000 </r>
       <r>    6.7868    0.0000 </r>
       <r>    6.9856    0.0000 </r>
       <r>    7.9987    0.0000 </r>
       <r>    9.0970    0.0000 </r>
      </set>
      <set comment="kpoint 90">
       <r>  -26.4135    1.0000 </r>
       <r>  -17.9263    1.0000 </r>
       <r>  -12.2849    1.0000 </r>
[...]
       </set>
       <set comment="band 10">
        <r>  0.0048  0.0133  0.0000 </r>
        <r>  0.0048  0.0133  0.0000 </r>
       </set>
       <set comment="band 11">
        <r>  0.0017  0.0086  0.0000 </r>
        <r>  0.0017  0.0086  0.0000 </r>
       </set>
       <set comment="band 12">
        <r>  0.0013  0.0168  0.0000 </r>
        <r>  0.0013  0.0168  0.0000 </r>
       </set>
      </set>
      <set comment="kpoint 110">
       <set comment="band 1">
        <r>  0.2835  0.0850  0.0000 </r>
        <r>  0.2835  0.0850  0.0000 </r>
       </set>
       <set comment="band 2">
        <r>  0.2212  0.1646  0.0000 </r>
        <r>  0.2212  0.1646  0.0000 </r>
       </set>
       <set comment="band 3">
        <r>  0.0203  0.3272  0.0000 </r>
        <r>  0.0203  0.3272  0.0000 </r>
       </set>
       <set comment="band 4">
        <r>  0.1019  0.2241  0.0000 </r>
        <r>  0.1019  0.2241  0.0000 </r>
       </set>
       <set comment="band 5">
        <r>  0.0613  0.3047  0.0000 </r>
        <r>  0.0613  0.3047  0.0000 </r>
       </set>
       <set comment="band 6">
        <r>  0.0116  0.3160  0.0000 </r>
        <r>  0.0116  0.3160  0.0000 </r>
       </set>
       <set comment="band 7">
        <r>  0.0540  0.3109  0.0000 </r>
        <r>  0.0540  0.3109  0.0000 </r>
       </set>
       <set comment="band 8">
        <r>  0.0594  0.3408  0.0000 </r>
        <r>  0.0594  0.3408  0.0000 </r>
       </set>
       <set comment="band 9">
        <r>  0.0006  0.0400  0.0000 </r>
        <r>  0.0006  0.0400  0.0000 </r>
       </set>
       <set comment="band 10">
        <r>  0.0041  0.0215  0.0000 </r>
        <r>  0.0041  0.0215  0.0000 </r>
       </set>
       <set comment="band 11">
        <r>  0.0013  0.0068  0.0000 </r>
        <r>  0.0013  0.0068  0.0000 </r>
       </set>
       <set comment="band 12">
        <r>  0.0010  0.0184  0.0000 </r>
        <r>  0.0010  0.0184  0.0000 </r>
       </set>
      </set>
      <set comment="kpoint 111">
       <set comment="band 1">
        <r>  0.2835  0.0850  0.0000 </r>
        <r>  0.2835  0.0850  0.0000 </r>
       </set>
       <set comment="band 2">
        <r>  0.2212  0.1646  0.0000 </r>
        <r>  0.2212  0.1646  0.0000 </r>
       </set>
       <set comment="band 3">
        <r>  0.0203  0.3272  0.0000 </r>
        <r>  0.0203  0.3272  0.0000 </r>
       </set>
       <set comment="band 4">
        <r>  0.1019  0.2241  0.0000 </r>
        <r>  0.1019  0.2241  0.0000 </r>
       </set>
       <set comment="band 5">
        <r>  0.0613  0.3047  0.0000 </r>
        <r>  0.0613  0.3047  0.0000 </r>
       </set>
       <set comment="band 6">
        <r>  0.0116  0.3160  0.0000 </r>
        <r>  0.0116  0.3160  0.0000 </r>
       </set>
       <set comment="band 7">
        <r>  0.0540  0.3109  0.0000 </r>
        <r>  0.0540  0.3109  0.0000 </r>
       </set>
       <set comment="band 8">
        <r>  0.0594  0.3408  0.0000 </r>
        <r>  0.0594  0.3408  0.0000 </r>
       </set>
       <set comment="band 9">
        <r>  0.0005  0.0427  0.0000 </r>
        <r>  0.0005  0.0427  0.0000 </r>
       </set>
       <set comment="band 10">
        <r>  0.0042  0.0180  0.0000 </r>
        <r>  0.0042  0.0180  0.0000 </r>
       </set>
       <set comment="band 11">
        <r>  0.0014  0.0095  0.0000 </r>
        <r>  0.0014  0.0095  0.0000 </r>
       </set>
       <set comment="band 12">
        <r>  0.0010  0.0142  0.0000 </r>
        <r>  0.0010  0.0142  0.0000 </r>
       </set>
      </set>
      <set comment="kpoint 112">
       <set comment="band 1">
        <r>  0.2848  0.0911  0.0000 </r>
        <r>  0.2848  0.0911  0.0000 </r>
       </set>
       <set comment="band 2">
        <r>  0.2202  0.1565  0.0000 </r>
        <r>  0.2202  0.1565  0.0000 </r>
       </set>
       <set comment="band 3">
        <r>  0.0238  0.3222  0.0000 </r>
        <r>  0.0238  0.3222  0.0000 </r>
       </set>
       <set comment="band 4">
        <r>  0.1013  0.2371  0.0000 </r>
        <r>  0.1013  0.2371  0.0000 </r>
       </set>
       <set comment="band 5">
        <r>  0.0680  0.2903  0.0000 </r>
        <r>  0.0680  0.2903  0.0000 </r>
       </set>
       <set comment="band 6">
        <r>  0.0030  0.3087  0.0000 </r>
        <r>  0.0030  0.3087  0.0000 </r>
       </set>
       <set comment="band 7">
        <r>  0.0734  0.3134  0.0000 </r>
        <r>  0.0734  0.3134  0.0000 </r>
       </set>
       <set comment="band 8">
        <r>  0.0410  0.3483  0.0000 </r>
        <r>  0.0410  0.3483  0.0000 </r>
       </set>
       <set comment="band 9">
        <r>  0.0007  0.0374  0.0000 </r>
        <r>  0.0007  0.0374  0.0000 </r>
       </set>
       <set comment="band 10">
        <r>  0.0035  0.0274  0.0000 </r>
        <r>  0.0035  0.0274  0.0000 </r>
       </set>
       <set comment="band 11">
        <r>  0.0008  0.0061  0.0000 </r>
        <r>  0.0008  0.0061  0.0000 </r>
       </set>
       <set comment="band 12">
        <r>  0.0005  0.0204  0.0000 </r>
        <r>  0.0005  0.0204  0.0000 </r>
       </set>
      </set>
      <set comment="kpoint 113">
       <set comment="band 1">
        <r>  0.2848  0.0911  0.0000 </r>
        <r>  0.2848  0.0911  0.0000 </r>
       </set>
       <set comment="band 2">
        <r>  0.2202  0.1565  0.0000 </r>
        <r>  0.2202  0.1565  0.0000 </r>
       </set>
       <set comment="band 3">
        <r>  0.0238  0.3222  0.0000 </r>
        <r>  0.0238  0.3222  0.0000 </r>
       </set>
       <set comment="band 4">
        <r>  0.1013  0.2371  0.0000 </r>
        <r>  0.1013  0.2371  0.0000 </r>
       </set>
       <set comment="band 5">
        <r>  0.0680  0.2903  0.0000 </r>
        <r>  0.0680  0.2903  0.0000 </r>
       </set>
       <set comment="band 6">
        <r>  0.0030  0.3087  0.0000 </r>
        <r>  0.0030  0.3087  0.0000 </r>
       </set>
       <set comment="band 7">
        <r>  0.0734  0.3134  0.0000 </r>
        <r>  0.0734  0.3134  0.0000 </r>
       </set>
       <set comment="band 8">
        <r>  0.0410  0.3483  0.0000 </r>
        <r>  0.0410  0.3483  0.0000 </r>
       </set>
       <set comment="band 9">
        <r>  0.0006  0.0380  0.0000 </r>
        <r>  0.0006  0.0380  0.0000 </r>
       </set>
       <set comment="band 10">
        <r>  0.0035  0.0256  0.0000 </r>
        <r>  0.0035  0.0256  0.0000 </r>
       </set>
       <set comment="band 11">
        <r>  0.0009  0.0119  0.0000 </r>
        <r>  0.0009  0.0119  0.0000 </r>
       </set>
       <set comment="band 12">
        <r>  0.0004  0.0103  0.0000 </r>
        <r>  0.0004  0.0103  0.0000 </r>
       </set>
      </set>
      <set comment="kpoint 114">
       <set comment="band 1">
        <r>  0.2916  0.0907  0.0000 </r>
        <r>  0.2916  0.0907  0.0000 </r>
       </set>
       <set comment="band 2">
        <r>  0.2133  0.1562  0.0000 </r>
        <r>  0.2133  0.1562  0.0000 </r>
       </set>
       <set comment="band 3">
        <r>  0.0251  0.3205  0.0000 </r>
        <r>  0.0251  0.3205  0.0000 </r>
       </set>
       <set comment="band 4">
        <r>  0.1018  0.2444  0.0000 </r>
        <r>  0.1018  0.2444  0.0000 </r>
       </set>
       <set comment="band 5">
        <r>  0.0695  0.2822  0.0000 </r>
        <r>  0.0695  0.2822  0.0000 </r>
       </set>
       <set comment="band 6">
        <r>  0.0001  0.3062  0.0000 </r>
        <r>  0.0001  0.3062  0.0000 </r>
       </set>
       <set comment="band 7">
        <r>  0.0800  0.3143  0.0000 </r>
        <r>  0.0800  0.3143  0.0000 </r>
       </set>
       <set comment="band 8">
        <r>  0.0347  0.3523  0.0000 </r>
        <r>  0.0347  0.3523  0.0000 </r>
       </set>
       <set comment="band 9">
        <r>  0.0009  0.0233  0.0000 </r>
        <r>  0.0009  0.0233  0.0000 </r>
       </set>
       <set comment="band 10">
        <r>  0.0001  0.0672  0.0000 </r>
        <r>  0.0001  0.0672  0.0000 </r>
       </set>
       <set comment="band 11">
        <r>  0.0037  0.0201  0.0000 </r>
        <r>  0.0037  0.0201  0.0000 </r>
       </set>
       <set comment="band 12">
        <r>  0.0019  0.0162  0.0000 </r>
        <r>  0.0019  0.0162  0.0000 </r>
       </set>
      </set>
      <set comment="kpoint 115">
       <set comment="band 1">
        <r>  0.2827  0.0853  0.0000 </r>
        <r>  0.2827  0.0853  0.0000 </r>
       </set>
       <set comment="band 2">
        <r>  0.2316  0.1608  0.0000 </r>
        <r>  0.2316  0.1608  0.0000 </r>
       </set>
       <set comment="band 3">
        <r>  0.0131  0.3266  0.0000 </r>
        <r>  0.0131  0.3266  0.0000 </r>
       </set>
       <set comment="band 4">
        <r>  0.1011  0.2238  0.0000 </r>
        <r>  0.1011  0.2238  0.0000 </r>
       </set>
       <set comment="band 5">
        <r>  0.0609  0.3080  0.0000 </r>
        <r>  0.0609  0.3080  0.0000 </r>
       </set>
       <set comment="band 6">
        <r>  0.0053  0.3197  0.0000 </r>
        <r>  0.0053  0.3197  0.0000 </r>
       </set>
       <set comment="band 7">
        <r>  0.0431  0.3067  0.0000 </r>
        <r>  0.0431  0.3067  0.0000 </r>
       </set>
       <set comment="band 8">
        <r>  0.0775  0.3515  0.0000 </r>
        <r>  0.0775  0.3515  0.0000 </r>
       </set>
       <set comment="band 9">
        <r>  0.0002  0.0440  0.0000 </r>
        <r>  0.0002  0.0440  0.0000 </r>
       </set>
       <set comment="band 10">
        <r>  0.0044  0.0163  0.0000 </r>
        <r>  0.0044  0.0163  0.0000 </r>
       </set>
       <set comment="band 11">
        <r>  0.0013  0.0080  0.0000 </r>
        <r>  0.0013  0.0080  0.0000 </r>
       </set>
       <set comment="band 12">
        <r>  0.0010  0.0161  0.0000 </r>
        <r>  0.0010  0.0161  0.0000 </r>
       </set>
      </set>
      <set comment="kpoint 116">
       <set comment="band 1">
        <r>  0.2800  0.0940  0.0000 </r>
        <r>  0.2800  0.0940  0.0000 </r>
       </set>
       <set comment="band 2">
        <r>  0.2406  0.1476  0.0000 </r>
        <r>  0.2406  0.1476  0.0000 </r>
       </set>
       <set comment="band 3">
        <r>  0.0126  0.3207  0.0000 </r>
        <r>  0.0126  0.3207  0.0000 </r>
       </set>
       <set comment="band 4">
        <r>  0.0985  0.2376  0.0000 </r>
        <r>  0.0985  0.2376  0.0000 </r>
       </set>
       <set comment="band 5">
        <r>  0.0696  0.2957  0.0000 </r>
        <r>  0.0696  0.2957  0.0000 </r>
       </set>
       <set comment="band 6">
        <r>  0.0019  0.3031  0.0000 </r>
        <r>  0.0019  0.3031  0.0000 </r>
       </set>
       <set comment="band 7">
        <r>  0.0527  0.3269  0.0000 </r>
        <r>  0.0527  0.3269  0.0000 </r>
       </set>
       <set comment="band 8">
        <r>  0.0628  0.3567  0.0000 </r>
        <r>  0.0628  0.3567  0.0000 </r>
       </set>
       <set comment="band 9">
        <r>  0.0002  0.0455  0.0000 </r>
        <r>  0.0002  0.0455  0.0000 </r>
       </set>
       <set comment="band 10">
        <r>  0.0039  0.0217  0.0000 </r>
        <r>  0.0039  0.0217  0.0000 </r>
       </set>
       <set comment="band 11">
        <r>  0.0009  0.0073  0.0000 </r>
        <r>  0.0009  0.0073  0.0000 </r>
       </set>
       <set comment="band 12">
        <r>  0.0006  0.0173  0.0000 </r>
        <r>  0.0006  0.0173  0.0000 </r>
       </set>
      </set>
      <set comment="kpoint 117">
       <set comment="band 1">
        <r>  0.2800  0.0940  0.0000 </r>
        <r>  0.2800  0.0940  0.0000 </r>
       </set>
       <set comment="band 2">
        <r>  0.2406  0.1476  0.0000 </r>
        <r>  0.2406  0.1476  0.0000 </r>
       </set>
       <set comment="band 3">
        <r>  0.0126  0.3207  0.0000 </r>
        <r>  0.0126  0.3207  0.0000 </r>
       </set>
       <set comment="band 4">
        <r>  0.0985  0.2376  0.0000 </r>
        <r>  0.0985  0.2376  0.0000 </r>
       </set>
       <set comment="band 5">
        <r>  0.0696  0.2957  0.0000 </r>
        <r>  0.0696  0.2957  0.0000 </r>
       </set>
       <set comment="band 6">
        <r>  0.0019  0.3031  0.0000 </r>
        <r>  0.0019  0.3031  0.0000 </r>
       </set>
       <set comment="band 7">
        <r>  0.0527  0.3269  0.0000 </r>
        <r>  0.0527  0.3269  0.0000 </r>
       </set>
       <set comment="band 8">
        <r>  0.0628  0.3567  0.0000 </r>
        <r>  0.0628  0.3567  0.0000 </r>
       </set>
       <set comment="band 9">
        <r>  0.0001  0.0460  0.0000 </r>
        <r>  0.0001  0.0460  0.0000 </r>
       </set>
       <set comment="band 10">
        <r>  0.0040  0.0207  0.0000 </r>
        <r>  0.0040  0.0207  0.0000 </r>
       </set>
       <set comment="band 11">
        <r>  0.0009  0.0091  0.0000 </r>
        <r>  0.0009  0.0091  0.0000 </r>
       </set>
       <set comment="band 12">
        <r>  0.0006  0.0136  0.0000 </r>
        <r>  0.0006  0.0136  0.0000 </r>
       </set>
      </set>
      <set comment="kpoint 118">
       <set comment="band 1">
        <r>  0.2825  0.0988  0.0000 </r>
        <r>  0.2825  0.0988  0.0000 </r>
       </set>
       <set comment="band 2">
        <r>  0.2402  0.1409  0.0000 </r>
        <r>  0.2402  0.1409  0.0000 </r>
       </set>
       <set comment="band 3">
        <r>  0.0134  0.3175  0.0000 </r>
        <r>  0.0134  0.3175  0.0000 </r>
       </set>
       <set comment="band 4">
        <r>  0.0964  0.2504  0.0000 </r>
        <r>  0.0964  0.2504  0.0000 </r>
       </set>
       <set comment="band 5">
        <r>  0.0750  0.2834  0.0000 </r>
        <r>  0.0750  0.2834  0.0000 </r>
       </set>
       <set comment="band 6">
        <r>  0.0004  0.2945  0.0000 </r>
        <r>  0.0004  0.2945  0.0000 </r>
       </set>
       <set comment="band 7">
        <r>  0.0675  0.3433  0.0000 </r>
        <r>  0.0675  0.3433  0.0000 </r>
       </set>
       <set comment="band 8">
        <r>  0.0446  0.3564  0.0000 </r>
        <r>  0.0446  0.3564  0.0000 </r>
       </set>
       <set comment="band 9">
        <r>  0.0004  0.0400  0.0000 </r>
        <r>  0.0004  0.0400  0.0000 </r>
       </set>
       <set comment="band 10">
        <r>  0.0026  0.0393  0.0000 </r>
        <r>  0.0026  0.0393  0.0000 </r>
       </set>
       <set comment="band 11">
        <r>  0.0002  0.0327  0.0000 </r>
        <r>  0.0002  0.0327  0.0000 </r>
       </set>
       <set comment="band 12">
        <r>  0.0004  0.0205  0.0000 </r>
        <r>  0.0004  0.0205  0.0000 </r>
       </set>
      </set>
      <set comment="kpoint 119">
       <set comment="band 1">
        <r>  0.2825  0.0988  0.0000 </r>
        <r>  0.2825  0.0988  0.0000 </r>
       </set>
       <set comment="band 2">
        <r>  0.2402  0.1409  0.0000 </r>
        <r>  0.2402  0.1409  0.0000 </r>
       </set>
       <set comment="band 3">
        <r>  0.0134  0.3175  0.0000 </r>
        <r>  0.0134  0.3175  0.0000 </r>
       </set>
       <set comment="band 4">
        <r>  0.0964  0.2504  0.0000 </r>
        <r>  0.0964  0.2504  0.0000 </r>
       </set>
       <set comment="band 5">
        <r>  0.0750  0.2834  0.0000 </r>
        <r>  0.0750  0.2834  0.0000 </r>
       </set>
       <set comment="band 6">
        <r>  0.0004  0.2945  0.0000 </r>
        <r>  0.0004  0.2945  0.0000 </r>
       </set>
       <set comment="band 7">
        <r>  0.0675  0.3433  0.0000 </r>
        <r>  0.0675  0.3433  0.0000 </r>
       </set>
       <set comment="band 8">
        <r>  0.0446  0.3564  0.0000 </r>
        <r>  0.0446  0.3564  0.0000 </r>
       </set>
       <set comment="band 9">
        <r>  0.0004  0.0402  0.0000 </r>
        <r>  0.0004  0.0402  0.0000 </r>
       </set>
       <set comment="band 10">
        <r>  0.0026  0.0384  0.0000 </r>
        <r>  0.0026  0.0384  0.0000 </r>
       </set>
       <set comment="band 11">
        <r>  0.0003  0.0354  0.0000 </r>
        <r>  0.0003  0.0354  0.0000 </r>
       </set>
       <set comment="band 12">
        <r>  0.0005  0.0122  0.0000 </r>
        <r>  0.0005  0.0121  0.0000 </r>
       </set>
      </set>
      <set comment="kpoint 120">
       <set comment="band 1">
        <r>  0.2769  0.1030  0.0000 </r>
        <r>  0.2769  0.1030  0.0000 </r>
       </set>
       <set comment="band 2">
        <r>  0.2560  0.1322  0.0000 </r>
        <r>  0.2560  0.1322  0.0000 </r>
       </set>
       <set comment="band 3">
        <r>  0.0051  0.3186  0.0000 </r>
        <r>  0.0051  0.3186  0.0000 </r>
       </set>
       <set comment="band 4">
        <r>  0.0939  0.2521  0.0000 </r>
        <r>  0.0939  0.2521  0.0000 </r>
       </set>
       <set comment="band 5">
        <r>  0.0776  0.2844  0.0000 </r>
        <r>  0.0776  0.2844  0.0000 </r>
       </set>
       <set comment="band 6">
        <r>  0.0005  0.2899  0.0000 </r>
        <r>  0.0005  0.2899  0.0000 </r>
       </set>
       <set comment="band 7">
        <r>  0.0469  0.3472  0.0000 </r>
        <r>  0.0469  0.3472  0.0000 </r>
       </set>
       <set comment="band 8">
        <r>  0.0645  0.3673  0.0000 </r>
        <r>  0.0645  0.3673  0.0000 </r>
       </set>
       <set comment="band 9">
        <r>  0.0000  0.0480  0.0000 </r>
        <r>  0.0000  0.0480  0.0000 </r>
       </set>
       <set comment="band 10">
        <r>  0.0033  0.0290  0.0000 </r>
        <r>  0.0033  0.0290  0.0000 </r>
       </set>
       <set comment="band 11">
        <r>  0.0000  0.0535  0.0000 </r>
        <r>  0.0000  0.0535  0.0000 </r>
       </set>
       <set comment="band 12">
        <r>  0.0003  0.0104  0.0000 </r>
        <r>  0.0003  0.0104  0.0000 </r>
       </set>
      </set>
      <set comment="kpoint 121">
       <set comment="band 1">
        <r>  0.2764  0.1084  0.0000 </r>
        <r>  0.2764  0.1084  0.0000 </r>
       </set>
       <set comment="band 2">
        <r>  0.2610  0.1244  0.0000 </r>
        <r>  0.2610  0.1244  0.0000 </r>
       </set>
       <set comment="band 3">
        <r>  0.0023  0.3182  0.0000 </r>
        <r>  0.0023  0.3182  0.0000 </r>
       </set>
       <set comment="band 4">
        <r>  0.0906  0.2623  0.0000 </r>
        <r>  0.0906  0.2623  0.0000 </r>
       </set>
       <set comment="band 5">
        <r>  0.0822  0.2755  0.0000 </r>
        <r>  0.0822  0.2755  0.0000 </r>
       </set>
       <set comment="band 6">
        <r>  0.0001  0.2851  0.0000 </r>
        <r>  0.0001  0.2851  0.0000 </r>
       </set>
       <set comment="band 7">
        <r>  0.0600  0.3643  0.0000 </r>
        <r>  0.0600  0.3643  0.0000 </r>
       </set>
       <set comment="band 8">
        <r>  0.0497  0.3629  0.0000 </r>
        <r>  0.0497  0.3629  0.0000 </r>
       </set>
       <set comment="band 9">
        <r>  0.0003  0.0428  0.0000 </r>
        <r>  0.0003  0.0428  0.0000 </r>
       </set>
       <set comment="band 10">
        <r>  0.0001  0.0508  0.0000 </r>
        <r>  0.0001  0.0508  0.0000 </r>
       </set>
       <set comment="band 11">
        <r>  0.0008  0.0429  0.0000 </r>
        <r>  0.0008  0.0429  0.0000 </r>
       </set>
       <set comment="band 12">
        <r>  0.0013  0.0352  0.0000 </r>
        <r>  0.0013  0.0352  0.0000 </r>
       </set>
      </set>
     </set>
    </set>
   </array>
  </projected>
 </calculation>
 <structure name="finalpos" >
  <crystal>
   <varray name="basis" >
    <v>       2.29449859       0.00000000       0.00000000 </v>
    <v>      -1.14724930       1.98709407       0.00000000 </v>
    <v>       0.00000000       0.00000000      16.00000000 </v>
   </varray>
   <i name="volume">     72.95015287 </i>
   <varray name="rec_basis" >
    <v>       0.43582507       0.25162372       0.00000000 </v>
    <v>       0.00000000       0.50324744       0.00000000 </v>
    <v>       0.00000000       0.00000000       0.06250000 </v>
   </varray>
  </crystal>
  <varray name="positions" >
   <v>       0.66666667       0.33333333       0.47822185 </v>
   <v>       0.33333333       0.66666667       0.52177815 </v>
  </varray>
 </structure>
</modeling>
