   2   2   1   0
  0.9013366E+02  0.3606893E-09  0.3606893E-09  0.1600000E-08  0.5000000E-15
  1.000000000000000E-004
  CAR 
 unknown system                          
      9.84285352    -17.72834653 6001     -2.92720618      1.00000000
    -17.728  0.0000E+00  0.0000E+00
    -17.724  0.0000E+00  0.0000E+00
    -17.719  0.0000E+00  0.0000E+00
    -17.715  0.0000E+00  0.0000E+00
    -17.710  0.0000E+00  0.0000E+00
    -17.705  0.0000E+00  0.0000E+00
    -17.701  0.0000E+00  0.0000E+00
    -17.696  0.0000E+00  0.0000E+00
    -17.692  0.0000E+00  0.0000E+00
    -17.687  0.0000E+00  0.0000E+00
    -17.682  0.0000E+00  0.0000E+00
    -17.678  0.0000E+00  0.0000E+00
    -17.673  0.0000E+00  0.0000E+00
    -17.669  0.0000E+00  0.0000E+00
    -17.664  0.0000E+00  0.0000E+00
    -17.659  0.0000E+00  0.0000E+00
    -17.655  0.0000E+00  0.0000E+00
    -17.650  0.0000E+00  0.0000E+00
    -17.646  0.0000E+00  0.0000E+00
    -17.641  0.0000E+00  0.0000E+00
    -17.636  0.0000E+00  0.0000E+00
    -17.632  0.0000E+00  0.0000E+00
    -17.627  0.0000E+00  0.0000E+00
    -17.623  0.0000E+00  0.0000E+00
    -17.618  0.0000E+00  0.0000E+00
    -17.613  0.0000E+00  0.0000E+00
    -17.609  0.0000E+00  0.0000E+00
    -17.604  0.0000E+00  0.0000E+00
    -17.600  0.0000E+00  0.0000E+00
    -17.595  0.0000E+00  0.0000E+00
    -17.590  0.0000E+00  0.0000E+00
    -17.586  0.0000E+00  0.0000E+00
    -17.581  0.0000E+00  0.0000E+00
    -17.577  0.0000E+00  0.0000E+00
    -17.572  0.0000E+00  0.0000E+00
    -17.568  0.0000E+00  0.0000E+00
    -17.563  0.0000E+00  0.0000E+00
    -17.558  0.0000E+00  0.0000E+00
    -17.554  0.0000E+00  0.0000E+00
    -17.549  0.0000E+00  0.0000E+00
    -17.545  0.0000E+00  0.0000E+00
    -17.540  0.0000E+00  0.0000E+00
    -17.535  0.0000E+00  0.0000E+00
    -17.531  0.0000E+00  0.0000E+00
    -17.526  0.0000E+00  0.0000E+00
    -17.522  0.0000E+00  0.0000E+00
    -17.517  0.0000E+00  0.0000E+00
    -17.512  0.0000E+00  0.0000E+00
    -17.508  0.0000E+00  0.0000E+00
    -17.503  0.0000E+00  0.0000E+00
    -17.499  0.0000E+00  0.0000E+00
    -17.494  0.0000E+00  0.0000E+00
    -17.489  0.0000E+00  0.0000E+00
    -17.485  0.0000E+00  0.0000E+00
    -17.480  0.0000E+00  0.0000E+00
    -17.476  0.0000E+00  0.0000E+00
    -17.471  0.0000E+00  0.0000E+00
    -17.466  0.0000E+00  0.0000E+00
    -17.462  0.0000E+00  0.0000E+00
    -17.457  0.0000E+00  0.0000E+00
    -17.453  0.0000E+00  0.0000E+00
    -17.448  0.0000E+00  0.0000E+00
    -17.443  0.0000E+00  0.0000E+00
    -17.439  0.0000E+00  0.0000E+00
    -17.434  0.0000E+00  0.0000E+00
    -17.430  0.0000E+00  0.0000E+00
    -17.425  0.0000E+00  0.0000E+00
    -17.420  0.0000E+00  0.0000E+00
    -17.416  0.0000E+00  0.0000E+00
    -17.411  0.0000E+00  0.0000E+00
    -17.407  0.0000E+00  0.0000E+00
    -17.402  0.0000E+00  0.0000E+00
    -17.397  0.0000E+00  0.0000E+00
    -17.393  0.0000E+00  0.0000E+00
    -17.388  0.0000E+00  0.0000E+00
    -17.384  0.0000E+00  0.0000E+00
    -17.379  0.0000E+00  0.0000E+00
    -17.375  0.0000E+00  0.0000E+00
    -17.370  0.0000E+00  0.0000E+00
    -17.365  0.0000E+00  0.0000E+00
    -17.361  0.0000E+00  0.0000E+00
    -17.356  0.0000E+00  0.0000E+00
    -17.352  0.0000E+00  0.0000E+00
    -17.347  0.0000E+00  0.0000E+00
    -17.342  0.0000E+00  0.0000E+00
    -17.338  0.0000E+00  0.0000E+00
    -17.333  0.0000E+00  0.0000E+00
    -17.329  0.0000E+00  0.0000E+00
    -17.324  0.0000E+00  0.0000E+00
    -17.319  0.0000E+00  0.0000E+00
    -17.315  0.0000E+00  0.0000E+00
    -17.310  0.0000E+00  0.0000E+00
    -17.306  0.0000E+00  0.0000E+00
    -17.301  0.0000E+00  0.0000E+00
    -17.296  0.0000E+00  0.0000E+00
    -17.292  0.0000E+00  0.0000E+00
    -17.287  0.0000E+00  0.0000E+00
    -17.283  0.0000E+00  0.0000E+00
    -17.278  0.0000E+00  0.0000E+00
    -17.273  0.0000E+00  0.0000E+00
    -17.269  0.0000E+00  0.0000E+00
    -17.264  0.0000E+00  0.0000E+00
    -17.260  0.0000E+00  0.0000E+00
    -17.255  0.0000E+00  0.0000E+00
    -17.250  0.0000E+00  0.0000E+00
    -17.246  0.0000E+00  0.0000E+00
    -17.241  0.0000E+00  0.0000E+00
    -17.237  0.0000E+00  0.0000E+00
    -17.232  0.0000E+00  0.0000E+00
    -17.227  0.0000E+00  0.0000E+00
    -17.223  0.0000E+00  0.0000E+00
    -17.218  0.0000E+00  0.0000E+00
    -17.214  0.0000E+00  0.0000E+00
    -17.209  0.0000E+00  0.0000E+00
    -17.204  0.0000E+00  0.0000E+00
    -17.200  0.0000E+00  0.0000E+00
    -17.195  0.0000E+00  0.0000E+00
    -17.191  0.0000E+00  0.0000E+00
    -17.186  0.0000E+00  0.0000E+00
    -17.182  0.0000E+00  0.0000E+00
    -17.177  0.0000E+00  0.0000E+00
    -17.172  0.0000E+00  0.0000E+00
    -17.168  0.0000E+00  0.0000E+00
    -17.163  0.0000E+00  0.0000E+00
    -17.159  0.0000E+00  0.0000E+00
    -17.154  0.0000E+00  0.0000E+00
    -17.149  0.0000E+00  0.0000E+00
    -17.145  0.0000E+00  0.0000E+00
    -17.140  0.0000E+00  0.0000E+00
    -17.136  0.0000E+00  0.0000E+00
    -17.131  0.0000E+00  0.0000E+00
    -17.126  0.0000E+00  0.0000E+00
    -17.122  0.0000E+00  0.0000E+00
    -17.117  0.0000E+00  0.0000E+00
    -17.113  0.0000E+00  0.0000E+00
    -17.108  0.0000E+00  0.0000E+00
    -17.103  0.0000E+00  0.0000E+00
    -17.099  0.0000E+00  0.0000E+00
    -17.094  0.0000E+00  0.0000E+00
    -17.090  0.0000E+00  0.0000E+00
    -17.085  0.0000E+00  0.0000E+00
    -17.080  0.0000E+00  0.0000E+00
    -17.076  0.0000E+00  0.0000E+00
    -17.071  0.0000E+00  0.0000E+00
    -17.067  0.0000E+00  0.0000E+00
    -17.062  0.0000E+00  0.0000E+00
    -17.057  0.0000E+00  0.0000E+00
    -17.053  0.0000E+00  0.0000E+00
    -17.048  0.0000E+00  0.0000E+00
    -17.044  0.0000E+00  0.0000E+00
    -17.039  0.0000E+00  0.0000E+00
    -17.034  0.0000E+00  0.0000E+00
    -17.030  0.0000E+00  0.0000E+00
    -17.025  0.0000E+00  0.0000E+00
    -17.021  0.0000E+00  0.0000E+00
    -17.016  0.0000E+00  0.0000E+00
    -17.011  0.0000E+00  0.0000E+00
    -17.007  0.0000E+00  0.0000E+00
    -17.002  0.0000E+00  0.0000E+00
    -16.998  0.0000E+00  0.0000E+00
    -16.993  0.0000E+00  0.0000E+00
    -16.989  0.0000E+00  0.0000E+00
    -16.984  0.0000E+00  0.0000E+00
    -16.979  0.0000E+00  0.0000E+00
    -16.975  0.0000E+00  0.0000E+00
    -16.970  0.0000E+00  0.0000E+00
    -16.966  0.0000E+00  0.0000E+00
    -16.961  0.0000E+00  0.0000E+00
    -16.956  0.0000E+00  0.0000E+00
    -16.952  0.0000E+00  0.0000E+00
    -16.947  0.0000E+00  0.0000E+00
    -16.943  0.0000E+00  0.0000E+00
    -16.938  0.0000E+00  0.0000E+00
    -16.933  0.0000E+00  0.0000E+00
    -16.929  0.0000E+00  0.0000E+00
    -16.924  0.0000E+00  0.0000E+00
    -16.920  0.0000E+00  0.0000E+00
    -16.915  0.0000E+00  0.0000E+00
    -16.910  0.0000E+00  0.0000E+00
    -16.906  0.0000E+00  0.0000E+00
    -16.901  0.0000E+00  0.0000E+00
    -16.897  0.0000E+00  0.0000E+00
    -16.892  0.0000E+00  0.0000E+00
    -16.887  0.0000E+00  0.0000E+00
    -16.883  0.0000E+00  0.0000E+00
    -16.878  0.0000E+00  0.0000E+00
    -16.874  0.0000E+00  0.0000E+00
    -16.869  0.0000E+00  0.0000E+00
    -16.864  0.0000E+00  0.0000E+00
    -16.860  0.0000E+00  0.0000E+00
    -16.855  0.0000E+00  0.0000E+00
    -16.851  0.0000E+00  0.0000E+00
    -16.846  0.0000E+00  0.0000E+00
    -16.841  0.0000E+00  0.0000E+00
    -16.837  0.0000E+00  0.0000E+00
    -16.832  0.0000E+00  0.0000E+00
    -16.828  0.0000E+00  0.0000E+00
    -16.823  0.0000E+00  0.0000E+00
    -16.818  0.0000E+00  0.0000E+00
    -16.814  0.0000E+00  0.0000E+00
    -16.809  0.0000E+00  0.0000E+00
    -16.805  0.0000E+00  0.0000E+00
    -16.800  0.0000E+00  0.0000E+00
    -16.796  0.0000E+00  0.0000E+00
    -16.791  0.0000E+00  0.0000E+00
    -16.786  0.0000E+00  0.0000E+00
    -16.782  0.0000E+00  0.0000E+00
    -16.777  0.0000E+00  0.0000E+00
    -16.773  0.0000E+00  0.0000E+00
    -16.768  0.0000E+00  0.0000E+00
    -16.763  0.0000E+00  0.0000E+00
    -16.759  0.0000E+00  0.0000E+00
    -16.754  0.0000E+00  0.0000E+00
    -16.750  0.0000E+00  0.0000E+00
    -16.745  0.0000E+00  0.0000E+00
    -16.740  0.0000E+00  0.0000E+00
    -16.736  0.0000E+00  0.0000E+00
    -16.731  0.0000E+00  0.0000E+00
    -16.727  0.0000E+00  0.0000E+00
    -16.722  0.0000E+00  0.0000E+00
    -16.717  0.0000E+00  0.0000E+00
    -16.713  0.0000E+00  0.0000E+00
    -16.708  0.0000E+00  0.0000E+00
    -16.704  0.0000E+00  0.0000E+00
    -16.699  0.0000E+00  0.0000E+00
    -16.694  0.0000E+00  0.0000E+00
    -16.690  0.0000E+00  0.0000E+00
    -16.685  0.0000E+00  0.0000E+00
    -16.681  0.0000E+00  0.0000E+00
    -16.676  0.0000E+00  0.0000E+00
    -16.671  0.0000E+00  0.0000E+00
    -16.667  0.0000E+00  0.0000E+00
    -16.662  0.0000E+00  0.0000E+00
    -16.658  0.0000E+00  0.0000E+00
    -16.653  0.0000E+00  0.0000E+00
    -16.648  0.0000E+00  0.0000E+00
    -16.644  0.0000E+00  0.0000E+00
    -16.639  0.0000E+00  0.0000E+00
    -16.635  0.0000E+00  0.0000E+00
    -16.630  0.0000E+00  0.0000E+00
    -16.625  0.0000E+00  0.0000E+00
    -16.621  0.0000E+00  0.0000E+00
    -16.616  0.0000E+00  0.0000E+00
    -16.612  0.0000E+00  0.0000E+00
    -16.607  0.0000E+00  0.0000E+00
    -16.603  0.0000E+00  0.0000E+00
    -16.598  0.0000E+00  0.0000E+00
    -16.593  0.0000E+00  0.0000E+00
    -16.589  0.0000E+00  0.0000E+00
    -16.584  0.0000E+00  0.0000E+00
    -16.580  0.0000E+00  0.0000E+00
    -16.575  0.0000E+00  0.0000E+00
    -16.570  0.0000E+00  0.0000E+00
    -16.566  0.0000E+00  0.0000E+00
    -16.561  0.0000E+00  0.0000E+00
    -16.557  0.0000E+00  0.0000E+00
    -16.552  0.0000E+00  0.0000E+00
    -16.547  0.0000E+00  0.0000E+00
    -16.543  0.0000E+00  0.0000E+00
    -16.538  0.0000E+00  0.0000E+00
    -16.534  0.1430E-15  0.6569E-18
    -16.529  0.3231E-13  0.1491E-15
    -16.524  0.4014E-11  0.1859E-13
    -16.520  0.3298E-09  0.1534E-11
    -16.515  0.1789E-07  0.8376E-10
    -16.511  0.6415E-06  0.3031E-08
    -16.506  0.1521E-04  0.7292E-07
    -16.501  0.2387E-03  0.1170E-05
    -16.497  0.2483E-02  0.1258E-04
    -16.492  0.1713E-01  0.9128E-04
    -16.488  0.7843E-01  0.4517E-03
    -16.483  0.2386E+00  0.1548E-02
    -16.478  0.4827E+00  0.3766E-02
    -16.474  0.6492E+00  0.6750E-02
    -16.469  0.5809E+00  0.9419E-02
    -16.465  0.3457E+00  0.1101E-01
    -16.460  0.1368E+00  0.1164E-01
    -16.455  0.3598E-01  0.1180E-01
    -16.451  0.6285E-02  0.1183E-01
    -16.446  0.7283E-03  0.1183E-01
    -16.442  0.5596E-04  0.1183E-01
    -16.437  0.2935E-05  0.1183E-01
    -16.433  0.3309E-05  0.1183E-01
    -16.428  0.7775E-04  0.1183E-01
    -16.423  0.1246E-02  0.1184E-01
    -16.419  0.1323E-01  0.1190E-01
    -16.414  0.9326E-01  0.1233E-01
    -16.410  0.4365E+00  0.1434E-01
    -16.405  0.1358E+01  0.2058E-01
    -16.400  0.2811E+01  0.3349E-01
    -16.396  0.3870E+01  0.5127E-01
    -16.391  0.3546E+01  0.6757E-01
    -16.387  0.2162E+01  0.7750E-01
    -16.382  0.8771E+00  0.8153E-01
    -16.377  0.2366E+00  0.8262E-01
    -16.373  0.4240E-01  0.8282E-01
    -16.368  0.5045E-02  0.8284E-01
    -16.364  0.3981E-03  0.8284E-01
    -16.359  0.2082E-04  0.8284E-01
    -16.354  0.7208E-06  0.8284E-01
    -16.350  0.1650E-07  0.8284E-01
    -16.345  0.2497E-09  0.8284E-01
    -16.341  0.2496E-11  0.8284E-01
    -16.336  0.1658E-13  0.8284E-01
    -16.331  0.0000E+00  0.8284E-01
    -16.327  0.0000E+00  0.8284E-01
    -16.322  0.0000E+00  0.8284E-01
    -16.318  0.0000E+00  0.8284E-01
    -16.313  0.0000E+00  0.8284E-01
    -16.308  0.0000E+00  0.8284E-01
    -16.304  0.0000E+00  0.8284E-01
    -16.299  0.1430E-14  0.8284E-01
    -16.295  0.3002E-12  0.8284E-01
    -16.290  0.3527E-10  0.8284E-01
    -16.285  0.2745E-08  0.8284E-01
    -16.281  0.1416E-06  0.8284E-01
    -16.276  0.4841E-05  0.8284E-01
    -16.272  0.1099E-03  0.8284E-01
    -16.267  0.1658E-02  0.8285E-01
    -16.262  0.1664E-01  0.8292E-01
    -16.258  0.1113E+00  0.8344E-01
    -16.253  0.4959E+00  0.8571E-01
    -16.249  0.1475E+01  0.9249E-01
    -16.244  0.2928E+01  0.1059E+00
    -16.240  0.3884E+01  0.1238E+00
    -16.235  0.3442E+01  0.1396E+00
    -16.230  0.2038E+01  0.1490E+00
    -16.226  0.8056E+00  0.1527E+00
    -16.221  0.2126E+00  0.1537E+00
    -16.217  0.3742E-01  0.1538E+00
    -16.212  0.4388E-02  0.1538E+00
    -16.207  0.3425E-03  0.1538E+00
    -16.203  0.1808E-04  0.1538E+00
    -16.198  0.9919E-05  0.1538E+00
    -16.194  0.1923E-03  0.1538E+00
    -16.189  0.2648E-02  0.1539E+00
    -16.184  0.2434E-01  0.1540E+00
    -16.180  0.1496E+00  0.1547E+00
    -16.175  0.6156E+00  0.1575E+00
    -16.171  0.1697E+01  0.1653E+00
    -16.166  0.3138E+01  0.1797E+00
    -16.161  0.3893E+01  0.1976E+00
    -16.157  0.3241E+01  0.2125E+00
    -16.152  0.1810E+01  0.2208E+00
    -16.148  0.6781E+00  0.2239E+00
    -16.143  0.1702E+00  0.2247E+00
    -16.138  0.2860E-01  0.2248E+00
    -16.134  0.3213E-02  0.2249E+00
    -16.129  0.2410E-03  0.2249E+00
    -16.125  0.1205E-04  0.2249E+00
    -16.120  0.4011E-06  0.2249E+00
    -16.115  0.8874E-08  0.2249E+00
    -16.111  0.1303E-09  0.2249E+00
    -16.106  0.1269E-11  0.2249E+00
    -16.102  0.8006E-14  0.2249E+00
    -16.097  0.0000E+00  0.2249E+00
    -16.092  0.0000E+00  0.2249E+00
    -16.088  0.0000E+00  0.2249E+00
    -16.083  0.0000E+00  0.2249E+00
    -16.079  0.0000E+00  0.2249E+00
    -16.074  0.0000E+00  0.2249E+00
    -16.069  0.0000E+00  0.2249E+00
    -16.065  0.0000E+00  0.2249E+00
    -16.060  0.0000E+00  0.2249E+00
    -16.056  0.0000E+00  0.2249E+00
    -16.051  0.0000E+00  0.2249E+00
    -16.047  0.0000E+00  0.2249E+00
    -16.042  0.0000E+00  0.2249E+00
    -16.037  0.0000E+00  0.2249E+00
    -16.033  0.0000E+00  0.2249E+00
    -16.028  0.0000E+00  0.2249E+00
    -16.024  0.0000E+00  0.2249E+00
    -16.019  0.0000E+00  0.2249E+00
    -16.014  0.0000E+00  0.2249E+00
    -16.010  0.0000E+00  0.2249E+00
    -16.005  0.0000E+00  0.2249E+00
    -16.001  0.0000E+00  0.2249E+00
    -15.996  0.0000E+00  0.2249E+00
    -15.991  0.1801E-13  0.2249E+00
    -15.987  0.2696E-11  0.2249E+00
    -15.982  0.2663E-09  0.2249E+00
    -15.978  0.1747E-07  0.2249E+00
    -15.973  0.7626E-06  0.2249E+00
    -15.968  0.2219E-04  0.2249E+00
    -15.964  0.4318E-03  0.2249E+00
    -15.959  0.5633E-02  0.2249E+00
    -15.955  0.4944E-01  0.2251E+00
    -15.950  0.2929E+00  0.2265E+00
    -15.945  0.1176E+01  0.2319E+00
    -15.941  0.3208E+01  0.2466E+00
    -15.936  0.5968E+01  0.2740E+00
    -15.932  0.7585E+01  0.3089E+00
    -15.927  0.6591E+01  0.3392E+00
    -15.922  0.3913E+01  0.3571E+00
    -15.918  0.1585E+01  0.3644E+00
    -15.913  0.4370E+00  0.3664E+00
    -15.909  0.8168E-01  0.3668E+00
    -15.904  0.1032E-01  0.3669E+00
    -15.899  0.8778E-03  0.3669E+00
    -15.895  0.5011E-04  0.3669E+00
    -15.890  0.1914E-05  0.3669E+00
    -15.886  0.4879E-07  0.3669E+00
    -15.881  0.8277E-09  0.3669E+00
    -15.876  0.9332E-11  0.3669E+00
    -15.872  0.6919E-13  0.3669E+00
    -15.867  0.0000E+00  0.3669E+00
    -15.863  0.0000E+00  0.3669E+00
    -15.858  0.0000E+00  0.3669E+00
    -15.854  0.0000E+00  0.3669E+00
    -15.849  0.0000E+00  0.3669E+00
    -15.844  0.2859E-15  0.3669E+00
    -15.840  0.6090E-13  0.3669E+00
    -15.835  0.7670E-11  0.3669E+00
    -15.831  0.6417E-09  0.3669E+00
    -15.826  0.3558E-07  0.3669E+00
    -15.821  0.1311E-05  0.3669E+00
    -15.817  0.3218E-04  0.3669E+00
    -15.812  0.5283E-03  0.3669E+00
    -15.808  0.5827E-02  0.3669E+00
    -15.803  0.4343E-01  0.3671E+00
    -15.798  0.2203E+00  0.3681E+00
    -15.794  0.7668E+00  0.3716E+00
    -15.789  0.1848E+01  0.3801E+00
    -15.785  0.3107E+01  0.3944E+00
    -15.780  0.3669E+01  0.4113E+00
    -15.775  0.3047E+01  0.4253E+00
    -15.771  0.1776E+01  0.4334E+00
    -15.766  0.7217E+00  0.4367E+00
    -15.762  0.2029E+00  0.4377E+00
    -15.757  0.3910E-01  0.4378E+00
    -15.752  0.5125E-02  0.4379E+00
    -15.748  0.4536E-03  0.4379E+00
    -15.743  0.2697E-04  0.4379E+00
    -15.739  0.1072E-05  0.4379E+00
    -15.734  0.2838E-07  0.4379E+00
    -15.729  0.4993E-09  0.4379E+00
    -15.725  0.5821E-11  0.4379E+00
    -15.720  0.4518E-13  0.4379E+00
    -15.716  0.0000E+00  0.4379E+00
    -15.711  0.0000E+00  0.4379E+00
    -15.706  0.0000E+00  0.4379E+00
    -15.702  0.0000E+00  0.4379E+00
    -15.697  0.0000E+00  0.4379E+00
    -15.693  0.0000E+00  0.4379E+00
    -15.688  0.0000E+00  0.4379E+00
    -15.683  0.0000E+00  0.4379E+00
    -15.679  0.0000E+00  0.4379E+00
    -15.674  0.0000E+00  0.4379E+00
    -15.670  0.0000E+00  0.4379E+00
    -15.665  0.0000E+00  0.4379E+00
    -15.661  0.0000E+00  0.4379E+00
    -15.656  0.0000E+00  0.4379E+00
    -15.651  0.0000E+00  0.4379E+00
    -15.647  0.0000E+00  0.4379E+00
    -15.642  0.0000E+00  0.4379E+00
    -15.638  0.0000E+00  0.4379E+00
    -15.633  0.0000E+00  0.4379E+00
    -15.628  0.0000E+00  0.4379E+00
    -15.624  0.0000E+00  0.4379E+00
    -15.619  0.5718E-15  0.4379E+00
    -15.615  0.1249E-12  0.4379E+00
    -15.610  0.1479E-10  0.4379E+00
    -15.605  0.1159E-08  0.4379E+00
    -15.601  0.6017E-07  0.4379E+00
    -15.596  0.2073E-05  0.4379E+00
    -15.592  0.4755E-04  0.4379E+00
    -15.587  0.7286E-03  0.4379E+00
    -15.582  0.7496E-02  0.4379E+00
    -15.578  0.5214E-01  0.4381E+00
    -15.573  0.2474E+00  0.4393E+00
    -15.569  0.8103E+00  0.4430E+00
    -15.564  0.1858E+01  0.4515E+00
    -15.559  0.3026E+01  0.4654E+00
    -15.555  0.3544E+01  0.4817E+00
    -15.550  0.2998E+01  0.4955E+00
    -15.546  0.1824E+01  0.5039E+00
    -15.541  0.7887E+00  0.5075E+00
    -15.536  0.2389E+00  0.5086E+00
    -15.532  0.4997E-01  0.5088E+00
    -15.527  0.7130E-02  0.5089E+00
    -15.523  0.7066E-03  0.5089E+00
    -15.518  0.3939E-03  0.5089E+00
    -15.513  0.4343E-02  0.5089E+00
    -15.509  0.3644E-01  0.5091E+00
    -15.504  0.2080E+00  0.5100E+00
    -15.500  0.8164E+00  0.5138E+00
    -15.495  0.2237E+01  0.5241E+00
    -15.490  0.4371E+01  0.5441E+00
    -15.486  0.6248E+01  0.5728E+00
    -15.481  0.6665E+01  0.6035E+00
    -15.477  0.5329E+01  0.6280E+00
    -15.472  0.3148E+01  0.6424E+00
    -15.468  0.1341E+01  0.6486E+00
    -15.463  0.4026E+00  0.6504E+00
    -15.458  0.8356E-01  0.6508E+00
    -15.454  0.1185E-01  0.6509E+00
    -15.449  0.1139E-02  0.6509E+00
    -15.445  0.7369E-04  0.6509E+00
    -15.440  0.3199E-05  0.6509E+00
    -15.435  0.9281E-07  0.6509E+00
    -15.431  0.1795E-08  0.6509E+00
    -15.426  0.2308E-10  0.6509E+00
    -15.422  0.1967E-12  0.6509E+00
    -15.417  0.1144E-14  0.6509E+00
    -15.412  0.0000E+00  0.6509E+00
    -15.408  0.0000E+00  0.6509E+00
    -15.403  0.0000E+00  0.6509E+00
    -15.399  0.0000E+00  0.6509E+00
    -15.394  0.0000E+00  0.6509E+00
    -15.389  0.0000E+00  0.6509E+00
    -15.385  0.0000E+00  0.6509E+00
    -15.380  0.0000E+00  0.6509E+00
    -15.376  0.0000E+00  0.6509E+00
    -15.371  0.0000E+00  0.6509E+00
    -15.366  0.0000E+00  0.6509E+00
    -15.362  0.0000E+00  0.6509E+00
    -15.357  0.0000E+00  0.6509E+00
    -15.353  0.0000E+00  0.6509E+00
    -15.348  0.0000E+00  0.6509E+00
    -15.343  0.0000E+00  0.6509E+00
    -15.339  0.0000E+00  0.6509E+00
    -15.334  0.3145E-14  0.6509E+00
    -15.330  0.4852E-12  0.6509E+00
    -15.325  0.5103E-10  0.6509E+00
    -15.320  0.3541E-08  0.6509E+00
    -15.316  0.1624E-06  0.6509E+00
    -15.311  0.4925E-05  0.6509E+00
    -15.307  0.9901E-04  0.6509E+00
    -15.302  0.1322E-02  0.6509E+00
    -15.297  0.1177E-01  0.6509E+00
    -15.293  0.7035E-01  0.6513E+00
    -15.288  0.2852E+00  0.6526E+00
    -15.284  0.7990E+00  0.6563E+00
    -15.279  0.1597E+01  0.6636E+00
    -15.275  0.2392E+01  0.6746E+00
    -15.270  0.2843E+01  0.6876E+00
    -15.265  0.2797E+01  0.7005E+00
    -15.261  0.2263E+01  0.7109E+00
    -15.256  0.1435E+01  0.7175E+00
    -15.252  0.6735E+00  0.7206E+00
    -15.247  0.2238E+00  0.7216E+00
    -15.242  0.5120E-01  0.7219E+00
    -15.238  0.7924E-02  0.7219E+00
    -15.233  0.8218E-03  0.7219E+00
    -15.229  0.5680E-04  0.7219E+00
    -15.224  0.2606E-05  0.7219E+00
    -15.219  0.7924E-07  0.7219E+00
    -15.215  0.1593E-08  0.7219E+00
    -15.210  0.2117E-10  0.7219E+00
    -15.206  0.1853E-12  0.7219E+00
    -15.201  0.1144E-14  0.7219E+00
    -15.196  0.0000E+00  0.7219E+00
    -15.192  0.0000E+00  0.7219E+00
    -15.187  0.0000E+00  0.7219E+00
    -15.183  0.0000E+00  0.7219E+00
    -15.178  0.0000E+00  0.7219E+00
    -15.173  0.0000E+00  0.7219E+00
    -15.169  0.0000E+00  0.7219E+00
    -15.164  0.0000E+00  0.7219E+00
    -15.160  0.0000E+00  0.7219E+00
    -15.155  0.0000E+00  0.7219E+00
    -15.150  0.0000E+00  0.7219E+00
    -15.146  0.0000E+00  0.7219E+00
    -15.141  0.0000E+00  0.7219E+00
    -15.137  0.0000E+00  0.7219E+00
    -15.132  0.0000E+00  0.7219E+00
    -15.127  0.0000E+00  0.7219E+00
    -15.123  0.0000E+00  0.7219E+00
    -15.118  0.2859E-15  0.7219E+00
    -15.114  0.3603E-13  0.7219E+00
    -15.109  0.4789E-11  0.7219E+00
    -15.104  0.4209E-09  0.7219E+00
    -15.100  0.2454E-07  0.7219E+00
    -15.095  0.9512E-06  0.7219E+00
    -15.091  0.2459E-04  0.7219E+00
    -15.086  0.4252E-03  0.7219E+00
    -15.082  0.4941E-02  0.7219E+00
    -15.077  0.3879E-01  0.7221E+00
    -15.072  0.2073E+00  0.7230E+00
    -15.068  0.7615E+00  0.7265E+00
    -15.063  0.1956E+01  0.7355E+00
    -15.059  0.3616E+01  0.7522E+00
    -15.054  0.5053E+01  0.7754E+00
    -15.049  0.5685E+01  0.8015E+00
    -15.045  0.5368E+01  0.8262E+00
    -15.040  0.4171E+01  0.8453E+00
    -15.036  0.2509E+01  0.8569E+00
    -15.031  0.1105E+01  0.8619E+00
    -15.026  0.3432E+00  0.8635E+00
    -15.022  0.7368E-01  0.8639E+00
    -15.017  0.1080E-01  0.8639E+00
    -15.013  0.1072E-02  0.8639E+00
    -15.008  0.7156E-04  0.8639E+00
    -15.003  0.3202E-05  0.8639E+00
    -14.999  0.9560E-07  0.8639E+00
    -14.994  0.1899E-08  0.8639E+00
    -14.990  0.2506E-10  0.8639E+00
    -14.985  0.8563E-12  0.8639E+00
    -14.980  0.6662E-10  0.8639E+00
    -14.976  0.4610E-08  0.8639E+00
    -14.971  0.2117E-06  0.8639E+00
    -14.967  0.6460E-05  0.8639E+00
    -14.962  0.1314E-03  0.8639E+00
    -14.957  0.1786E-02  0.8639E+00
    -14.953  0.1628E-01  0.8640E+00
    -14.948  0.1001E+00  0.8644E+00
    -14.944  0.4178E+00  0.8664E+00
    -14.939  0.1200E+01  0.8719E+00
    -14.934  0.2427E+01  0.8830E+00
    -14.930  0.3606E+01  0.8996E+00
    -14.925  0.4250E+01  0.9191E+00
    -14.921  0.4420E+01  0.9394E+00
    -14.916  0.4388E+01  0.9596E+00
    -14.911  0.4045E+01  0.9782E+00
    -14.907  0.3126E+01  0.9926E+00
    -14.902  0.1842E+01  0.1001E+01
    -14.898  0.7807E+00  0.1005E+01
    -14.893  0.2304E+00  0.1006E+01
    -14.889  0.4652E-01  0.1006E+01
    -14.884  0.6361E-02  0.1006E+01
    -14.879  0.5852E-03  0.1006E+01
    -14.875  0.3606E-04  0.1006E+01
    -14.870  0.1483E-05  0.1006E+01
    -14.866  0.4060E-07  0.1006E+01
    -14.861  0.7384E-09  0.1006E+01
    -14.856  0.8902E-11  0.1006E+01
    -14.852  0.7091E-13  0.1006E+01
    -14.847  0.0000E+00  0.1006E+01
    -14.843  0.0000E+00  0.1006E+01
    -14.838  0.0000E+00  0.1006E+01
    -14.833  0.0000E+00  0.1006E+01
    -14.829  0.0000E+00  0.1006E+01
    -14.824  0.0000E+00  0.1006E+01
    -14.820  0.0000E+00  0.1006E+01
    -14.815  0.0000E+00  0.1006E+01
    -14.810  0.0000E+00  0.1006E+01
    -14.806  0.0000E+00  0.1006E+01
    -14.801  0.0000E+00  0.1006E+01
    -14.797  0.0000E+00  0.1006E+01
    -14.792  0.0000E+00  0.1006E+01
    -14.787  0.0000E+00  0.1006E+01
    -14.783  0.0000E+00  0.1006E+01
    -14.778  0.0000E+00  0.1006E+01
    -14.774  0.0000E+00  0.1006E+01
    -14.769  0.0000E+00  0.1006E+01
    -14.764  0.0000E+00  0.1006E+01
    -14.760  0.0000E+00  0.1006E+01
    -14.755  0.0000E+00  0.1006E+01
    -14.751  0.0000E+00  0.1006E+01
    -14.746  0.2859E-15  0.1006E+01
    -14.741  0.6576E-13  0.1006E+01
    -14.737  0.8183E-11  0.1006E+01
    -14.732  0.6713E-09  0.1006E+01
    -14.728  0.3636E-07  0.1006E+01
    -14.723  0.1301E-05  0.1006E+01
    -14.718  0.3080E-04  0.1006E+01
    -14.714  0.4825E-03  0.1006E+01
    -14.709  0.5010E-02  0.1006E+01
    -14.705  0.3451E-01  0.1006E+01
    -14.700  0.1579E+00  0.1007E+01
    -14.696  0.4815E+00  0.1009E+01
    -14.691  0.9868E+00  0.1014E+01
    -14.686  0.1400E+01  0.1020E+01
    -14.682  0.1512E+01  0.1027E+01
    -14.677  0.1507E+01  0.1034E+01
    -14.673  0.1571E+01  0.1041E+01
    -14.668  0.1577E+01  0.1048E+01
    -14.663  0.1512E+01  0.1055E+01
    -14.659  0.1513E+01  0.1062E+01
    -14.654  0.1422E+01  0.1069E+01
    -14.650  0.1030E+01  0.1074E+01
    -14.645  0.5190E+00  0.1076E+01
    -14.640  0.1760E+00  0.1077E+01
    -14.636  0.3980E-01  0.1077E+01
    -14.631  0.5978E-02  0.1077E+01
    -14.627  0.5958E-03  0.1077E+01
    -14.622  0.3935E-04  0.1077E+01
    -14.617  0.1721E-05  0.1077E+01
    -14.613  0.4977E-07  0.1077E+01
    -14.608  0.9513E-09  0.1077E+01
    -14.604  0.1201E-10  0.1077E+01
    -14.599  0.1001E-12  0.1077E+01
    -14.594  0.5718E-15  0.1077E+01
    -14.590  0.0000E+00  0.1077E+01
    -14.585  0.0000E+00  0.1077E+01
    -14.581  0.0000E+00  0.1077E+01
    -14.576  0.0000E+00  0.1077E+01
    -14.571  0.5718E-15  0.1077E+01
    -14.567  0.8663E-13  0.1077E+01
    -14.562  0.1055E-10  0.1077E+01
    -14.558  0.8456E-09  0.1077E+01
    -14.553  0.4476E-07  0.1077E+01
    -14.548  0.1566E-05  0.1077E+01
    -14.544  0.3624E-04  0.1077E+01
    -14.539  0.5553E-03  0.1077E+01
    -14.535  0.5643E-02  0.1077E+01
    -14.530  0.3811E-01  0.1077E+01
    -14.525  0.1718E+00  0.1078E+01
    -14.521  0.5220E+00  0.1080E+01
    -14.516  0.1092E+01  0.1085E+01
    -14.512  0.1654E+01  0.1093E+01
    -14.507  0.1982E+01  0.1102E+01
    -14.503  0.2091E+01  0.1112E+01
    -14.498  0.2082E+01  0.1121E+01
    -14.493  0.1986E+01  0.1130E+01
    -14.489  0.1744E+01  0.1138E+01
    -14.484  0.1350E+01  0.1145E+01
    -14.480  0.1128E+01  0.1150E+01
    -14.475  0.1489E+01  0.1157E+01
    -14.470  0.2380E+01  0.1168E+01
    -14.466  0.3240E+01  0.1182E+01
    -14.461  0.3492E+01  0.1198E+01
    -14.457  0.3166E+01  0.1213E+01
    -14.452  0.2940E+01  0.1227E+01
    -14.447  0.3213E+01  0.1241E+01
    -14.443  0.3488E+01  0.1257E+01
    -14.438  0.3136E+01  0.1272E+01
    -14.434  0.2195E+01  0.1282E+01
    -14.429  0.1165E+01  0.1287E+01
    -14.424  0.4537E+00  0.1289E+01
    -14.420  0.1251E+00  0.1290E+01
    -14.415  0.2379E-01  0.1290E+01
    -14.411  0.3064E-02  0.1290E+01
    -14.406  0.2645E-03  0.1290E+01
    -14.401  0.1522E-04  0.1290E+01
    -14.397  0.5811E-06  0.1290E+01
    -14.392  0.1488E-07  0.1290E+01
    -14.388  0.1181E-07  0.1290E+01
    -14.383  0.4833E-06  0.1290E+01
    -14.378  0.1343E-04  0.1290E+01
    -14.374  0.2486E-03  0.1290E+01
    -14.369  0.3074E-02  0.1290E+01
    -14.365  0.2543E-01  0.1290E+01
    -14.360  0.1412E+00  0.1291E+01
    -14.355  0.5267E+00  0.1293E+01
    -14.351  0.1324E+01  0.1299E+01
    -14.346  0.2253E+01  0.1310E+01
    -14.342  0.2632E+01  0.1322E+01
    -14.337  0.2266E+01  0.1332E+01
    -14.332  0.1857E+01  0.1341E+01
    -14.328  0.2017E+01  0.1350E+01
    -14.323  0.2427E+01  0.1361E+01
    -14.319  0.2418E+01  0.1372E+01
    -14.314  0.1994E+01  0.1381E+01
    -14.310  0.1825E+01  0.1390E+01
    -14.305  0.2235E+01  0.1400E+01
    -14.300  0.2619E+01  0.1412E+01
    -14.296  0.2266E+01  0.1422E+01
    -14.291  0.1349E+01  0.1429E+01
    -14.287  0.5446E+00  0.1431E+01
    -14.282  0.1484E+00  0.1432E+01
    -14.277  0.2722E-01  0.1432E+01
    -14.273  0.3353E-02  0.1432E+01
    -14.268  0.2766E-03  0.1432E+01
    -14.264  0.1525E-04  0.1432E+01
    -14.259  0.5603E-06  0.1432E+01
    -14.254  0.1369E-07  0.1432E+01
    -14.250  0.2220E-09  0.1432E+01
    -14.245  0.2385E-11  0.1432E+01
    -14.241  0.1716E-13  0.1432E+01
    -14.236  0.0000E+00  0.1432E+01
    -14.231  0.2059E-13  0.1432E+01
    -14.227  0.2806E-11  0.1432E+01
    -14.222  0.2532E-09  0.1432E+01
    -14.218  0.1508E-07  0.1432E+01
    -14.213  0.5937E-06  0.1432E+01
    -14.208  0.1545E-04  0.1432E+01
    -14.204  0.2661E-03  0.1432E+01
    -14.199  0.3036E-02  0.1432E+01
    -14.195  0.2297E-01  0.1432E+01
    -14.190  0.1154E+00  0.1433E+01
    -14.185  0.3849E+00  0.1434E+01
    -14.181  0.8535E+00  0.1438E+01
    -14.176  0.1259E+01  0.1444E+01
    -14.172  0.1236E+01  0.1450E+01
    -14.167  0.8152E+00  0.1454E+01
    -14.162  0.4083E+00  0.1455E+01
    -14.158  0.3366E+00  0.1457E+01
    -14.153  0.6473E+00  0.1460E+01
    -14.149  0.1114E+01  0.1465E+01
    -14.144  0.1310E+01  0.1471E+01
    -14.139  0.1029E+01  0.1476E+01
    -14.135  0.5552E+00  0.1478E+01
    -14.130  0.2914E+00  0.1480E+01
    -14.126  0.4056E+00  0.1482E+01
    -14.121  0.8306E+00  0.1485E+01
    -14.117  0.1245E+01  0.1491E+01
    -14.112  0.1250E+01  0.1497E+01
    -14.107  0.8349E+00  0.1501E+01
    -14.103  0.3709E+00  0.1502E+01
    -14.098  0.1095E+00  0.1503E+01
    -14.094  0.2148E-01  0.1503E+01
    -14.089  0.2797E-02  0.1503E+01
    -14.084  0.2415E-03  0.1503E+01
    -14.080  0.1381E-04  0.1503E+01
    -14.075  0.5227E-06  0.1503E+01
    -14.071  0.1345E-07  0.1503E+01
    -14.066  0.2170E-07  0.1503E+01
    -14.061  0.8140E-06  0.1503E+01
    -14.057  0.2040E-04  0.1503E+01
    -14.052  0.3383E-03  0.1503E+01
    -14.048  0.3717E-02  0.1503E+01
    -14.043  0.2709E-01  0.1503E+01
    -14.038  0.1310E+00  0.1504E+01
    -14.034  0.4211E+00  0.1506E+01
    -14.029  0.8995E+00  0.1510E+01
    -14.025  0.1278E+01  0.1516E+01
    -14.020  0.1208E+01  0.1521E+01
    -14.015  0.7607E+00  0.1525E+01
    -14.011  0.3317E+00  0.1526E+01
    -14.006  0.1688E+00  0.1527E+01
    -14.002  0.3137E+00  0.1528E+01
    -13.997  0.7310E+00  0.1532E+01
    -13.992  0.1188E+01  0.1537E+01
    -13.988  0.1288E+01  0.1543E+01
    -13.983  0.9293E+00  0.1547E+01
    -13.979  0.4497E+00  0.1550E+01
    -13.974  0.1721E+00  0.1550E+01
    -13.969  0.1724E+00  0.1551E+01
    -13.965  0.4557E+00  0.1553E+01
    -13.960  0.9751E+00  0.1558E+01
    -13.956  0.1508E+01  0.1565E+01
    -13.951  0.1894E+01  0.1573E+01
    -13.946  0.2278E+01  0.1584E+01
    -13.942  0.2639E+01  0.1596E+01
    -13.937  0.2545E+01  0.1608E+01