    2    2    1    1
  0.9013366E+02  0.3606893E-09  0.3606893E-09  0.1600000E-08  0.5000000E-15
  1.000000000000000E-004
  CAR 
 unknown system                          
     10     85     16
 
  0.0000000E+00  0.0000000E+00  0.0000000E+00  0.5917160E-02
      1        -16.475110   1.000000
      2        -10.187014   1.000000
      3         -3.563532   1.000000
      4         -3.058693   1.000000
      5         -2.967823   1.000000
      6         -1.092221   0.000000
      7          0.425176   0.000000
      8          0.529387   0.000000
      9          1.903374   0.000000
     10          1.996481   0.000000
     11          3.376040   0.000000
     12          4.304014   0.000000
     13          5.864047   0.000000
     14          6.884879   0.000000
     15          7.038506   0.000000
     16          7.100190   0.000000
 
  0.7692308E-01  0.1387779E-16  0.0000000E+00  0.1183432E-01
      1        -16.396423   1.000000
      2        -10.177154   1.000000
      3         -3.835654   1.000000
      4         -3.524589   1.000000
      5         -3.155403   1.000000
      6         -0.513066   0.000000
      7          0.394529   0.000000
      8          0.620742   0.000000
      9          2.016866   0.000000
     10          2.092975   0.000000
     11          3.462406   0.000000
     12          4.397976   0.000000
     13          6.027137   0.000000
     14          6.228308   0.000000
     15          7.012774   0.000000
     16          7.436510   0.000000
 
  0.0000000E+00  0.7692308E-01  0.0000000E+00  0.1183432E-01
      1        -16.396723   1.000000
      2        -10.176530   1.000000
      3         -3.806743   1.000000
      4         -3.526005   1.000000
      5         -3.187031   1.000000
      6         -0.508779   0.000000
      7          0.350046   0.000000
      8          0.664378   0.000000
      9          2.015828   0.000000
     10          2.092402   0.000000
     11          3.462006   0.000000
     12          4.397532   0.000000
     13          6.038853   0.000000
     14          6.240384   0.000000
     15          6.993776   0.000000
     16          7.426780   0.000000
 
 -0.7692308E-01  0.7692308E-01  0.0000000E+00  0.1183432E-01
      1        -16.397028   1.000000
      2        -10.175894   1.000000
      3         -3.774879   1.000000
      4         -3.524676   1.000000
      5         -3.224718   1.000000
      6         -0.503375   0.000000
      7          0.313968   0.000000
      8          0.698842   0.000000
      9          2.014787   0.000000
     10          2.091852   0.000000
     11          3.461603   0.000000
     12          4.397087   0.000000
     13          6.049326   0.000000
     14          6.255634   0.000000
     15          6.972365   0.000000
     16          7.415914   0.000000
 
  0.1538462E+00  0.1387779E-16  0.0000000E+00  0.1183432E-01
      1        -16.162198   1.000000
      2        -10.182087   1.000000
      3         -5.048884   1.000000
      4         -3.572380   1.000000
      5         -3.438123   1.000000
      6         -0.658007   0.000000
      7          0.941343   0.000000
      8          1.007349   0.000000
      9          2.290169   0.000000
     10          2.407662   0.000000
     11          3.677248   0.000000
     12          4.645724   0.000000
     13          5.291764   0.000000
     14          6.480862   0.000000
     15          7.029824   0.000000
     16          7.226874   0.000000
 
  0.0000000E+00  0.1538462E+00  0.0000000E+00  0.1183432E-01
      1        -16.163489   1.000000
      2        -10.178998   1.000000
      3         -5.026240   1.000000
      4         -3.599418   1.000000
      5         -3.435876   1.000000
      6         -0.675764   0.000000
      7          0.924310   0.000000
      8          1.036620   0.000000
      9          2.287678   0.000000
     10          2.404166   0.000000
     11          3.677686   0.000000
     12          4.643381   0.000000
     13          5.318795   0.000000
     14          6.481253   0.000000
     15          7.019519   0.000000
     16          7.231790   0.000000
 
 -0.1538462E+00  0.1538462E+00  0.0000000E+00  0.1183432E-01
      1        -16.164800   1.000000
      2        -10.175857   1.000000
      3         -5.002152   1.000000
      4         -3.625744   1.000000
      5         -3.436439   1.000000
      6         -0.691861   0.000000
      7          0.908310   0.000000
      8          1.064017   0.000000
      9          2.284820   0.000000
     10          2.400951   0.000000
     11          3.678008   0.000000
     12          4.641110   0.000000
     13          5.345700   0.000000
     14          6.481918   0.000000
     15          7.009573   0.000000
     16          7.235606   0.000000
 
  0.2307692E+00 -0.1387779E-16  0.0000000E+00  0.1183432E-01
      1        -15.779079   1.000000
      2        -10.317363   1.000000
      3         -6.043295   1.000000
      4         -4.030814   1.000000
      5         -3.412043   1.000000
      6         -1.180983   0.000000
      7          1.316048   0.000000
      8          1.344232   0.000000
      9          2.598562   0.000000
     10          2.863647   0.000000
     11          4.026859   0.000000
     12          4.890888   0.000000
     13          5.439643   0.000000
     14          6.142345   0.000000
     15          7.465964   0.000000
     16          7.526819   0.000000
 
  0.0000000E+00  0.2307692E+00  0.0000000E+00  0.1183432E-01
      1        -15.782393   1.000000
      2        -10.308198   1.000000
      3         -6.028446   1.000000
      4         -4.050941   1.000000
      5         -3.408485   1.000000
      6         -1.198948   0.000000
      7          1.294736   0.000000
      8          1.362674   0.000000
      9          2.596956   0.000000
     10          2.858491   0.000000
     11          4.027561   0.000000
     12          4.895610   0.000000
     13          5.460503   0.000000
     14          6.149643   0.000000
     15          7.463710   0.000000
     16          7.532609   0.000000
 
 -0.2307692E+00  0.2307692E+00  0.0000000E+00  0.1183432E-01
      1        -15.785754   1.000000
      2        -10.298876   1.000000
      3         -6.012754   1.000000
      4         -4.072151   1.000000
      5         -3.405483   1.000000
      6         -1.215755   0.000000
      7          1.286868   0.000000
      8          1.367389   0.000000
      9          2.594699   0.000000
     10          2.853535   0.000000
     11          4.028043   0.000000
     12          4.899820   0.000000
     13          5.481700   0.000000
     14          6.157244   0.000000
     15          7.462515   0.000000
     16          7.537521   0.000000
 
  0.3076923E+00  0.2775558E-16  0.0000000E+00  0.1183432E-01
      1        -15.263092   1.000000
      2        -10.739132   1.000000
      3         -6.561931   1.000000
      4         -4.425846   1.000000
      5         -3.638711   1.000000
      6         -1.401430   0.000000
      7          1.013762   0.000000
      8          1.476430   0.000000
      9          3.129875   0.000000
     10          3.348151   0.000000
     11          4.281504   0.000000
     12          5.356987   0.000000
     13          5.651633   0.000000
     14          6.884400   0.000000
     15          7.405136   0.000000
     16          8.400131   0.000000
 
  0.0000000E+00  0.3076923E+00  0.0000000E+00  0.1183432E-01
      1        -15.270327   1.000000
      2        -10.719410   1.000000
      3         -6.558200   1.000000
      4         -4.442108   1.000000
      5         -3.630550   1.000000
      6         -1.417830   0.000000
      7          0.985146   0.000000
      8          1.490246   0.000000
      9          3.130093   0.000000
     10          3.343353   0.000000
     11          4.286208   0.000000
     12          5.366546   0.000000
     13          5.657705   0.000000
     14          6.898925   0.000000
     15          7.404629   0.000000
     16          8.401530   0.000000
 
 -0.3076923E+00  0.3076923E+00  0.0000000E+00  0.1183432E-01
      1        -15.277638   1.000000
      2        -10.699321   1.000000
      3         -6.554088   1.000000
      4         -4.459453   1.000000
      5         -3.622592   1.000000
      6         -1.433230   0.000000
      7          0.962145   0.000000
      8          1.497514   0.000000
      9          3.130010   0.000000
     10          3.338647   0.000000
     11          4.290666   0.000000
     12          5.375854   0.000000
     13          5.664124   0.000000
     14          6.913694   0.000000
     15          7.404701   0.000000
     16          8.407194   0.000000
 
  0.3846154E+00  0.0000000E+00  0.0000000E+00  0.1183432E-01
      1        -14.657097   1.000000
      2        -11.423464   1.000000
      3         -6.597773   1.000000
      4         -4.707384   1.000000
      5         -4.113765   1.000000
      6         -1.274447   0.000000
      7          0.526868   0.000000
      8          1.500459   0.000000
      9          3.497675   0.000000
     10          3.909385   0.000000
     11          4.565437   0.000000
     12          5.792369   0.000000
     13          6.378353   0.000000
     14          6.892608   0.000000
     15          7.402646   0.000000
     16          7.961175   0.000000
 
  0.0000000E+00  0.3846154E+00  0.0000000E+00  0.1183432E-01
      1        -14.672339   1.000000
      2        -11.390420   1.000000
      3         -6.605870   1.000000
      4         -4.721524   1.000000
      5         -4.098023   1.000000
      6         -1.290207   0.000000
      7          0.496277   0.000000
      8          1.508849   0.000000
      9          3.502838   0.000000
     10          3.909840   0.000000
     11          4.572185   0.000000
     12          5.795488   0.000000
     13          6.379505   0.000000
     14          6.894383   0.000000
     15          7.397045   0.000000
     16          7.966764   0.000000
 
 -0.3846154E+00  0.3846154E+00  0.0000000E+00  0.1183432E-01
      1        -14.687597   1.000000
      2        -11.356875   1.000000
      3         -6.613945   1.000000
      4         -4.736536   1.000000
      5         -4.082456   1.000000
      6         -1.304602   0.000000
      7          0.468007   0.000000
      8          1.513395   0.000000
      9          3.507747   0.000000
     10          3.910173   0.000000
     11          4.578980   0.000000
     12          5.798747   0.000000
     13          6.380630   0.000000
     14          6.896316   0.000000
     15          7.391660   0.000000
     16          7.972511   0.000000
 
  0.4615385E+00 -0.2775558E-16  0.0000000E+00  0.1183432E-01
      1        -14.116470   1.000000
      2        -12.059414   1.000000
      3         -6.427783   1.000000
      4         -4.852790   1.000000
      5         -4.535342   1.000000
      6         -1.070779   0.000000
      7          0.205356   0.000000
      8          1.488487   0.000000
      9          3.286747   0.000000
     10          4.854913   0.000000
     11          5.298891   0.000000
     12          5.905854   0.000000
     13          6.233967   0.000000
     14          6.717823   0.000000
     15          7.315292   0.000000
     16          7.372196   0.000000
 
  0.0000000E+00  0.4615385E+00  0.0000000E+00  0.1183432E-01
      1        -14.146842   1.000000
      2        -12.008950   1.000000
      3         -6.446491   1.000000
      4         -4.866172   1.000000
      5         -4.510188   1.000000
      6         -1.086078   0.000000
      7          0.172094   0.000000
      8          1.494559   0.000000
      9          3.302161   0.000000
     10          4.855490   0.000000
     11          5.299030   0.000000
     12          5.906143   0.000000
     13          6.230362   0.000000
     14          6.721787   0.000000
     15          7.318831   0.000000
     16          7.371133   0.000000
 
 -0.4615385E+00  0.4615385E+00  0.0000000E+00  0.1183432E-01
      1        -14.176474   1.000000
      2        -11.958645   1.000000
      3         -6.465201   1.000000
      4         -4.879890   1.000000
      5         -4.485780   1.000000
      6         -1.099140   0.000000
      7          0.139206   0.000000
      8          1.497960   0.000000
      9          3.317215   0.000000
     10          4.856009   0.000000
     11          5.299180   0.000000
     12          5.906518   0.000000
     13          6.226803   0.000000
     14          6.725719   0.000000
     15          7.322673   0.000000
     16          7.370113   0.000000
 
  0.7692308E-01  0.7692308E-01  0.0000000E+00  0.1183432E-01
      1        -16.239958   1.000000
      2        -10.173994   1.000000
      3         -4.691269   1.000000
      4         -3.563373   1.000000
      5         -3.444020   1.000000
      6         -0.038305   0.000000
      7          0.070847   0.000000
      8          1.135921   0.000000
      9          2.247136   0.000000
     10          2.269426   0.000000
     11          3.603258   0.000000
     12          4.578448   0.000000
     13          5.429196   0.000000
     14          6.656960   0.000000
     15          6.669648   0.000000
     16          7.381280   0.000000
 
 -0.7692308E-01  0.1538462E+00  0.0000000E+00  0.1183432E-01
      1        -16.241794   1.000000
      2        -10.169742   1.000000
      3         -4.631873   1.000000
      4         -3.620280   1.000000
      5         -3.459896   1.000000
      6         -0.005699   0.000000
      7          0.024561   0.000000
      8          1.155284   0.000000
      9          2.237873   0.000000
     10          2.267336   0.000000
     11          3.601748   0.000000
     12          4.575926   0.000000
     13          5.462981   0.000000
     14          6.657499   0.000000
     15          6.679628   0.000000
     16          7.374649   0.000000
 
 -0.1538462E+00  0.7692308E-01  0.0000000E+00  0.1183432E-01
      1        -16.240884   1.000000
      2        -10.171848   1.000000
      3         -4.662296   1.000000
      4         -3.588038   1.000000
      5         -3.455292   1.000000
      6         -0.010724   0.000000
      7          0.036043   0.000000
      8          1.146211   0.000000
      9          2.242510   0.000000
     10          2.268403   0.000000
     11          3.602517   0.000000
     12          4.577151   0.000000
     13          5.446148   0.000000
     14          6.652093   0.000000
     15          6.679304   0.000000
     16          7.378076   0.000000
 
  0.1538462E+00  0.7692308E-01  0.0000000E+00  0.1183432E-01
      1        -15.930664   1.000000
      2        -10.240805   1.000000
      3         -5.655712   1.000000
      4         -4.137021   1.000000
      5         -3.381412   1.000000
      6         -0.516858   0.000000
      7          0.616584   0.000000
      8          1.578797   0.000000
      9          2.534114   0.000000
     10          2.664206   0.000000
     11          3.828770   0.000000
     12          4.842238   0.000000
     13          5.092746   0.000000
     14          6.442373   0.000000
     15          7.236951   0.000000
     16          7.328515   0.000000
 
 -0.7692308E-01  0.2307692E+00  0.0000000E+00  0.1183432E-01
      1        -15.934873   1.000000
      2        -10.229431   1.000000
      3         -5.613728   1.000000
      4         -4.188923   1.000000
      5         -3.385624   1.000000
      6         -0.540068   0.000000
      7          0.664148   0.000000
      8          1.543217   0.000000
      9          2.526797   0.000000
     10          2.655264   0.000000
     11          3.827426   0.000000
     12          4.846641   0.000000
     13          5.107550   0.000000
     14          6.447664   0.000000
     15          7.258445   0.000000
     16          7.347793   0.000000
 
 -0.2307692E+00  0.1538462E+00  0.0000000E+00  0.1183432E-01
      1        -15.934428   1.000000
      2        -10.230746   1.000000
      3         -5.620529   1.000000
      4         -4.179116   1.000000
      5         -3.380962   1.000000
      6         -0.549855   0.000000
      7          0.645317   0.000000
      8          1.564900   0.000000
      9          2.527871   0.000000
     10          2.655735   0.000000
     11          3.832108   0.000000
     12          4.841483   0.000000
     13          5.122454   0.000000
     14          6.450394   0.000000
     15          7.231682   0.000000
     16          7.347764   0.000000
 
 -0.1538462E+00  0.2307692E+00  0.0000000E+00  0.1183432E-01
      1        -15.935974   1.000000
      2        -10.226529   1.000000
      3         -5.603662   1.000000
      4         -4.200333   1.000000
      5         -3.383862   1.000000
      6         -0.554268   0.000000
      7          0.667761   0.000000
      8          1.545444   0.000000
      9          2.524907   0.000000
     10          2.652912   0.000000
     11          3.830006   0.000000
     12          4.844521   0.000000
     13          5.122405   0.000000
     14          6.451170   0.000000
     15          7.248705   0.000000
     16          7.353570   0.000000
 
  0.7692308E-01  0.1538462E+00  0.0000000E+00  0.1183432E-01
      1        -15.931750   1.000000
      2        -10.237949   1.000000
      3         -5.646652   1.000000
      4         -4.147343   1.000000
      5         -3.379429   1.000000
      6         -0.532179   0.000000
      7          0.621129   0.000000
      8          1.580795   0.000000
      9          2.532760   0.000000
     10          2.661345   0.000000
     11          3.831547   0.000000
     12          4.840360   0.000000
     13          5.107687   0.000000
     14          6.445880   0.000000
     15          7.225390   0.000000
     16          7.335742   0.000000
 
  0.2307692E+00 -0.7692308E-01  0.0000000E+00  0.1183432E-01
      1        -15.932241   1.000000
      2        -10.236505   1.000000
      3         -5.639617   1.000000
      4         -4.157423   1.000000
      5         -3.384703   1.000000
      6         -0.520334   0.000000
      7          0.637141   0.000000
      8          1.560690   0.000000
      9          2.531123   0.000000
     10          2.660939   0.000000
     11          3.826754   0.000000
     12          4.845498   0.000000
     13          5.092640   0.000000
     14          6.443373   0.000000
     15          7.253123   0.000000
     16          7.334635   0.000000
 
  0.2307692E+00  0.7692308E-01  0.0000000E+00  0.1183432E-01
      1        -15.479103   1.000000
      2        -10.519933   1.000000
      3         -6.339589   1.000000
      4         -4.658578   1.000000
      5         -3.441421   1.000000
      6         -0.934712   0.000000
      7          1.023674   0.000000
      8          1.447101   0.000000
      9          2.910264   0.000000
     10          3.165592   0.000000
     11          4.182029   0.000000
     12          5.140199   0.000000
     13          5.505832   0.000000
     14          6.247227   0.000000
     15          7.539249   0.000000
     16          8.024799   0.000000
 
 -0.7692308E-01  0.3076923E+00  0.0000000E+00  0.1183432E-01
      1        -15.487068   1.000000
      2        -10.496837   1.000000
      3         -6.321827   1.000000
      4         -4.691548   1.000000
      5         -3.443685   1.000000
      6         -0.945253   0.000000
      7          1.079072   0.000000
      8          1.378070   0.000000
      9          2.912198   0.000000
     10          3.159968   0.000000
     11          4.177507   0.000000
     12          5.147206   0.000000
     13          5.510783   0.000000
     14          6.241333   0.000000
     15          7.557398   0.000000
     16          8.053739   0.000000
 
 -0.3076923E+00  0.2307692E+00  0.0000000E+00  0.1183432E-01
      1        -15.488396   1.000000
      2        -10.493390   1.000000
      3         -6.319629   1.000000
      4         -4.695251   1.000000
      5         -3.433850   1.000000
      6         -0.963079   0.000000
      7          1.038427   0.000000
      8          1.412158   0.000000
      9          2.908384   0.000000
     10          3.158556   0.000000
     11          4.189936   0.000000
     12          5.154594   0.000000
     13          5.523272   0.000000
     14          6.260029   0.000000
     15          7.551080   0.000000
     16          8.025550   0.000000
 
 -0.2307692E+00  0.3076923E+00  0.0000000E+00  0.1183432E-01
      1        -15.490602   1.000000
      2        -10.486817   1.000000
      3         -6.314140   1.000000
      4         -4.705368   1.000000
      5         -3.437954   1.000000
      6         -0.960515   0.000000
      7          1.072323   0.000000
      8          1.375855   0.000000
      9          2.910184   0.000000
     10          3.157250   0.000000
     11          4.184343   0.000000
     12          5.154360   0.000000
     13          5.520753   0.000000
     14          6.251671   0.000000
     15          7.559271   0.000000
     16          8.044955   0.000000
 
  0.7692308E-01  0.2307692E+00  0.0000000E+00  0.1183432E-01
      1        -15.482601   1.000000
      2        -10.510094   1.000000
      3         -6.332595   1.000000
      4         -4.671349   1.000000
      5         -3.435518   1.000000
      6         -0.950685   0.000000
      7          1.015258   0.000000
      8          1.447081   0.000000
      9          2.908603   0.000000
     10          3.162681   0.000000
     11          4.188942   0.000000
     12          5.147702   0.000000
     13          5.515554   0.000000
     14          6.257805   0.000000
     15          7.540852   0.000000
     16          8.015177   0.000000
 
  0.3076923E+00 -0.7692308E-01  0.0000000E+00  0.1183432E-01
      1        -15.481363   1.000000
      2        -10.513249   1.000000
      3         -6.334299   1.000000
      4         -4.668673   1.000000
      5         -3.445478   1.000000
      6         -0.931846   0.000000
      7          1.053880   0.000000
      8          1.414105   0.000000
      9          2.912058   0.000000
     10          3.164185   0.000000
     11          4.176187   0.000000
     12          5.139941   0.000000
     13          5.503579   0.000000
     14          6.239117   0.000000
     15          7.547593   0.000000
     16          8.043982   0.000000
 
  0.3076923E+00  0.7692308E-01  0.0000000E+00  0.1183432E-01
      1        -14.910182   1.000000
      2        -11.094503   1.000000
      3         -6.576899   1.000000
      4         -5.022247   1.000000
      5         -3.779741   1.000000
      6         -0.993872   0.000000
      7          0.903135   0.000000
      8          1.197764   0.000000
      9          3.566009   0.000000
     10          3.632006   0.000000
     11          4.413442   0.000000
     12          5.615817   0.000000
     13          6.036585   0.000000
     14          6.703507   0.000000
     15          7.628089   0.000000
     16          8.042502   0.000000
 
 -0.7692308E-01  0.3846154E+00  0.0000000E+00  0.1183432E-01
      1        -14.924528   1.000000
      2        -11.058615   1.000000
      3         -6.581417   1.000000
      4         -5.038020   1.000000
      5         -3.777899   1.000000
      6         -0.996275   0.000000
      7          0.834865   0.000000
      8          1.244401   0.000000
      9          3.564495   0.000000
     10          3.627922   0.000000
     11          4.418336   0.000000
     12          5.623962   0.000000
     13          6.037661   0.000000
     14          6.695432   0.000000
     15          7.621820   0.000000
     16          8.036297   0.000000
 
 -0.3846154E+00  0.3076923E+00  0.0000000E+00  0.1183432E-01
      1        -14.930416   1.000000
      2        -11.044360   1.000000
      3         -6.581170   1.000000
      4         -5.050384   1.000000
      5         -3.760681   1.000000
      6         -1.021669   0.000000
      7          0.851734   0.000000
      8          1.211150   0.000000
      9          3.565827   0.000000
     10          3.630025   0.000000
     11          4.431407   0.000000
     12          5.629782   0.000000
     13          6.040208   0.000000
     14          6.720052   0.000000
     15          7.623630   0.000000
     16          8.029612   0.000000
 
 -0.3076923E+00  0.3846154E+00  0.0000000E+00  0.1183432E-01
      1        -14.933212   1.000000
      2        -11.037057   1.000000
      3         -6.582714   1.000000
      4         -5.051763   1.000000
      5         -3.765879   1.000000
      6         -1.013706   0.000000
      7          0.826267   0.000000
      8          1.234532   0.000000
      9          3.564860   0.000000
     10          3.627991   0.000000
     11          4.428631   0.000000
     12          5.630608   0.000000
     13          6.039738   0.000000
     14          6.709279   0.000000
     15          7.620748   0.000000
     16          8.030061   0.000000
 
  0.7692308E-01  0.3076923E+00  0.0000000E+00  0.1183432E-01
      1        -14.918836   1.000000
      2        -11.073336   1.000000
      3         -6.578380   1.000000
      4         -5.035102   1.000000
      5         -3.767667   1.000000
      6         -1.012168   0.000000
      7          0.887928   0.000000
      8          1.195576   0.000000
      9          3.566294   0.000000
     10          3.632263   0.000000
     11          4.423873   0.000000
     12          5.622300   0.000000
     13          6.038622   0.000000
     14          6.717261   0.000000
     15          7.626959   0.000000
     16          8.035882   0.000000
 
  0.3846154E+00 -0.7692308E-01  0.0000000E+00  0.1183432E-01
      1        -14.913079   1.000000
      2        -11.087084   1.000000
      3         -6.578392   1.000000
      4         -5.023791   1.000000
      5         -3.784769   1.000000
      6         -0.985940   0.000000
      7          0.874475   0.000000
      8          1.224270   0.000000
      9          3.565183   0.000000
     10          3.629691   0.000000
     11          4.410686   0.000000
     12          5.616652   0.000000
     13          6.036094   0.000000
     14          6.692453   0.000000
     15          7.625838   0.000000
     16          8.042461   0.000000
 
  0.3846154E+00  0.7692308E-01  0.0000000E+00  0.1183432E-01
      1        -14.300310   1.000000
      2        -11.801988   1.000000
      3         -6.507229   1.000000
      4         -5.169607   1.000000
      5         -4.286693   1.000000
      6         -0.766617   0.000000
      7          0.371779   0.000000
      8          1.280377   0.000000
      9          3.513293   0.000000
     10          4.448225   0.000000
     11          4.979036   0.000000
     12          6.104457   0.000000
     13          6.664342   0.000000
     14          6.863567   0.000000
     15          6.967355   0.000000
     16          7.653236   0.000000
 
 -0.7692308E-01  0.4615385E+00  0.0000000E+00  0.1183432E-01
      1        -14.326190   1.000000
      2        -11.753617   1.000000
      3         -6.527082   1.000000
      4         -5.173279   1.000000
      5         -4.277155   1.000000
      6         -0.764095   0.000000
      7          0.309035   0.000000
      8          1.311017   0.000000
      9          3.515570   0.000000
     10          4.450504   0.000000
     11          4.983346   0.000000
     12          6.106029   0.000000
     13          6.663931   0.000000
     14          6.856613   0.000000
     15          6.968339   0.000000
     16          7.652500   0.000000
 
 -0.4615385E+00  0.3846154E+00  0.0000000E+00  0.1183432E-01
      1        -14.343334   1.000000
      2        -11.721450   1.000000
      3         -6.536315   1.000000
      4         -5.190552   1.000000
      5         -4.251833   1.000000
      6         -0.794199   0.000000
      7          0.316749   0.000000
      8          1.286503   0.000000
      9          3.534886   0.000000
     10          4.448815   0.000000
     11          4.986089   0.000000
     12          6.103400   0.000000
     13          6.669357   0.000000
     14          6.860006   0.000000
     15          6.973200   0.000000
     16          7.652638   0.000000
 
 -0.3846154E+00  0.4615385E+00  0.0000000E+00  0.1183432E-01
      1        -14.346083   1.000000
      2        -11.716036   1.000000
      3         -6.539873   1.000000
      4         -5.186386   1.000000
      5         -4.257020   1.000000
      6         -0.782696   0.000000
      7          0.293939   0.000000
      8          1.303475   0.000000
      9          3.529186   0.000000
     10          4.450110   0.000000
     11          4.986643   0.000000
     12          6.104847   0.000000
     13          6.667426   0.000000
     14          6.856534   0.000000
     15          6.971937   0.000000
     16          7.652496   0.000000
 
  0.7692308E-01  0.3846154E+00  0.0000000E+00  0.1183432E-01
      1        -14.320498   1.000000
      2        -11.764633   1.000000
      3         -6.519973   1.000000
      4         -5.181725   1.000000
      5         -4.266731   1.000000
      6         -0.786836   0.000000
      7          0.355271   0.000000
      8          1.276177   0.000000
      9          3.527059   0.000000
     10          4.447909   0.000000
     11          4.982248   0.000000
     12          6.103205   0.000000
     13          6.667977   0.000000
     14          6.863450   0.000000
     15          6.970782   0.000000
     16          7.652912   0.000000
 
  0.4615385E+00 -0.7692308E-01  0.0000000E+00  0.1183432E-01
      1        -14.303258   1.000000
      2        -11.796380   1.000000
      3         -6.510782   1.000000
      4         -5.165328   1.000000
      5         -4.291928   1.000000
      6         -0.755353   0.000000
      7          0.348217   0.000000