 running   16 mpi-ranks, on    1 nodes
 distrk:  each k-point on   16 cores,    1 groups
 distr:  one band on    1 cores,   16 groups
 vasp.6.4.2 20Jul23 (build Nov 14 2023 12:59:38) complex                        
  
 POSCAR found type information on POSCAR As
 POSCAR found :  1 types and       2 ions
 Reading from existing POTCAR
 scaLAPACK will be used
 -----------------------------------------------------------------------------
|                                                                             |
|           W    W    AA    RRRRR   N    N  II  N    N   GGGG   !!!           |
|           W    W   A  A   R    R  NN   N  II  NN   N  G    G  !!!           |
|           W    W  A    A  R    R  N N  N  II  N N  N  G       !!!           |
|           W WW W  AAAAAA  RRRRR   N  N N  II  N  N N  G  GGG   !            |
|           WW  WW  A    A  R   R   N   NN  II  N   NN  G    G                |
|           W    W  A    A  R    R  N    N  II  N    N   GGGG   !!!           |
|                                                                             |
|     For optimal performance we recommend to set                             |
|       NCORE = 2 up to number-of-cores-per-socket                            |
|     NCORE specifies how many cores store one orbital (NPAR=cpu/NCORE).      |
|     This setting can greatly improve the performance of VASP for DFT.       |
|     The default, NCORE=1 might be grossly inefficient on modern             |
|     multi-core architectures or massively parallel machines. Do your        |
|     own testing! More info at https://www.vasp.at/wiki/index.php/NCORE      |
|     Unfortunately you need to use the default for GW and RPA                |
|     calculations (for HF NCORE is supported but not extensively tested      |
|     yet).                                                                   |
|                                                                             |
 -----------------------------------------------------------------------------

 Reading from existing POTCAR
 LDA part: xc-table for Pade appr. of Perdew
 POSCAR, INCAR and KPOINTS ok, starting setup
 FFT: planning ... GRIDC
 FFT: planning ... GRID_SOFT
 FFT: planning ... GRID
 WAVECAR not read
 entering main loop
       N       E                     dE             d eps       ncg     rms          rms(c)
DAV:   1     0.229328236710E+02    0.22933E+02   -0.25633E+03  2720   0.231E+02
DAV:   2    -0.852575046977E+01   -0.31459E+02   -0.30931E+02  3904   0.510E+01
DAV:   3    -0.937812533863E+01   -0.85237E+00   -0.85237E+00  3184   0.124E+01
DAV:   4    -0.940151838106E+01   -0.23393E-01   -0.23393E-01  4912   0.176E+00
DAV:   5    -0.940157010363E+01   -0.51723E-04   -0.51723E-04  3376   0.728E-02
DAV:   6    -0.940157088675E+01   -0.78311E-06   -0.78315E-06  5024   0.672E-03
DAV:   7    -0.940157088852E+01   -0.17687E-08   -0.16721E-08  4016   0.273E-04
DAV:   8    -0.940157088829E+01    0.22953E-09   -0.16479E-10  4304   0.226E-05
DAV:   9    -0.940157088852E+01   -0.23238E-09   -0.74286E-12  2672   0.413E-06
DAV:  10    -0.940157088851E+01    0.61959E-11   -0.41157E-12  2112   0.228E-06
DAV:  11    -0.940157088851E+01    0.14779E-11   -0.15329E-12  1696   0.145E-06
DAV:  12    -0.940157088851E+01    0.28422E-12   -0.19310E-12  1792   0.955E-07    0.193E+00
DAV:  13    -0.938693905706E+01    0.14632E-01   -0.31617E-03  3792   0.164E-01    0.172E+00
DAV:  14    -0.934453699811E+01    0.42402E-01   -0.18458E-01  4160   0.124E+00    0.224E-01
DAV:  15    -0.934078582323E+01    0.37512E-02   -0.18347E-02  4304   0.382E-01    0.110E-01
DAV:  16    -0.934090730184E+01   -0.12148E-03   -0.55773E-04  3504   0.976E-02    0.489E-02
DAV:  17    -0.934080728721E+01    0.10001E-03   -0.60890E-04  4240   0.788E-02    0.256E-02
DAV:  18    -0.934081441133E+01   -0.71241E-05   -0.74346E-05  3248   0.271E-02    0.595E-03
DAV:  19    -0.934081415501E+01    0.25632E-06   -0.46232E-06  3968   0.915E-03
   1 F= -.93408142E+01 E0= -.93408142E+01  d E =-.185408E-11
 Linear response reoptimize wavefunctions to high precision
DAV:   1    -0.934081468029E+01   -0.52528E-06   -0.15639E-06  2912   0.480E-03
DAV:   2    -0.934081468259E+01   -0.23022E-08   -0.23020E-08  5024   0.644E-04
DAV:   3    -0.934081468260E+01   -0.10004E-10   -0.10348E-10  3248   0.243E-05
 Linear response G [H, r] |phi>, progress :
  Direction:   1
       N       E                     dE             d eps       ncg     rms
RMM:   1    -0.438941082183E+02   -0.43894E+02    0.96896E+01  7410   0.337E+01
RMM:   2    -0.405075202250E+02    0.33866E+01   -0.74762E+00  5201   0.104E+01
RMM:   3    -0.406694151191E+02   -0.16189E+00   -0.41809E-01  5239   0.251E+00
RMM:   4    -0.406864446364E+02   -0.17030E-01   -0.21729E-02  5503   0.592E-01
RMM:   5    -0.406873358293E+02   -0.89119E-03   -0.21240E-03  5550   0.185E-01
RMM:   6    -0.406874482730E+02   -0.11244E-03   -0.21294E-04  5626   0.514E-02
RMM:   7    -0.406874567489E+02   -0.84759E-05   -0.32225E-05  5671   0.174E-02
RMM:   8    -0.406874576175E+02   -0.86863E-06   -0.15425E-06  5495   0.397E-03
 Linear response G [H, r] |phi>, progress :
  Direction:   2
       N       E                     dE             d eps       ncg     rms
RMM:   1    -0.453214177201E+02   -0.45321E+02    0.82666E+01  7485   0.337E+01
RMM:   2    -0.404952669359E+02    0.48262E+01   -0.73431E+00  5196   0.103E+01
RMM:   3    -0.406695979675E+02   -0.17433E+00   -0.40882E-01  5210   0.250E+00
RMM:   4    -0.406866272401E+02   -0.17029E-01   -0.20737E-02  5515   0.588E-01
RMM:   5    -0.406875076175E+02   -0.88038E-03   -0.20958E-03  5540   0.184E-01
RMM:   6    -0.406876113960E+02   -0.10378E-03   -0.19633E-04  5640   0.514E-02
RMM:   7    -0.406876194016E+02   -0.80056E-05   -0.29404E-05  5666   0.173E-02
RMM:   8    -0.406876201831E+02   -0.78147E-06   -0.15007E-06  5508   0.393E-03
 Linear response G [H, r] |phi>, progress :
  Direction:   3
       N       E                     dE             d eps       ncg     rms
RMM:   1    -0.355176690604E+02   -0.35518E+02    0.26398E+02  6802   0.383E+01
RMM:   2    -0.405332086012E+02   -0.50155E+01   -0.52422E+00  5450   0.959E+00
RMM:   3    -0.406268090680E+02   -0.93600E-01   -0.38811E-01  5532   0.241E+00
RMM:   4    -0.406381182941E+02   -0.11309E-01   -0.24540E-02  5793   0.617E-01
RMM:   5    -0.406391117952E+02   -0.99350E-03   -0.32933E-03  5774   0.198E-01
RMM:   6    -0.406392140821E+02   -0.10229E-03   -0.20326E-04  5717   0.518E-02
RMM:   7    -0.406392221823E+02   -0.81003E-05   -0.30815E-05  5822   0.171E-02
RMM:   8    -0.406392228492E+02   -0.66686E-06   -0.12698E-06  5614   0.391E-03
 Linear response to external field (no local field effect), progress :
  Direction:   1
       N       E                     dE             d eps       ncg     rms          rms(c)
RMM:   1    -0.196613513279E+01   -0.19661E+01   -0.11183E+01  6937   0.289E+00
RMM:   2    -0.202514781028E+01   -0.59013E-01   -0.29655E-02  5116   0.613E-01
RMM:   3    -0.202620152737E+01   -0.10537E-02   -0.11078E-03  5203   0.108E-01
RMM:   4    -0.202624169680E+01   -0.40169E-04   -0.42150E-05  5364   0.236E-02
RMM:   5    -0.202624282493E+01   -0.11281E-05   -0.24986E-06  5387   0.579E-03
RMM:   6    -0.202624290665E+01   -0.81713E-07   -0.16276E-07  5332   0.154E-03
 change of polarisation eV/A/(eV/A) component  1 :     4.052    -0.038    -0.024
 dielectric tensor                  component  1 :     5.068    -0.038    -0.024
 Linear response to external field (no local field effect), progress :
  Direction:   2
       N       E                     dE             d eps       ncg     rms          rms(c)
RMM:   1    -0.196730920897E+01   -0.19673E+01   -0.11199E+01  6932   0.284E+00
RMM:   2    -0.202414414716E+01   -0.56835E-01   -0.29791E-02  5174   0.611E-01
RMM:   3    -0.202521706214E+01   -0.10729E-02   -0.11318E-03  5226   0.108E-01
RMM:   4    -0.202525803621E+01   -0.40974E-04   -0.43521E-05  5408   0.236E-02
RMM:   5    -0.202525920099E+01   -0.11648E-05   -0.25824E-06  5401   0.585E-03
RMM:   6    -0.202525928481E+01   -0.83814E-07   -0.17005E-07  5368   0.155E-03
 change of polarisation eV/A/(eV/A) component  2 :    -0.038     4.051    -0.000
 dielectric tensor                  component  2 :    -0.038     5.066    -0.000
 Linear response to external field (no local field effect), progress :
  Direction:   3
       N       E                     dE             d eps       ncg     rms          rms(c)
RMM:   1    -0.766723863186E+00   -0.76672E+00   -0.21810E+00  6665   0.229E+00
RMM:   2    -0.808486658149E+00   -0.41763E-01   -0.18512E-02  5269   0.556E-01
RMM:   3    -0.808922190793E+00   -0.43553E-03   -0.65635E-04  5285   0.877E-02
RMM:   4    -0.808936782246E+00   -0.14591E-04   -0.28581E-05  5575   0.213E-02
RMM:   5    -0.808937428543E+00   -0.64630E-06   -0.17967E-06  5478   0.488E-03
RMM:   6    -0.808937472126E+00   -0.43582E-07   -0.12544E-07  5432   0.142E-03
 change of polarisation eV/A/(eV/A) component  3 :    -0.024    -0.000     1.618
 dielectric tensor                  component  3 :    -0.024    -0.000     2.624
 Linear response to external field, progress :
  Direction:   1
       N       E                     dE             d eps       ncg     rms          rms(c)
RMM:   1    -0.196613513279E+01   -0.19661E+01   -0.11183E+01  6937   0.289E+00
RMM:   2    -0.202514781028E+01   -0.59013E-01   -0.29655E-02  5116   0.613E-01    0.226E+00
RMM:   3    -0.198931893256E+01    0.35829E-01   -0.53055E-03  4818   0.276E-01    0.197E+00
RMM:   4    -0.201083603954E+01   -0.21517E-01   -0.15685E-01  4698   0.145E+00    0.364E-01
RMM:   5    -0.202385362160E+01   -0.13018E-01   -0.14877E-03  4587   0.174E-01    0.262E-01
RMM:   6    -0.203750072278E+01   -0.13647E-01   -0.28626E-03  4724   0.197E-01    0.418E-02
RMM:   7    -0.204159444556E+01   -0.40937E-02   -0.51792E-05  4772   0.354E-02    0.245E-02
RMM:   8    -0.204387746082E+01   -0.22830E-02   -0.25553E-05  4827   0.224E-02    0.634E-03
RMM:   9    -0.204475166713E+01   -0.87421E-03   -0.41952E-06  5135   0.866E-03    0.207E-03
RMM:  10    -0.204485970009E+01   -0.10803E-03   -0.52280E-07  5220   0.273E-03    0.669E-04
RMM:  11    -0.204489955752E+01   -0.39857E-04   -0.32442E-09  4940   0.798E-04    0.587E-04
RMM:  12    -0.204493399581E+01   -0.34438E-04   -0.25063E-08  4119   0.670E-04    0.115E-04
RMM:  13    -0.204493987062E+01   -0.58748E-05   -0.56738E-10  3344   0.200E-04    0.658E-05
RMM:  14    -0.204494022422E+01   -0.35360E-06   -0.14888E-09  3186   0.253E-04    0.681E-05
 change of polarisation eV/A/(eV/A) component  1 :     3.769    -0.036    -0.002
 dielectric tensor                  component  1 :     4.783    -0.036    -0.002
 Linear response to external field, progress :
  Direction:   2
       N       E                     dE             d eps       ncg     rms          rms(c)
RMM:   1    -0.196730920897E+01   -0.19673E+01   -0.11199E+01  6932   0.284E+00
RMM:   2    -0.202414414716E+01   -0.56835E-01   -0.29791E-02  5174   0.611E-01    0.226E+00
RMM:   3    -0.198852384012E+01    0.35620E-01   -0.52833E-03  4829   0.276E-01    0.197E+00
RMM:   4    -0.201547465050E+01   -0.26951E-01   -0.16482E-01  4702   0.148E+00    0.349E-01
RMM:   5    -0.203379165672E+01   -0.18317E-01   -0.33847E-03  4633   0.240E-01    0.116E-01
RMM:   6    -0.204021467509E+01   -0.64230E-02   -0.73432E-04  4865   0.105E-01    0.299E-02
RMM:   7    -0.204192037558E+01   -0.17057E-02   -0.32226E-05  5076   0.250E-02    0.146E-02
RMM:   8    -0.204397896343E+01   -0.20586E-02   -0.14378E-05  4805   0.172E-02    0.271E-03
RMM:   9    -0.204409905323E+01   -0.12009E-03   -0.82204E-07  5464   0.350E-03    0.200E-03
RMM:  10    -0.204417515114E+01   -0.76098E-04   -0.32086E-07  5187   0.200E-03    0.536E-04
RMM:  11    -0.204421172160E+01   -0.36570E-04   -0.14371E-07  4842   0.521E-04    0.371E-04
RMM:  12    -0.204419844590E+01    0.13276E-04   -0.55422E-10  3540   0.291E-04    0.304E-04
RMM:  13    -0.204422513463E+01   -0.26689E-04   -0.80350E-11  3586   0.308E-04    0.338E-05
RMM:  14    -0.204422791944E+01   -0.27848E-05   -0.40393E-10  2919   0.225E-04    0.313E-05
RMM:  15    -0.204422628960E+01    0.16298E-05   -0.80326E-12  1912   0.206E-04    0.106E-05
RMM:  16    -0.204422631561E+01   -0.26011E-07    0.00000E+00  1409   0.201E-04    0.305E-06
 change of polarisation eV/A/(eV/A) component  2 :    -0.036     3.767    -0.000
 dielectric tensor                  component  2 :    -0.036     4.782    -0.000
 Linear response to external field, progress :
  Direction:   3
       N       E                     dE             d eps       ncg     rms          rms(c)
RMM:   1    -0.766723863186E+00   -0.76672E+00   -0.21810E+00  6665   0.229E+00
RMM:   2    -0.808486658149E+00   -0.41763E-01   -0.18512E-02  5269   0.556E-01    0.213E+00
RMM:   3    -0.256053286311E+00    0.55243E+00   -0.77830E-02  4629   0.693E-01    0.630E-01
RMM:   4    -0.181182395659E+00    0.74871E-01   -0.21961E-02  4863   0.377E-01    0.290E-01
RMM:   5    -0.175937362328E+00    0.52450E-02   -0.12545E-02  4520   0.353E-01    0.595E-02
RMM:   6    -0.176153390636E+00   -0.21603E-03   -0.25575E-04  4697   0.597E-02    0.514E-02
RMM:   7    -0.176704024768E+00   -0.55063E-03   -0.23317E-04  4719   0.541E-02    0.155E-02
RMM:   8    -0.177082373280E+00   -0.37835E-03   -0.48137E-05  4822   0.225E-02    0.106E-02
RMM:   9    -0.177071794468E+00    0.10579E-04   -0.33459E-06  4960   0.724E-03    0.190E-03
RMM:  10    -0.177082778606E+00   -0.10984E-04   -0.18283E-07  5204   0.173E-03    0.127E-03
RMM:  11    -0.177076672104E+00    0.61065E-05   -0.13434E-07  4632   0.131E-03    0.282E-04
RMM:  12    -0.177078729514E+00   -0.20574E-05   -0.79605E-09  4299   0.356E-04    0.659E-05
RMM:  13    -0.177079186667E+00   -0.45715E-06   -0.11864E-09  3178   0.245E-04    0.632E-05
 change of polarisation eV/A/(eV/A) component  3 :    -0.002    -0.000     0.333
 dielectric tensor                  component  3 :    -0.002    -0.000     1.334
 Born effective charges drift removed
