 vasp.6.4.2 20Jul23 (build Nov 14 2023 12:59:38) complex                        
  
 executed on             LinuxIFC date 2023.12.29  15:52:44
 running   16 mpi-ranks, on    1 nodes
 distrk:  each k-point on   16 cores,    1 groups
 distr:  one band on NCORE=   1 cores,   16 groups


--------------------------------------------------------------------------------------------------------


 INCAR:
   ENCUT = 234.789750
   ALGO = Normal
   NELM = 200
   NELMIN = 6
   NELMDL = -12
   EDIFF = 1.0E-6
   AMIX = 0.1
   BMIX = 0.0001
   PREC = Accurate
   IVDW = 0
   ISPIN = 1
   ADDGRID = .TRUE.
   LASPH = .TRUE.
   LREAL = .FALSE.
   LEPSILON = .TRUE.
   ISMEAR = 0
   SIGMA = 0.01
   LORBIT = 10
   NEDOS = 6001
   NWRITE = 3
   LWAVE = .FALSE.
   LCHARG = .FALSE.
   ICHARG = 2
   LELF = .FALSE.
   LVTOT = .FALSE.
   LPLANE = .TRUE.

 POTCAR:    PAW_PBE As_GW 20Mar2012               
 -----------------------------------------------------------------------------
|                                                                             |
|           W    W    AA    RRRRR   N    N  II  N    N   GGGG   !!!           |
|           W    W   A  A   R    R  NN   N  II  NN   N  G    G  !!!           |
|           W    W  A    A  R    R  N N  N  II  N N  N  G       !!!           |
|           W WW W  AAAAAA  RRRRR   N  N N  II  N  N N  G  GGG   !            |
|           WW  WW  A    A  R   R   N   NN  II  N   NN  G    G                |
|           W    W  A    A  R    R  N    N  II  N    N   GGGG   !!!           |
|                                                                             |
|     For optimal performance we recommend to set                             |
|       NCORE = 2 up to number-of-cores-per-socket                            |
|     NCORE specifies how many cores store one orbital (NPAR=cpu/NCORE).      |
|     This setting can greatly improve the performance of VASP for DFT.       |
|     The default, NCORE=1 might be grossly inefficient on modern             |
|     multi-core architectures or massively parallel machines. Do your        |
|     own testing! More info at https://www.vasp.at/wiki/index.php/NCORE      |
|     Unfortunately you need to use the default for GW and RPA                |
|     calculations (for HF NCORE is supported but not extensively tested      |
|     yet).                                                                   |
|                                                                             |
 -----------------------------------------------------------------------------

 POTCAR:    PAW_PBE As_GW 20Mar2012               
   SHA256 =  a9e2ff0950b1b79091db2e66c8f6a7a7244f007cee0c91008df893b76da4c5a2 As_GW/POTCAR          
   COPYR  = (c) Copyright 20Mar2012 Georg Kresse                                                    
   COPYR  = This file is part of the software VASP. Any use, copying, and all other rights are regul
   COPYR  = If you do not have a valid VASP license, you may not use, copy or distribute this file. 
   VRHFIN =As: s2p3                                                                                 
   LEXCH  = PE                                                                                      
   EATOM  =   170.1867 eV,   12.5084 Ry                                                             
                                                                                                    
   TITEL  = PAW_PBE As_GW 20Mar2012                                                                 
   LULTRA =        F    use ultrasoft PP ?                                                          
   IUNSCR =        1    unscreen: 0-lin 1-nonlin 2-no                                               
   RPACOR =    1.900    partial core radius                                                         
   POMASS =   74.922; ZVAL   =    5.000    mass and valenz                                          
   RCORE  =    2.100    outmost cutoff radius                                                       
   RWIGS  =    2.300; RWIGS  =    1.217    wigner-seitz radius (au A)                               
   ENMAX  =  208.702; ENMIN  =  156.526 eV                                                          
   ICORE  =        3    local potential                                                             
   LCOR   =        T    correct aug charges                                                         
   LPAW   =        T    paw PP                                                                      
   EAUG   =  462.758                                                                                
   RMAX   =    2.144    core radius for proj-oper                                                   
   RAUG   =    1.300    factor for augmentation sphere                                              
   RDEP   =    2.140    radius for radial grids                                                     
   RDEPT  =    1.956    core radius for aug-charge                                                  
                                                                                                    
   Atomic configuration                                                                             
   10 entries                                                                                       
     n  l   j            E        occ.                                                              
     1  0  0.50    -11718.0418   2.0000                                                             
     2  0  0.50     -1486.5454   2.0000                                                             
     2  1  1.50     -1303.3889   6.0000                                                             
     3  0  0.50      -190.2849   2.0000                                                             
     3  1  1.50      -133.6555   6.0000                                                             
     3  2  2.50       -40.6443  10.0000                                                             
     4  0  0.50       -14.4936   2.0000                                                             
     4  1  0.50        -5.1947   3.0000                                                             
     4  2  1.50        -5.4423   0.0000                                                             
     4  3  2.50        -5.4423   0.0000                                                             
   Description                                                                                      
     l       E           TYP  RCUT    TYP  RCUT                                                     
     0    -14.4935572     23  2.100                                                                 
     0     81.6349560     23  2.100                                                                 
     1     -5.1947128     23  2.100                                                                 
     1     95.2407820     23  2.100                                                                 
     2     -5.4423304     23  2.100                                                                 
     3     -1.3605826      7  2.100                                                                 
  local pseudopotential read in
  partial core-charges read in
  partial kinetic energy density read in
  kinetic energy density of atom read in
  atomic valenz-charges read in
  non local Contribution for L=           0  read in
    real space projection operators read in
  non local Contribution for L=           0  read in
    real space projection operators read in
  non local Contribution for L=           1  read in
    real space projection operators read in
  non local Contribution for L=           1  read in
    real space projection operators read in
  non local Contribution for L=           2  read in
    real space projection operators read in
    PAW grid and wavefunctions read in
 
   number of l-projection  operators is LMAX  =           5
   number of lm-projection operators is LMMAX =          13
 
  PAW_PBE As_GW 20Mar2012               :
 energy of atom  1       EATOM= -170.1867
 kinetic energy error for atom=    0.0047 (will be added to EATOM!!)
 
 
 POSCAR: OUTCAR.0003.+1.out 1.0e-02
  positions in cartesian coordinates
  No initial velocities read in
 exchange correlation table for  LEXCH =        8
   RHO(1)=    0.500       N(1)  =     2000
   RHO(2)=  100.500       N(2)  =     4000
 


--------------------------------------------------------------------------------------------------------


 ion  position               nearest neighbor table
   1  0.669  0.333  0.456-   2 2.50   2 2.51   2 2.52
   2  0.331  0.667  0.544-   1 2.50   1 2.51   1 2.52
 
  LATTYP: Found a hexagonal cell.
 ALAT       =     3.6068925390
 C/A-ratio  =     4.4359513978
  
  Lattice vectors:
  
 A1 = (   3.6068925390,   0.0000000000,   0.0000000000)
 A2 = (  -1.8034462695,   3.1236605675,   0.0000000000)
 A3 = (   0.0000000000,   0.0000000000,  16.0000000000)


Analysis of symmetry for initial positions (statically):
=====================================================================
 Subroutine PRICEL returns:
 Original cell was already a primitive cell.
 

 Routine SETGRP: Setting up the symmetry group for a 
 hexagonal supercell.


 Subroutine GETGRP returns: Found  2 space group operations
 (whereof  2 operations were pure point group operations)
 out of a pool of 24 trial point group operations.


The static configuration has the point symmetry S_2 .


Analysis of symmetry for dynamics (positions and initial velocities):
=====================================================================
 Subroutine PRICEL returns:
 Original cell was already a primitive cell.
 

 Routine SETGRP: Setting up the symmetry group for a 
 hexagonal supercell.


 Subroutine GETGRP returns: Found  2 space group operations
 (whereof  2 operations were pure point group operations)
 out of a pool of 24 trial point group operations.


The dynamic configuration has the point symmetry S_2 .


 Subroutine INISYM returns: Found  2 space group operations
 (whereof  2 operations are pure point group operations),
 and found     1 'primitive' translations



 irot  :   1
 --------------------------------------------------------------------
 isymop:   1   0   0
           0   1   0
           0   0   1

 gtrans:     0.0000000     0.0000000     0.0000000

 ptrans:     0.0000000     0.0000000     0.0000000
 
 rotmap:
 (   1->   1)  (   2->   2) 


 irot  :   2
 --------------------------------------------------------------------
 isymop:  -1   0   0
           0  -1   0
           0   0  -1

 gtrans:     0.0000000     0.0000000     0.0000000

 ptrans:     0.0000000     0.0000000     0.0000000
 
 rotmap:
 (   1->   2)  (   2->   1) 

----------------------------------------------------------------------------------------

                                     Primitive cell                                     

  volume of cell :     180.2673

  direct lattice vectors                    reciprocal lattice vectors
     3.606892539  0.000000000  0.000000000     0.277246962  0.160068608  0.000000000
    -1.803446269  3.123660567  0.000000000     0.000000000  0.320137217  0.000000000
     0.000000000  0.000000000 16.000000000     0.000000000  0.000000000  0.062500000

  length of vectors
     3.606892539  3.606892539 16.000000000     0.320137217  0.320137217  0.062500000

  position of ions in fractional coordinates (direct lattice)
     0.668627099  0.333333333  0.456343136
     0.331372901  0.666666667  0.543656864

  ion indices of the primitive-cell ions
   primitive index   ion index
                 1           1
                 2           2

----------------------------------------------------------------------------------------

 
 
 KPOINTS: kpoints                                 

Automatic generation of k-mesh.
 Grid dimensions read from file:
 generate k-points for:   13   13    1

 Generating k-lattice:

  Cartesian coordinates                     Fractional coordinates (reciprocal lattice)
     0.021326689  0.012312970  0.000000000     0.076923077  0.000000000  0.000000000
     0.000000000  0.024625940  0.000000000     0.000000000  0.076923077  0.000000000
     0.000000000  0.000000000  0.062500000     0.000000000  0.000000000  1.000000000

  Length of vectors
     0.024625940  0.024625940  0.062500000

  Shift w.r.t. Gamma in fractional coordinates (k-lattice)
     0.000000000  0.000000000  0.000000000

 
 Subroutine IBZKPT returns following result:
 ===========================================
 
 Found     85 irreducible k-points:
 
 Following reciprocal coordinates:
            Coordinates               Weight
  0.000000  0.000000  0.000000      1.000000
  0.076923  0.000000  0.000000      2.000000
  0.000000  0.076923  0.000000      2.000000
 -0.076923  0.076923  0.000000      2.000000
  0.153846  0.000000  0.000000      2.000000
  0.000000  0.153846  0.000000      2.000000
 -0.153846  0.153846  0.000000      2.000000
  0.230769 -0.000000  0.000000      2.000000
  0.000000  0.230769  0.000000      2.000000
 -0.230769  0.230769  0.000000      2.000000
  0.307692  0.000000  0.000000      2.000000
  0.000000  0.307692  0.000000      2.000000
 -0.307692  0.307692  0.000000      2.000000
  0.384615  0.000000  0.000000      2.000000
  0.000000  0.384615  0.000000      2.000000
 -0.384615  0.384615  0.000000      2.000000
  0.461538 -0.000000  0.000000      2.000000
  0.000000  0.461538  0.000000      2.000000
 -0.461538  0.461538  0.000000      2.000000
  0.076923  0.076923  0.000000      2.000000
 -0.076923  0.153846  0.000000      2.000000
 -0.153846  0.076923  0.000000      2.000000
  0.153846  0.076923  0.000000      2.000000
 -0.076923  0.230769  0.000000      2.000000
 -0.230769  0.153846  0.000000      2.000000
 -0.153846  0.230769  0.000000      2.000000
  0.076923  0.153846  0.000000      2.000000
  0.230769 -0.076923  0.000000      2.000000
  0.230769  0.076923  0.000000      2.000000
 -0.076923  0.307692  0.000000      2.000000
 -0.307692  0.230769  0.000000      2.000000
 -0.230769  0.307692  0.000000      2.000000
  0.076923  0.230769  0.000000      2.000000
  0.307692 -0.076923  0.000000      2.000000
  0.307692  0.076923  0.000000      2.000000
 -0.076923  0.384615  0.000000      2.000000
 -0.384615  0.307692  0.000000      2.000000
 -0.307692  0.384615  0.000000      2.000000
  0.076923  0.307692  0.000000      2.000000
  0.384615 -0.076923  0.000000      2.000000
  0.384615  0.076923  0.000000      2.000000
 -0.076923  0.461538  0.000000      2.000000
 -0.461538  0.384615  0.000000      2.000000
 -0.384615  0.461538  0.000000      2.000000
  0.076923  0.384615  0.000000      2.000000
  0.461538 -0.076923  0.000000      2.000000
  0.461538  0.076923  0.000000      2.000000
 -0.076923 -0.461538  0.000000      2.000000
  0.461538  0.461538  0.000000      2.000000
  0.153846  0.153846  0.000000      2.000000
 -0.153846  0.307692  0.000000      2.000000
 -0.307692  0.153846  0.000000      2.000000
  0.230769  0.153846  0.000000      2.000000
 -0.153846  0.384615  0.000000      2.000000
 -0.384615  0.230769  0.000000      2.000000
 -0.230769  0.384615  0.000000      2.000000
  0.153846  0.230769  0.000000      2.000000
  0.384615 -0.153846  0.000000      2.000000
  0.307692  0.153846  0.000000      2.000000
 -0.153846  0.461538  0.000000      2.000000
 -0.461538  0.307692  0.000000      2.000000
 -0.307692  0.461538  0.000000      2.000000
  0.153846  0.307692  0.000000      2.000000
  0.461538 -0.153846  0.000000      2.000000
  0.384615  0.153846  0.000000      2.000000
 -0.153846 -0.461538  0.000000      2.000000
  0.461538  0.384615  0.000000      2.000000
 -0.384615 -0.461538  0.000000      2.000000
  0.153846  0.384615  0.000000      2.000000
 -0.461538 -0.153846  0.000000      2.000000
  0.230769  0.230769  0.000000      2.000000
 -0.230769  0.461538  0.000000      2.000000
 -0.461538  0.230769  0.000000      2.000000
  0.307692  0.230769  0.000000      2.000000
 -0.230769 -0.461538  0.000000      2.000000
  0.461538  0.307692  0.000000      2.000000
 -0.307692 -0.461538  0.000000      2.000000
  0.230769  0.307692  0.000000      2.000000
 -0.461538 -0.230769  0.000000      2.000000
  0.384615  0.230769  0.000000      2.000000
 -0.230769 -0.384615  0.000000      2.000000
  0.384615  0.384615  0.000000      2.000000
  0.307692  0.307692  0.000000      2.000000
 -0.307692 -0.384615  0.000000      2.000000
  0.384615  0.307692  0.000000      2.000000
 
 Following cartesian coordinates:
            Coordinates               Weight
  0.000000  0.000000  0.000000      1.000000
  0.021327  0.012313  0.000000      2.000000
  0.000000  0.024626  0.000000      2.000000
 -0.021327  0.012313  0.000000      2.000000
  0.042653  0.024626  0.000000      2.000000
  0.000000  0.049252  0.000000      2.000000
 -0.042653  0.024626  0.000000      2.000000
  0.063980  0.036939  0.000000      2.000000
  0.000000  0.073878  0.000000      2.000000
 -0.063980  0.036939  0.000000      2.000000
  0.085307  0.049252  0.000000      2.000000
  0.000000  0.098504  0.000000      2.000000
 -0.085307  0.049252  0.000000      2.000000
  0.106633  0.061565  0.000000      2.000000
  0.000000  0.123130  0.000000      2.000000
 -0.106633  0.061565  0.000000      2.000000
  0.127960  0.073878  0.000000      2.000000
  0.000000  0.147756  0.000000      2.000000
 -0.127960  0.073878  0.000000      2.000000
  0.021327  0.036939  0.000000      2.000000
 -0.021327  0.036939  0.000000      2.000000
 -0.042653  0.000000  0.000000      2.000000
  0.042653  0.049252  0.000000      2.000000
 -0.021327  0.061565  0.000000      2.000000
 -0.063980  0.012313  0.000000      2.000000
 -0.042653  0.049252  0.000000      2.000000
  0.021327  0.061565  0.000000      2.000000
  0.063980  0.012313  0.000000      2.000000
  0.063980  0.061565  0.000000      2.000000
 -0.021327  0.086191  0.000000      2.000000
 -0.085307  0.024626  0.000000      2.000000
 -0.063980  0.061565  0.000000      2.000000
  0.021327  0.086191  0.000000      2.000000
  0.085307  0.024626  0.000000      2.000000
  0.085307  0.073878  0.000000      2.000000
 -0.021327  0.110817  0.000000      2.000000
 -0.106633  0.036939  0.000000      2.000000
 -0.085307  0.073878  0.000000      2.000000
  0.021327  0.110817  0.000000      2.000000
  0.106633  0.036939  0.000000      2.000000
  0.106633  0.086191  0.000000      2.000000
 -0.021327  0.135443  0.000000      2.000000
 -0.127960  0.049252  0.000000      2.000000
 -0.106633  0.086191  0.000000      2.000000
  0.021327  0.135443  0.000000      2.000000
  0.127960  0.049252  0.000000      2.000000
  0.127960  0.098504  0.000000      2.000000
 -0.021327 -0.160069  0.000000      2.000000
  0.127960  0.221633  0.000000      2.000000
  0.042653  0.073878  0.000000      2.000000
 -0.042653  0.073878  0.000000      2.000000
 -0.085307  0.000000  0.000000      2.000000
  0.063980  0.086191  0.000000      2.000000
 -0.042653  0.098504  0.000000      2.000000
 -0.106633  0.012313  0.000000      2.000000
 -0.063980  0.086191  0.000000      2.000000
  0.042653  0.098504  0.000000      2.000000
  0.106633  0.012313  0.000000      2.000000
  0.085307  0.098504  0.000000      2.000000
 -0.042653  0.123130  0.000000      2.000000
 -0.127960  0.024626  0.000000      2.000000
 -0.085307  0.098504  0.000000      2.000000
  0.042653  0.123130  0.000000      2.000000
  0.127960  0.024626  0.000000      2.000000
  0.106633  0.110817  0.000000      2.000000
 -0.042653 -0.172382  0.000000      2.000000
  0.127960  0.197008  0.000000      2.000000
 -0.106633 -0.209320  0.000000      2.000000
  0.042653  0.147756  0.000000      2.000000
 -0.127960 -0.123130  0.000000      2.000000
  0.063980  0.110817  0.000000      2.000000
 -0.063980  0.110817  0.000000      2.000000
 -0.127960  0.000000  0.000000      2.000000
  0.085307  0.123130  0.000000      2.000000
 -0.063980 -0.184695  0.000000      2.000000
  0.127960  0.172382  0.000000      2.000000
 -0.085307 -0.197008  0.000000      2.000000
  0.063980  0.135443  0.000000      2.000000
 -0.127960 -0.147756  0.000000      2.000000
  0.106633  0.135443  0.000000      2.000000
 -0.063980 -0.160069  0.000000      2.000000
  0.106633  0.184695  0.000000      2.000000
  0.085307  0.147756  0.000000      2.000000
 -0.085307 -0.172382  0.000000      2.000000
  0.106633  0.160069  0.000000      2.000000
 
 
 Subroutine IBZKPT_HF returns following result:
 ==============================================
 
 Found    169 k-points in 1st BZ
 the following    169 k-points will be used (e.g. in the exchange kernel)
 Following reciprocal coordinates:   # in IRBZ
  0.000000  0.000000  0.000000    0.00591716   1 t-inv F
  0.076923  0.000000  0.000000    0.00591716   2 t-inv F
  0.000000  0.076923  0.000000    0.00591716   3 t-inv F
 -0.076923  0.076923  0.000000    0.00591716   4 t-inv F
  0.153846  0.000000  0.000000    0.00591716   5 t-inv F
  0.000000  0.153846  0.000000    0.00591716   6 t-inv F
 -0.153846  0.153846  0.000000    0.00591716   7 t-inv F
  0.230769 -0.000000  0.000000    0.00591716   8 t-inv F
  0.000000  0.230769  0.000000    0.00591716   9 t-inv F
 -0.230769  0.230769  0.000000    0.00591716  10 t-inv F
  0.307692  0.000000  0.000000    0.00591716  11 t-inv F
  0.000000  0.307692  0.000000    0.00591716  12 t-inv F
 -0.307692  0.307692  0.000000    0.00591716  13 t-inv F
  0.384615  0.000000  0.000000    0.00591716  14 t-inv F
  0.000000  0.384615  0.000000    0.00591716  15 t-inv F
 -0.384615  0.384615  0.000000    0.00591716  16 t-inv F
  0.461538 -0.000000  0.000000    0.00591716  17 t-inv F
  0.000000  0.461538  0.000000    0.00591716  18 t-inv F
 -0.461538  0.461538  0.000000    0.00591716  19 t-inv F
  0.076923  0.076923  0.000000    0.00591716  20 t-inv F
 -0.076923  0.153846  0.000000    0.00591716  21 t-inv F
 -0.153846  0.076923  0.000000    0.00591716  22 t-inv F
  0.153846  0.076923  0.000000    0.00591716  23 t-inv F
 -0.076923  0.230769  0.000000    0.00591716  24 t-inv F
 -0.230769  0.153846  0.000000    0.00591716  25 t-inv F
 -0.153846  0.230769  0.000000    0.00591716  26 t-inv F
  0.076923  0.153846  0.000000    0.00591716  27 t-inv F
  0.230769 -0.076923  0.000000    0.00591716  28 t-inv F
  0.230769  0.076923  0.000000    0.00591716  29 t-inv F
 -0.076923  0.307692  0.000000    0.00591716  30 t-inv F
 -0.307692  0.230769  0.000000    0.00591716  31 t-inv F
 -0.230769  0.307692  0.000000    0.00591716  32 t-inv F
  0.076923  0.230769  0.000000    0.00591716  33 t-inv F
  0.307692 -0.076923  0.000000    0.00591716  34 t-inv F
  0.307692  0.076923  0.000000    0.00591716  35 t-inv F
 -0.076923  0.384615  0.000000    0.00591716  36 t-inv F
 -0.384615  0.307692  0.000000    0.00591716  37 t-inv F
 -0.307692  0.384615  0.000000    0.00591716  38 t-inv F
  0.076923  0.307692  0.000000    0.00591716  39 t-inv F
  0.384615 -0.076923  0.000000    0.00591716  40 t-inv F
  0.384615  0.076923  0.000000    0.00591716  41 t-inv F
 -0.076923  0.461538  0.000000    0.00591716  42 t-inv F
 -0.461538  0.384615  0.000000    0.00591716  43 t-inv F
 -0.384615  0.461538  0.000000    0.00591716  44 t-inv F
  0.076923  0.384615  0.000000    0.00591716  45 t-inv F
  0.461538 -0.076923  0.000000    0.00591716  46 t-inv F
  0.461538  0.076923  0.000000    0.00591716  47 t-inv F
 -0.076923 -0.461538  0.000000    0.00591716  48 t-inv F
  0.461538  0.461538  0.000000    0.00591716  49 t-inv F
  0.153846  0.153846  0.000000    0.00591716  50 t-inv F
 -0.153846  0.307692  0.000000    0.00591716  51 t-inv F
 -0.307692  0.153846  0.000000    0.00591716  52 t-inv F
  0.230769  0.153846  0.000000    0.00591716  53 t-inv F
 -0.153846  0.384615  0.000000    0.00591716  54 t-inv F
 -0.384615  0.230769  0.000000    0.00591716  55 t-inv F
 -0.230769  0.384615  0.000000    0.00591716  56 t-inv F
  0.153846  0.230769  0.000000    0.00591716  57 t-inv F
  0.384615 -0.153846  0.000000    0.00591716  58 t-inv F
  0.307692  0.153846  0.000000    0.00591716  59 t-inv F
 -0.153846  0.461538  0.000000    0.00591716  60 t-inv F
 -0.461538  0.307692  0.000000    0.00591716  61 t-inv F
 -0.307692  0.461538  0.000000    0.00591716  62 t-inv F
  0.153846  0.307692  0.000000    0.00591716  63 t-inv F
  0.461538 -0.153846  0.000000    0.00591716  64 t-inv F
  0.384615  0.153846  0.000000    0.00591716  65 t-inv F
 -0.153846 -0.461538  0.000000    0.00591716  66 t-inv F
  0.461538  0.384615  0.000000    0.00591716  67 t-inv F
 -0.384615 -0.461538  0.000000    0.00591716  68 t-inv F
  0.153846  0.384615  0.000000    0.00591716  69 t-inv F
 -0.461538 -0.153846  0.000000    0.00591716  70 t-inv F
  0.230769  0.230769  0.000000    0.00591716  71 t-inv F
 -0.230769  0.461538  0.000000    0.00591716  72 t-inv F
 -0.461538  0.230769  0.000000    0.00591716  73 t-inv F
  0.307692  0.230769  0.000000    0.00591716  74 t-inv F
 -0.230769 -0.461538  0.000000    0.00591716  75 t-inv F
  0.461538  0.307692  0.000000    0.00591716  76 t-inv F
 -0.307692 -0.461538  0.000000    0.00591716  77 t-inv F
  0.230769  0.307692  0.000000    0.00591716  78 t-inv F
 -0.461538 -0.230769  0.000000    0.00591716  79 t-inv F
  0.384615  0.230769  0.000000    0.00591716  80 t-inv F
 -0.230769 -0.384615  0.000000    0.00591716  81 t-inv F
  0.384615  0.384615  0.000000    0.00591716  82 t-inv F
  0.307692  0.307692  0.000000    0.00591716  83 t-inv F
 -0.307692 -0.384615  0.000000    0.00591716  84 t-inv F
  0.384615  0.307692  0.000000    0.00591716  85 t-inv F
 -0.076923 -0.000000  0.000000    0.00591716   2 t-inv F
  0.000000 -0.076923  0.000000    0.00591716   3 t-inv F
  0.076923 -0.076923  0.000000    0.00591716   4 t-inv F
 -0.153846 -0.000000  0.000000    0.00591716   5 t-inv F
  0.000000 -0.153846  0.000000    0.00591716   6 t-inv F
  0.153846 -0.153846  0.000000    0.00591716   7 t-inv F
 -0.230769  0.000000  0.000000    0.00591716   8 t-inv F
  0.000000 -0.230769  0.000000    0.00591716   9 t-inv F
  0.230769 -0.230769  0.000000    0.00591716  10 t-inv F
 -0.307692 -0.000000  0.000000    0.00591716  11 t-inv F
  0.000000 -0.307692  0.000000    0.00591716  12 t-inv F
  0.307692 -0.307692  0.000000    0.00591716  13 t-inv F
 -0.384615  0.000000  0.000000    0.00591716  14 t-inv F
  0.000000 -0.384615  0.000000    0.00591716  15 t-inv F
  0.384615 -0.384615  0.000000    0.00591716  16 t-inv F
 -0.461538  0.000000  0.000000    0.00591716  17 t-inv F
  0.000000 -0.461538  0.000000    0.00591716  18 t-inv F
  0.461538 -0.461538  0.000000    0.00591716  19 t-inv F
 -0.076923 -0.076923  0.000000    0.00591716  20 t-inv F
  0.076923 -0.153846  0.000000    0.00591716  21 t-inv F
  0.153846 -0.076923  0.000000    0.00591716  22 t-inv F
 -0.153846 -0.076923  0.000000    0.00591716  23 t-inv F
  0.076923 -0.230769  0.000000    0.00591716  24 t-inv F
  0.230769 -0.153846  0.000000    0.00591716  25 t-inv F
  0.153846 -0.230769  0.000000    0.00591716  26 t-inv F
 -0.076923 -0.153846  0.000000    0.00591716  27 t-inv F
 -0.230769  0.076923  0.000000    0.00591716  28 t-inv F
 -0.230769 -0.076923  0.000000    0.00591716  29 t-inv F
  0.076923 -0.307692  0.000000    0.00591716  30 t-inv F
  0.307692 -0.230769  0.000000    0.00591716  31 t-inv F
  0.230769 -0.307692  0.000000    0.00591716  32 t-inv F
 -0.076923 -0.230769  0.000000    0.00591716  33 t-inv F
 -0.307692  0.076923  0.000000    0.00591716  34 t-inv F
 -0.307692 -0.076923  0.000000    0.00591716  35 t-inv F
  0.076923 -0.384615  0.000000    0.00591716  36 t-inv F
  0.384615 -0.307692  0.000000    0.00591716  37 t-inv F
  0.307692 -0.384615  0.000000    0.00591716  38 t-inv F
 -0.076923 -0.307692  0.000000    0.00591716  39 t-inv F
 -0.384615  0.076923  0.000000    0.00591716  40 t-inv F
 -0.384615 -0.076923  0.000000    0.00591716  41 t-inv F
  0.076923 -0.461538  0.000000    0.00591716  42 t-inv F
  0.461538 -0.384615  0.000000    0.00591716  43 t-inv F
  0.384615 -0.461538  0.000000    0.00591716  44 t-inv F
 -0.076923 -0.384615  0.000000    0.00591716  45 t-inv F
 -0.461538  0.076923  0.000000    0.00591716  46 t-inv F
 -0.461538 -0.076923  0.000000    0.00591716  47 t-inv F
  0.076923  0.461538  0.000000    0.00591716  48 t-inv F
 -0.461538 -0.461538  0.000000    0.00591716  49 t-inv F
 -0.153846 -0.153846  0.000000    0.00591716  50 t-inv F
  0.153846 -0.307692  0.000000    0.00591716  51 t-inv F
  0.307692 -0.153846  0.000000    0.00591716  52 t-inv F
 -0.230769 -0.153846  0.000000    0.00591716  53 t-inv F
  0.153846 -0.384615  0.000000    0.00591716  54 t-inv F
  0.384615 -0.230769  0.000000    0.00591716  55 t-inv F
  0.230769 -0.384615  0.000000    0.00591716  56 t-inv F
 -0.153846 -0.230769  0.000000    0.00591716  57 t-inv F
 -0.384615  0.153846  0.000000    0.00591716  58 t-inv F
 -0.307692 -0.153846  0.000000    0.00591716  59 t-inv F
  0.153846 -0.461538  0.000000    0.00591716  60 t-inv F
  0.461538 -0.307692  0.000000    0.00591716  61 t-inv F
  0.307692 -0.461538  0.000000    0.00591716  62 t-inv F
 -0.153846 -0.307692  0.000000    0.00591716  63 t-inv F
 -0.461538  0.153846  0.000000    0.00591716  64 t-inv F
 -0.384615 -0.153846  0.000000    0.00591716  65 t-inv F
  0.153846  0.461538  0.000000    0.00591716  66 t-inv F
 -0.461538 -0.384615  0.000000    0.00591716  67 t-inv F
  0.384615  0.461538  0.000000    0.00591716  68 t-inv F
 -0.153846 -0.384615  0.000000    0.00591716  69 t-inv F
  0.461538  0.153846  0.000000    0.00591716  70 t-inv F
 -0.230769 -0.230769  0.000000    0.00591716  71 t-inv F
  0.230769 -0.461538  0.000000    0.00591716  72 t-inv F
  0.461538 -0.230769  0.000000    0.00591716  73 t-inv F
 -0.307692 -0.230769  0.000000    0.00591716  74 t-inv F
  0.230769  0.461538  0.000000    0.00591716  75 t-inv F
 -0.461538 -0.307692  0.000000    0.00591716  76 t-inv F
  0.307692  0.461538  0.000000    0.00591716  77 t-inv F
 -0.230769 -0.307692  0.000000    0.00591716  78 t-inv F
  0.461538  0.230769  0.000000    0.00591716  79 t-inv F
 -0.384615 -0.230769  0.000000    0.00591716  80 t-inv F
  0.230769  0.384615  0.000000    0.00591716  81 t-inv F
 -0.384615 -0.384615  0.000000    0.00591716  82 t-inv F
 -0.307692 -0.307692  0.000000    0.00591716  83 t-inv F
  0.307692  0.384615  0.000000    0.00591716  84 t-inv F
 -0.384615 -0.307692  0.000000    0.00591716  85 t-inv F


--------------------------------------------------------------------------------------------------------




 Dimension of arrays:
   k-points           NKPTS =     85   k-points in BZ     NKDIM =     85   number of bands    NBANDS=     16
   number of dos      NEDOS =   6001   number of ions     NIONS =      2
   non local maximal  LDIM  =      5   non local SUM 2l+1 LMDIM =     13
   total plane-waves  NPLWV =  25920
   max r-space proj   IRMAX =      1   max aug-charges    IRDMAX=  47793
   dimension x,y,z NGX =    18 NGY =   18 NGZ =   80
   dimension x,y,z NGXF=    36 NGYF=   36 NGZF=  160
   support grid    NGXF=    72 NGYF=   72 NGZF=  320
   ions per type =               2
   NGX,Y,Z   is equivalent  to a cutoff of   8.30,  8.30,  8.31 a.u.
   NGXF,Y,Z  is equivalent  to a cutoff of  16.59, 16.59, 16.62 a.u.

 SYSTEM =  unknown system                          
 POSCAR =  OUTCAR.0003.+1.out 1.0e-02              

 Startparameter for this run:
   NWRITE =      3    write-flag & timer
   PREC   = accura    normal or accurate (medium, high low for compatibility)
   ISTART =      0    job   : 0-new  1-cont  2-samecut
   ICHARG =      2    charge: 1-file 2-atom 10-const
   ISPIN  =      1    spin polarized calculation?
   LNONCOLLINEAR =      F non collinear calculations
   LSORBIT =      F    spin-orbit coupling
   INIWAV =      1    electr: 0-lowe 1-rand  2-diag
   LASPH  =      T    aspherical Exc in radial PAW
 Electronic Relaxation 1
   ENCUT  =  234.8 eV  17.26 Ry    4.15 a.u.   4.51  4.51 19.99*2*pi/ulx,y,z
   ENINI  =  234.8     initial cutoff
   ENAUG  =  462.8 eV  augmentation charge cutoff
   NELM   =    200;   NELMIN=  6; NELMDL=-12     # of ELM steps 
   EDIFF  = 0.1E-05   stopping-criterion for ELM
   LREAL  =      F    real-space projection
   NLSPLINE    = F    spline interpolate recip. space projectors
   LCOMPAT=      F    compatible to vasp.4.4
   GGA_COMPAT  = T    GGA compatible to vasp.4.4-vasp.4.6
   LMAXPAW     = -100 max onsite density
   LMAXMIX     =    2 max onsite mixed and CHGCAR
   VOSKOWN=      0    Vosko Wilk Nusair interpolation
   ROPT   =    0.00000
 Ionic relaxation
   EDIFFG = 0.1E-04   stopping-criterion for IOM
   NSW    =      0    number of steps for IOM
   NBLOCK =      1;   KBLOCK =      1    inner block; outer block 
   IBRION =     -1    ionic relax: 0-MD 1-quasi-New 2-CG
   NFREE  =      0    steps in history (QN), initial steepest desc. (CG)
   ISIF   =      2    stress and relaxation
   IWAVPR =     10    prediction:  0-non 1-charg 2-wave 3-comb
   ISYM   =      2    0-nonsym 1-usesym 2-fastsym
   LCORR  =      T    Harris-Foulkes like correction to forces

   POTIM  = 0.5000    time-step for ionic-motion
   TEIN   =    0.0    initial temperature
   TEBEG  =    0.0;   TEEND  =   0.0 temperature during run
   SMASS  =  -3.00    Nose mass-parameter (am)
   estimated Nose-frequenzy (Omega)   =  0.10E-29 period in steps = 0.13E+47 mass=  -0.297E-27a.u.
   SCALEE = 1.0000    scale energy and forces
   NPACO  =    256;   APACO  = 10.0  distance and # of slots for P.C.
   PSTRESS=    0.0 pullay stress

  Mass of Ions in am
   POMASS =  74.92
  Ionic Valenz
   ZVAL   =   5.00
  Atomic Wigner-Seitz radii
   RWIGS  =  -1.00
  virtual crystal weights 
   VCA    =   1.00
   NELECT =      10.0000    total number of electrons
   NUPDOWN=      -1.0000    fix difference up-down

 DOS related values:
   EMIN   =  10.00;   EMAX   =-10.00  energy-range for DOS
   EFERMI =   0.00;   METHOD = LEGACY      
   ISMEAR =     0;   SIGMA  =   0.01  broadening in eV -4-tet -1-fermi 0-gaus

 Electronic relaxation 2 (details)
   IALGO  =     38    algorithm
   LDIAG  =      T    sub-space diagonalisation (order eigenvalues)
   LSUBROT=      F    optimize rotation matrix (better conditioning)
   TURBO    =      0    0=normal 1=particle mesh
   IRESTART =      0    0=no restart 2=restart with 2 vectors
   NREBOOT  =      0    no. of reboots
   NMIN     =      0    reboot dimension
   EREF     =   0.00    reference energy to select bands
   IMIX   =      4    mixing-type and parameters
     AMIX     =   0.10;   BMIX     =  0.00
     AMIX_MAG =   0.40;   BMIX_MAG =  0.00
     AMIN     =   0.10
     WC   =   100.;   INIMIX=   1;  MIXPRE=   1;  MAXMIX= -45

 Intra band minimization:
   WEIMIN = 0.0000     energy-eigenvalue tresh-hold
   EBREAK =  0.16E-07  absolut break condition
   DEPER  =   0.30     relativ break condition  

   TIME   =   0.40     timestep for ELM

  volume/ion in A,a.u.               =      90.13       608.25
  Fermi-wavevector in a.u.,A,eV,Ry     =   0.624361  1.179871  5.303915  0.389827
  Thomas-Fermi vector in A             =   1.684891
 
 Write flags
   LWAVE        =      F    write WAVECAR
   LDOWNSAMPLE  =      F    k-point downsampling of WAVECAR
   LCHARG       =      F    write CHGCAR
   LVTOT        =      F    write LOCPOT, total local potential
   LVHAR        =      F    write LOCPOT, Hartree potential only
   LELF         =      F    write electronic localiz. function (ELF)
   LORBIT       =     10    0 simple, 1 ext, 2 COOP (PROOUT), +10 PAW based schemes


 Dipole corrections
   LMONO  =      F    monopole corrections only (constant potential shift)
   LDIPOL =      F    correct potential (dipole corrections)
   IDIPOL =      0    1-x, 2-y, 3-z, 4-all directions 
   EPSILON=  1.0000000 bulk dielectric constant

 Exchange correlation treatment:
   GGA     =    --    GGA type
   LEXCH   =     8    internal setting for exchange type
   LIBXC   =     F    Libxc                    
   VOSKOWN =     0    Vosko Wilk Nusair interpolation
   LHFCALC =     F    Hartree Fock is set to
   LHFONE  =     F    Hartree Fock one center treatment
   AEXX    =    0.0000 exact exchange contribution

 Linear response parameters
   LEPSILON=     T    determine dielectric tensor
   LRPA    =     F    only Hartree local field effects (RPA)
   LNABLA  =     F    use nabla operator in PAW spheres
   LVEL    =     F    velocity operator in full k-point grid
   CSHIFT  =0.1000    complex shift for real part using Kramers Kronig
   OMEGAMAX=  -1.0    maximum frequency
   DEG_THRESHOLD= 0.2000000E-02 threshold for treating states as degnerate
   RTIME   =   -0.100 relaxation time in fs
  (WPLASMAI=    0.000 imaginary part of plasma frequency in eV, 0.658/RTIME)
   DFIELD  = 0.0000000 0.0000000 0.0000000 field for delta impulse in time
 
  Optional k-point grid parameters
   LKPOINTS_OPT  =     F    use optional k-point grid
   KPOINTS_OPT_MODE=     1    mode for optional k-point grid
 
 Orbital magnetization related:
   ORBITALMAG=     F  switch on orbital magnetization
   LCHIMAG   =     F  perturbation theory with respect to B field
   DQ        =  0.001000  dq finite difference perturbation B field
   LLRAUG    =     F  two centre corrections for induced B field
   LBONE     =     F  B-component reconstruction in AE one-centre
   LVGVCALC  =     T  calculate vGv susceptibility
   LVGVAPPL  =     F  apply vGv susceptibility instead of pGv for G=0

 Random number generation:
   RANDOM_GENERATOR = DEFAULT
   PCG_SEED         = not used


--------------------------------------------------------------------------------------------------------


 Static calculation
 charge density and potential will be updated during run
 non-spin polarized calculation
 Variant of blocked Davidson
 Davidson routine will perform the subspace rotation
 perform sub-space diagonalisation
    after iterative eigenvector-optimisation
 modified Broyden-mixing scheme, WC =      100.0
 initial mixing is a Kerker type mixing with AMIX =  0.1000 and BMIX =      0.0001
 Hartree-type preconditioning will be used
 using additional bands           11
 reciprocal scheme for non local part
 use partial core corrections
 calculate Harris-corrections to forces 
   (improved forces if not selfconsistent)
 use gradient corrections 
 use of overlap-Matrix (Vanderbilt PP)
 Gauss-broadening in eV      SIGMA  =   0.01


--------------------------------------------------------------------------------------------------------


  energy-cutoff  :      234.79
  volume of cell :      180.27
      direct lattice vectors                 reciprocal lattice vectors
     3.606892539  0.000000000  0.000000000     0.277246962  0.160068608  0.000000000
    -1.803446269  3.123660567  0.000000000     0.000000000  0.320137217  0.000000000
     0.000000000  0.000000000 16.000000000     0.000000000  0.000000000  0.062500000

  length of vectors
     3.606892539  3.606892539 16.000000000     0.320137217  0.320137217  0.062500000


 
 k-points in units of 2pi/SCALE and weight: kpoints                                 
   0.00000000  0.00000000  0.00000000       0.006
   0.02132669  0.01231297  0.00000000       0.012
   0.00000000  0.02462594  0.00000000       0.012
  -0.02132669  0.01231297  0.00000000       0.012
   0.04265338  0.02462594  0.00000000       0.012
   0.00000000  0.04925188  0.00000000       0.012
  -0.04265338  0.02462594  0.00000000       0.012
   0.06398007  0.03693891  0.00000000       0.012
   0.00000000  0.07387782  0.00000000       0.012
  -0.06398007  0.03693891  0.00000000       0.012
   0.08530676  0.04925188  0.00000000       0.012
   0.00000000  0.09850376  0.00000000       0.012
  -0.08530676  0.04925188  0.00000000       0.012
   0.10663345  0.06156485  0.00000000       0.012
   0.00000000  0.12312970  0.00000000       0.012
  -0.10663345  0.06156485  0.00000000       0.012
   0.12796014  0.07387782  0.00000000       0.012
   0.00000000  0.14775564  0.00000000       0.012
  -0.12796014  0.07387782  0.00000000       0.012
   0.02132669  0.03693891  0.00000000       0.012
  -0.02132669  0.03693891  0.00000000       0.012
  -0.04265338  0.00000000  0.00000000       0.012
   0.04265338  0.04925188  0.00000000       0.012
  -0.02132669  0.06156485  0.00000000       0.012
  -0.06398007  0.01231297  0.00000000       0.012
  -0.04265338  0.04925188  0.00000000       0.012
   0.02132669  0.06156485  0.00000000       0.012
   0.06398007  0.01231297  0.00000000       0.012
   0.06398007  0.06156485  0.00000000       0.012
  -0.02132669  0.08619079  0.00000000       0.012
  -0.08530676  0.02462594  0.00000000       0.012
  -0.06398007  0.06156485  0.00000000       0.012
   0.02132669  0.08619079  0.00000000       0.012
   0.08530676  0.02462594  0.00000000       0.012
   0.08530676  0.07387782  0.00000000       0.012
  -0.02132669  0.11081673  0.00000000       0.012
  -0.10663345  0.03693891  0.00000000       0.012
  -0.08530676  0.07387782  0.00000000       0.012
   0.02132669  0.11081673  0.00000000       0.012
   0.10663345  0.03693891  0.00000000       0.012
   0.10663345  0.08619079  0.00000000       0.012
  -0.02132669  0.13544267  0.00000000       0.012
  -0.12796014  0.04925188  0.00000000       0.012
  -0.10663345  0.08619079  0.00000000       0.012
   0.02132669  0.13544267  0.00000000       0.012
   0.12796014  0.04925188  0.00000000       0.012
   0.12796014  0.09850376  0.00000000       0.012
  -0.02132669 -0.16006861  0.00000000       0.012
   0.12796014  0.22163346  0.00000000       0.012
   0.04265338  0.07387782  0.00000000       0.012
  -0.04265338  0.07387782  0.00000000       0.012
  -0.08530676  0.00000000  0.00000000       0.012
   0.06398007  0.08619079  0.00000000       0.012
  -0.04265338  0.09850376  0.00000000       0.012
  -0.10663345  0.01231297  0.00000000       0.012
  -0.06398007  0.08619079  0.00000000       0.012
   0.04265338  0.09850376  0.00000000       0.012
   0.10663345  0.01231297  0.00000000       0.012
   0.08530676  0.09850376  0.00000000       0.012
  -0.04265338  0.12312970  0.00000000       0.012
  -0.12796014  0.02462594  0.00000000       0.012
  -0.08530676  0.09850376  0.00000000       0.012
   0.04265338  0.12312970  0.00000000       0.012
   0.12796014  0.02462594  0.00000000       0.012
   0.10663345  0.11081673  0.00000000       0.012
  -0.04265338 -0.17238158  0.00000000       0.012
   0.12796014  0.19700752  0.00000000       0.012
  -0.10663345 -0.20932049  0.00000000       0.012
   0.04265338  0.14775564  0.00000000       0.012
  -0.12796014 -0.12312970  0.00000000       0.012
   0.06398007  0.11081673  0.00000000       0.012
  -0.06398007  0.11081673  0.00000000       0.012
  -0.12796014  0.00000000  0.00000000       0.012
   0.08530676  0.12312970  0.00000000       0.012
  -0.06398007 -0.18469455  0.00000000       0.012
   0.12796014  0.17238158  0.00000000       0.012
  -0.08530676 -0.19700752  0.00000000       0.012
   0.06398007  0.13544267  0.00000000       0.012
  -0.12796014 -0.14775564  0.00000000       0.012
   0.10663345  0.13544267  0.00000000       0.012
  -0.06398007 -0.16006861  0.00000000       0.012
   0.10663345  0.18469455  0.00000000       0.012
   0.08530676  0.14775564  0.00000000       0.012
  -0.08530676 -0.17238158  0.00000000       0.012
   0.10663345  0.16006861  0.00000000       0.012
 
 k-points in reciprocal lattice and weights: kpoints                                 
   0.00000000  0.00000000  0.00000000       0.006
   0.07692308  0.00000000  0.00000000       0.012
   0.00000000  0.07692308  0.00000000       0.012
  -0.07692308  0.07692308  0.00000000       0.012
   0.15384615  0.00000000  0.00000000       0.012
   0.00000000  0.15384615  0.00000000       0.012
  -0.15384615  0.15384615  0.00000000       0.012
   0.23076923 -0.00000000  0.00000000       0.012
   0.00000000  0.23076923  0.00000000       0.012
  -0.23076923  0.23076923  0.00000000       0.012
   0.30769231  0.00000000  0.00000000       0.012
   0.00000000  0.30769231  0.00000000       0.012
  -0.30769231  0.30769231  0.00000000       0.012
   0.38461538  0.00000000  0.00000000       0.012
   0.00000000  0.38461538  0.00000000       0.012
  -0.38461538  0.38461538  0.00000000       0.012
   0.46153846 -0.00000000  0.00000000       0.012
   0.00000000  0.46153846  0.00000000       0.012
  -0.46153846  0.46153846  0.00000000       0.012
   0.07692308  0.07692308  0.00000000       0.012
  -0.07692308  0.15384615  0.00000000       0.012
  -0.15384615  0.07692308  0.00000000       0.012
   0.15384615  0.07692308  0.00000000       0.012
  -0.07692308  0.23076923  0.00000000       0.012
  -0.23076923  0.15384615  0.00000000       0.012
  -0.15384615  0.23076923  0.00000000       0.012
   0.07692308  0.15384615  0.00000000       0.012
   0.23076923 -0.07692308  0.00000000       0.012
   0.23076923  0.07692308  0.00000000       0.012
  -0.07692308  0.30769231  0.00000000       0.012
  -0.30769231  0.23076923  0.00000000       0.012
  -0.23076923  0.30769231  0.00000000       0.012
   0.07692308  0.23076923  0.00000000       0.012
   0.30769231 -0.07692308  0.00000000       0.012
   0.30769231  0.07692308  0.00000000       0.012
  -0.07692308  0.38461538  0.00000000       0.012
  -0.38461538  0.30769231  0.00000000       0.012
  -0.30769231  0.38461538  0.00000000       0.012
   0.07692308  0.30769231  0.00000000       0.012
   0.38461538 -0.07692308  0.00000000       0.012
   0.38461538  0.07692308  0.00000000       0.012
  -0.07692308  0.46153846  0.00000000       0.012
  -0.46153846  0.38461538  0.00000000       0.012
  -0.38461538  0.46153846  0.00000000       0.012
   0.07692308  0.38461538  0.00000000       0.012
   0.46153846 -0.07692308  0.00000000       0.012
   0.46153846  0.07692308  0.00000000       0.012
  -0.07692308 -0.46153846  0.00000000       0.012
   0.46153846  0.46153846  0.00000000       0.012
   0.15384615  0.15384615  0.00000000       0.012
  -0.15384615  0.30769231  0.00000000       0.012
  -0.30769231  0.15384615  0.00000000       0.012
   0.23076923  0.15384615  0.00000000       0.012
  -0.15384615  0.38461538  0.00000000       0.012
  -0.38461538  0.23076923  0.00000000       0.012
  -0.23076923  0.38461538  0.00000000       0.012
   0.15384615  0.23076923  0.00000000       0.012
   0.38461538 -0.15384615  0.00000000       0.012
   0.30769231  0.15384615  0.00000000       0.012
  -0.15384615  0.46153846  0.00000000       0.012
  -0.46153846  0.30769231  0.00000000       0.012
  -0.30769231  0.46153846  0.00000000       0.012
   0.15384615  0.30769231  0.00000000       0.012
   0.46153846 -0.15384615  0.00000000       0.012
   0.38461538  0.15384615  0.00000000       0.012
  -0.15384615 -0.46153846  0.00000000       0.012
   0.46153846  0.38461538  0.00000000       0.012
  -0.38461538 -0.46153846  0.00000000       0.012
   0.15384615  0.38461538  0.00000000       0.012
  -0.46153846 -0.15384615  0.00000000       0.012
   0.23076923  0.23076923  0.00000000       0.012
  -0.23076923  0.46153846  0.00000000       0.012
  -0.46153846  0.23076923  0.00000000       0.012
   0.30769231  0.23076923  0.00000000       0.012
  -0.23076923 -0.46153846  0.00000000       0.012
   0.46153846  0.30769231  0.00000000       0.012
  -0.30769231 -0.46153846  0.00000000       0.012
   0.23076923  0.30769231  0.00000000       0.012
  -0.46153846 -0.23076923  0.00000000       0.012
   0.38461538  0.23076923  0.00000000       0.012
  -0.23076923 -0.38461538  0.00000000       0.012
   0.38461538  0.38461538  0.00000000       0.012
   0.30769231  0.30769231  0.00000000       0.012
  -0.30769231 -0.38461538  0.00000000       0.012
   0.38461538  0.30769231  0.00000000       0.012
 
 position of ions in fractional coordinates (direct lattice) 
   0.66862710  0.33333333  0.45634314
   0.33137290  0.66666667  0.54365686
 
 position of ions in cartesian coordinates  (Angst):
   1.81051734  1.04122019  7.30149017
  -0.00707107  2.08244038  8.69850983
 


--------------------------------------------------------------------------------------------------------


 k-point   1 :   0.0000 0.0000 0.0000  plane waves:    1485
 k-point   2 :   0.0769 0.0000 0.0000  plane waves:    1493
 k-point   3 :   0.0000 0.0769 0.0000  plane waves:    1493
 k-point   4 :  -0.0769 0.0769 0.0000  plane waves:    1493
 k-point   5 :   0.1538 0.0000 0.0000  plane waves:    1498
 k-point   6 :   0.0000 0.1538 0.0000  plane waves:    1498
 k-point   7 :  -0.1538 0.1538 0.0000  plane waves:    1498
 k-point   8 :   0.2308-0.0000 0.0000  plane waves:    1484
 k-point   9 :   0.0000 0.2308 0.0000  plane waves:    1484
 k-point  10 :  -0.2308 0.2308 0.0000  plane waves:    1484
 k-point  11 :   0.3077 0.0000 0.0000  plane waves:    1476
 k-point  12 :   0.0000 0.3077 0.0000  plane waves:    1476
 k-point  13 :  -0.3077 0.3077 0.0000  plane waves:    1476
 k-point  14 :   0.3846 0.0000 0.0000  plane waves:    1462
 k-point  15 :   0.0000 0.3846 0.0000  plane waves:    1462
 k-point  16 :  -0.3846 0.3846 0.0000  plane waves:    1462
 k-point  17 :   0.4615-0.0000 0.0000  plane waves:    1452
 k-point  18 :   0.0000 0.4615 0.0000  plane waves:    1452
 k-point  19 :  -0.4615 0.4615 0.0000  plane waves:    1452
 k-point  20 :   0.0769 0.0769 0.0000  plane waves:    1503
 k-point  21 :  -0.0769 0.1538 0.0000  plane waves:    1503
 k-point  22 :  -0.1538 0.0769 0.0000  plane waves:    1503
 k-point  23 :   0.1538 0.0769 0.0000  plane waves:    1493
 k-point  24 :  -0.0769 0.2308 0.0000  plane waves:    1493
 k-point  25 :  -0.2308 0.1538 0.0000  plane waves:    1493
 k-point  26 :  -0.1538 0.2308 0.0000  plane waves:    1493
 k-point  27 :   0.0769 0.1538 0.0000  plane waves:    1493
 k-point  28 :   0.2308-0.0769 0.0000  plane waves:    1493
 k-point  29 :   0.2308 0.0769 0.0000  plane waves:    1489
 k-point  30 :  -0.0769 0.3077 0.0000  plane waves:    1489
 k-point  31 :  -0.3077 0.2308 0.0000  plane waves:    1489
 k-point  32 :  -0.2308 0.3077 0.0000  plane waves:    1489
 k-point  33 :   0.0769 0.2308 0.0000  plane waves:    1489
 k-point  34 :   0.3077-0.0769 0.0000  plane waves:    1489
 k-point  35 :   0.3077 0.0769 0.0000  plane waves:    1464
 k-point  36 :  -0.0769 0.3846 0.0000  plane waves:    1464
 k-point  37 :  -0.3846 0.3077 0.0000  plane waves:    1464
 k-point  38 :  -0.3077 0.3846 0.0000  plane waves:    1464
 k-point  39 :   0.0769 0.3077 0.0000  plane waves:    1464
 k-point  40 :   0.3846-0.0769 0.0000  plane waves:    1464
 k-point  41 :   0.3846 0.0769 0.0000  plane waves:    1457
 k-point  42 :  -0.0769 0.4615 0.0000  plane waves:    1457
 k-point  43 :  -0.4615 0.3846 0.0000  plane waves:    1457
 k-point  44 :  -0.3846 0.4615 0.0000  plane waves:    1457
 k-point  45 :   0.0769 0.3846 0.0000  plane waves:    1457
 k-point  46 :   0.4615-0.0769 0.0000  plane waves:    1457
 k-point  47 :   0.4615 0.0769 0.0000  plane waves:    1452
 k-point  48 :  -0.0769-0.4615 0.0000  plane waves:    1452
 k-point  49 :   0.4615 0.4615 0.0000  plane waves:    1452
 k-point  50 :   0.1538 0.1538 0.0000  plane waves:    1493
 k-point  51 :  -0.1538 0.3077 0.0000  plane waves:    1493
 k-point  52 :  -0.3077 0.1538 0.0000  plane waves:    1493
 k-point  53 :   0.2308 0.1538 0.0000  plane waves:    1463
 k-point  54 :  -0.1538 0.3846 0.0000  plane waves:    1463
 k-point  55 :  -0.3846 0.2308 0.0000  plane waves:    1463
 k-point  56 :  -0.2308 0.3846 0.0000  plane waves:    1463
 k-point  57 :   0.1538 0.2308 0.0000  plane waves:    1463
 k-point  58 :   0.3846-0.1538 0.0000  plane waves:    1463
 k-point  59 :   0.3077 0.1538 0.0000  plane waves:    1464
 k-point  60 :  -0.1538 0.4615 0.0000  plane waves:    1464
 k-point  61 :  -0.4615 0.3077 0.0000  plane waves:    1464
 k-point  62 :  -0.3077 0.4615 0.0000  plane waves:    1464
 k-point  63 :   0.1538 0.3077 0.0000  plane waves:    1464
 k-point  64 :   0.4615-0.1538 0.0000  plane waves:    1464
 k-point  65 :   0.3846 0.1538 0.0000  plane waves:    1460
 k-point  66 :  -0.1538-0.4615 0.0000  plane waves:    1460
 k-point  67 :   0.4615 0.3846 0.0000  plane waves:    1460
 k-point  68 :  -0.3846-0.4615 0.0000  plane waves:    1460
 k-point  69 :   0.1538 0.3846 0.0000  plane waves:    1460
 k-point  70 :  -0.4615-0.1538 0.0000  plane waves:    1460
 k-point  71 :   0.2308 0.2308 0.0000  plane waves:    1459
 k-point  72 :  -0.2308 0.4615 0.0000  plane waves:    1459
 k-point  73 :  -0.4615 0.2308 0.0000  plane waves:    1459
 k-point  74 :   0.3077 0.2308 0.0000  plane waves:    1456
 k-point  75 :  -0.2308-0.4615 0.0000  plane waves:    1456
 k-point  76 :   0.4615 0.3077 0.0000  plane waves:    1456
 k-point  77 :  -0.3077-0.4615 0.0000  plane waves:    1456
 k-point  78 :   0.2308 0.3077 0.0000  plane waves:    1456
 k-point  79 :  -0.4615-0.2308 0.0000  plane waves:    1456
 k-point  80 :   0.3846 0.2308 0.0000  plane waves:    1458
 k-point  81 :  -0.2308-0.3846 0.0000  plane waves:    1458
 k-point  82 :   0.3846 0.3846 0.0000  plane waves:    1458
 k-point  83 :   0.3077 0.3077 0.0000  plane waves:    1476
 k-point  84 :  -0.3077-0.3846 0.0000  plane waves:    1476
 k-point  85 :   0.3846 0.3077 0.0000  plane waves:    1476

 maximum and minimum number of plane-waves per node :      1503     1452

 maximum number of plane-waves:      1503
 maximum index in each direction: 
   IXMAX=    4   IYMAX=    4   IZMAX=   19
   IXMIN=   -4   IYMIN=   -4   IZMIN=  -19


 serial   3D FFT for wavefunctions
 parallel 3D FFT for charge:
    minimum data exchange during FFTs selected (reduces bandwidth)


 total amount of memory used by VASP MPI-rank0    49542. kBytes
=======================================================================

   base      :      30000. kBytes
   nonl-proj :      13343. kBytes
   fftplans  :       2217. kBytes
   grid      :       1878. kBytes
   one-center:         16. kBytes
   wavefun   :       2088. kBytes
 
     INWAV:  cpu time      0.0000: real time      0.0004
 Broyden mixing: mesh for mixing (old mesh)
   NGX =  9   NGY =  9   NGZ = 39
  (NGX  = 36   NGY  = 36   NGZ  =160)
  gives a total of   3159 points

 initial charge density was supplied:
 charge density of overlapping atoms calculated
 number of electron      10.0000000 magnetization 
 keeping initial charge density in first step


--------------------------------------------------------------------------------------------------------


 Maximum index for augmentation-charges         3103 (set IRDMAX)


--------------------------------------------------------------------------------------------------------


 First call to EWALD:  gamma=   0.314
 Maximum number of real-space cells 5x 5x 1
 Maximum number of reciprocal cells 2x 2x 7

    FEWALD:  cpu time      0.0014: real time      0.0014


--------------------------------------- Ionic step        1  -------------------------------------------




--------------------------------------- Iteration      1(   1)  ---------------------------------------


    POTLOK:  cpu time      0.0164: real time      0.1269
    SETDIJ:  cpu time      0.1559: real time      0.1559
     EDDAV:  cpu time      0.3494: real time      0.3496
       DOS:  cpu time      0.0018: real time      0.0018
    --------------------------------------------
      LOOP:  cpu time      0.5234: real time      0.6342

 eigenvalue-minimisations  :  2720
 total energy-change (2. order) : 0.2293282E+02  (-0.2563291E+03)
 number of electron      10.0000000 magnetization 
 augmentation part       10.0000000 magnetization 

 Free energy of the ion-electron system (eV)
  ---------------------------------------------------
  alpha Z        PSCENC =         5.26383816
  Ewald energy   TEWEN  =       378.22288003
  -Hartree energ DENC   =      -664.28083108
  -exchange      EXHF   =         0.00000000
  -V(xc)+E(xc)   XCENC  =       -23.94410290
  PAW double counting   =       294.12882363     -251.25503797
  entropy T*S    EENTRO =        -0.00021422
  eigenvalues    EBANDS =       -55.56646773
  atomic energy  EATOM  =       340.36393574
  Solvation  Ediel_sol  =         0.00000000
  ---------------------------------------------------
  free energy    TOTEN  =        22.93282367 eV

  energy without entropy =       22.93303789  energy(sigma->0) =       22.93293078


--------------------------------------------------------------------------------------------------------




 average (electrostatic) potential at core
  the test charge radii are     1.0621
  (the norm of the test charge is              1.0000)
       1 -57.9273       2 -57.9273
 
 
 
 E-fermi :   2.0015     XC(G=0):  -3.3462     alpha+bet : -2.4472

 Fermi energy:         2.0015002717

 k-point     1 :       0.0000    0.0000    0.0000
  band No.  band energies     occupation 
      1     -15.6582      2.00000
      2      -8.5607      2.00000
      3      -2.0128      2.00000
      4       0.0391      2.00000
      5       1.2915      2.00000
      6       1.9810      1.99621
      7       2.2946      0.00000
      8       3.8977      0.00000
      9       4.2401      0.00000
     10       5.5538      0.00000
     11       6.4138      0.00000
     12       8.7934      0.00000
     13       9.6454      0.00000
     14      10.4147      0.00000
     15      13.3792      0.00000
     16      13.9555      0.00000

 k-point     2 :       0.0769    0.0000    0.0000
  band No.  band energies     occupation 
      1     -15.6880      2.00000
      2      -8.8213      2.00000
      3      -2.9476      2.00000
      4      -0.9232      2.00000
      5       1.0930      2.00000
      6       2.0137      0.08509
      7       2.4436      0.00000
      8       4.1860      0.00000
      9       4.8471      0.00000
     10       6.1902      0.00000
     11       7.5806      0.00000
     12       9.0779      0.00000
     13      11.1679      0.00000
     14      12.1399      0.00000
     15      12.6935      0.00000
     16      14.3886      0.00000

 k-point     3 :       0.0000    0.0769    0.0000
  band No.  band energies     occupation 
      1     -15.7530      2.00000
      2      -8.9271      2.00000
      3      -1.1872      2.00000
      4      -0.5651      2.00000
      5       1.6306      2.00000
      6       2.4157      0.00000
      7       2.8019      0.00000
      8       4.2828      0.00000
      9       4.7781      0.00000
     10       5.5999      0.00000
     11       8.4467      0.00000
     12       8.8461      0.00000
     13       9.8896      0.00000
     14      11.0474      0.00000
     15      12.5853      0.00000
     16      13.0514      0.00000

 k-point     4 :      -0.0769    0.0769    0.0000
  band No.  band energies     occupation 
      1     -15.4497      2.00000
      2      -8.0697      2.00000
      3      -2.1243      2.00000
      4       0.1752      2.00000
      5       2.2434      0.00000
      6       2.4001      0.00000
      7       2.9697      0.00000
      8       3.8565      0.00000
      9       5.1616      0.00000
     10       5.7292      0.00000
     11       8.2007      0.00000
     12       8.7723      0.00000
     13       9.7118      0.00000
     14      11.2383      0.00000
     15      12.2038      0.00000
     16      13.2775      0.00000

 k-point     5 :       0.1538    0.0000    0.0000
  band No.  band energies     occupation 
      1     -15.6321      2.00000
      2      -8.6656      2.00000
      3      -2.0994      2.00000
      4      -1.5811      2.00000
      5       1.0146      2.00000
      6       2.4277      0.00000
      7       2.6658      0.00000
      8       4.0345      0.00000
      9       4.7392      0.00000
     10       5.3777      0.00000
     11       7.2268      0.00000
     12       8.9607      0.00000
     13       9.5577      0.00000
     14      10.6041      0.00000
     15      11.8163      0.00000
     16      13.3174      0.00000

 k-point     6 :       0.0000    0.1538    0.0000
  band No.  band energies     occupation 
      1     -15.4382      2.00000
      2      -8.7117      2.00000
      3      -2.7858      2.00000
      4      -1.3809      2.00000
      5       1.0625      2.00000
      6       2.3699      0.00000
      7       2.7748      0.00000
      8       4.2180      0.00000
      9       4.8169      0.00000
     10       5.6164      0.00000
     11       6.2439      0.00000
     12       9.6838      0.00000
     13      10.5449      0.00000
     14      12.0511      0.00000
     15      12.7464      0.00000
     16      13.6258      0.00000

 k-point     7 :      -0.1538    0.1538    0.0000
  band No.  band energies     occupation 
      1     -15.6559      2.00000
      2      -8.2291      2.00000
      3      -3.2928      2.00000
      4      -0.7354      2.00000
      5       0.1478      2.00000
      6       2.4245      0.00000
      7       2.7778      0.00000
      8       4.0485      0.00000
      9       5.1361      0.00000
     10       6.2871      0.00000
     11       8.1402      0.00000
     12       8.6811      0.00000
     13      10.0534      0.00000
     14      11.4703      0.00000
     15      11.8561      0.00000
     16      13.4709      0.00000

 k-point     8 :       0.2308   -0.0000    0.0000
  band No.  band energies     occupation 
      1     -15.2647      2.00000
      2      -7.9706      2.00000
      3      -4.0784      2.00000
      4      -1.1343      2.00000
      5       2.6053      0.00000
      6       2.9697      0.00000
      7       3.5510      0.00000
      8       4.6866      0.00000
      9       5.3587      0.00000
     10       6.1703      0.00000
     11       8.1713      0.00000
     12      10.1436      0.00000
     13      11.2214      0.00000
     14      12.3683      0.00000
     15      12.5321      0.00000
     16      13.9412      0.00000

 k-point     9 :       0.0000    0.2308    0.0000
  band No.  band energies     occupation 
      1     -14.6457      2.00000
      2      -9.1028      2.00000
      3      -4.5839      2.00000
      4      -1.9492      2.00000
      5       2.4008      0.00000
      6       2.6315      0.00000
      7       3.3450      0.00000
      8       4.5772      0.00000
      9       5.9363      0.00000
     10       6.5957      0.00000
     11       8.2555      0.00000
     12       9.5573      0.00000
     13      10.3293      0.00000
     14      11.7456      0.00000
     15      12.1269      0.00000
     16      14.4461      0.00000

 k-point    10 :      -0.2308    0.2308    0.0000
  band No.  band energies     occupation 
      1     -15.1939      2.00000
      2      -8.7239      2.00000
      3      -4.6054      2.00000
      4      -0.8905      2.00000
      5       0.6659      2.00000
      6       2.1841      0.00000
      7       3.0376      0.00000
      8       3.3745      0.00000
      9       5.3803      0.00000
     10       5.9670      0.00000
     11       8.3871      0.00000
     12       9.3248      0.00000
     13      10.0917      0.00000
     14      11.1230      0.00000
     15      12.6773      0.00000
     16      13.8111      0.00000

 k-point    11 :       0.3077    0.0000    0.0000
  band No.  band energies     occupation 
      1     -13.3689      2.00000
      2      -7.8564      2.00000
      3      -5.0536      2.00000
      4      -2.1116      2.00000
      5       0.3656      2.00000
      6       1.8274      2.00000
      7       3.4748      0.00000
      8       4.0968      0.00000
      9       5.6535      0.00000
     10       6.9339      0.00000
     11       7.4951      0.00000
     12      10.0455      0.00000
     13      10.4218      0.00000
     14      10.9798      0.00000
     15      11.9147      0.00000
     16      13.1997      0.00000

 k-point    12 :       0.0000    0.3077    0.0000
  band No.  band energies     occupation 
      1     -14.3924      2.00000
      2      -6.9257      2.00000
      3      -3.6214      2.00000
      4      -1.3159      2.00000
      5       0.5221      2.00000
      6       1.1529      2.00000
      7       3.5792      0.00000
      8       4.1003      0.00000
      9       4.9124      0.00000
     10       5.9224      0.00000
     11       7.5416      0.00000
     12       7.8195      0.00000
     13      10.2246      0.00000
     14      10.9697      0.00000
     15      12.4698      0.00000
     16      12.9078      0.00000

 k-point    13 :      -0.3077    0.3077    0.0000
  band No.  band energies     occupation 
      1     -14.2687      2.00000
      2      -7.2885      2.00000
      3      -5.5086      2.00000
      4      -0.9752      2.00000
      5       1.2475      2.00000
      6       3.5383      0.00000
      7       3.8993      0.00000
      8       5.2343      0.00000
      9       5.6549      0.00000
     10       6.2277      0.00000
     11       7.4124      0.00000
     12       9.4490      0.00000
     13      10.5581      0.00000
     14      11.4584      0.00000
     15      12.1689      0.00000
     16      13.0555      0.00000

 k-point    14 :       0.3846    0.0000    0.0000
  band No.  band energies     occupation 
      1     -12.6742      2.00000
      2      -9.7945      2.00000
      3      -5.1399      2.00000
      4      -1.3260      2.00000
      5       0.7786      2.00000
      6       2.8069      0.00000
      7       4.6010      0.00000
      8       5.1976      0.00000
      9       5.8911      0.00000
     10       6.3202      0.00000
     11       8.1225      0.00000
     12       8.8169      0.00000
     13       9.4974      0.00000
     14      11.0449      0.00000
     15      12.0177      0.00000
     16      12.3662      0.00000

 k-point    15 :       0.0000    0.3846    0.0000
  band No.  band energies     occupation 
      1     -12.8148      2.00000
      2      -8.4133      2.00000
      3      -4.9636      2.00000
      4      -0.5218      2.00000
      5      -0.3392      2.00000
      6       2.0292      0.00009
      7       3.8082      0.00000
      8       4.7376      0.00000
      9       4.9317      0.00000
     10       6.3562      0.00000
     11       8.0538      0.00000
     12       8.7162      0.00000
     13      10.7662      0.00000
     14      10.8964      0.00000
     15      11.9380      0.00000
     16      12.3108      0.00000

 k-point    16 :      -0.3846    0.3846    0.0000
  band No.  band energies     occupation 
      1     -13.2941      2.00000
      2      -8.3289      2.00000
      3      -5.0917      2.00000
      4      -1.4192      2.00000
      5       0.0721      2.00000
      6       1.2039      2.00000
      7       2.6711      0.00000
      8       4.6742      0.00000
      9       5.1292      0.00000
     10       6.9839      0.00000
     11       7.7249      0.00000
     12       8.8478      0.00000
     13      10.0980      0.00000
     14      11.0021      0.00000
     15      11.8286      0.00000
     16      12.8848      0.00000

 k-point    17 :       0.4615   -0.0000    0.0000
  band No.  band energies     occupation 
      1     -12.4412      2.00000
      2     -10.2427      2.00000
      3      -4.6760      2.00000
      4      -1.7524      2.00000
      5       0.1341      2.00000
      6       1.9647      2.00000
      7       3.8969      0.00000
      8       5.0970      0.00000
      9       5.7108      0.00000
     10       6.6200      0.00000
     11       7.6971      0.00000
     12       8.4483      0.00000
     13       8.9754      0.00000
     14       9.4995      0.00000
     15      11.8482      0.00000
     16      12.7812      0.00000

 k-point    18 :       0.0000    0.4615    0.0000
  band No.  band energies     occupation 
      1     -12.1253      2.00000
      2      -9.2002      2.00000
      3      -5.2611      2.00000
      4      -1.7959      2.00000
      5       0.4885      2.00000
      6       2.3660      0.00000
      7       3.5143      0.00000
      8       5.8249      0.00000
      9       6.3259      0.00000
     10       7.1741      0.00000
     11       7.5723      0.00000
     12       8.4207      0.00000
     13       9.0427      0.00000
     14       9.9048      0.00000
     15      12.6478      0.00000
     16      13.9208      0.00000

 k-point    19 :      -0.4615    0.4615    0.0000
  band No.  band energies     occupation 
      1     -12.5682      2.00000
      2      -9.3980      2.00000
      3      -4.8321      2.00000
      4      -2.6419      2.00000
      5      -0.1286      2.00000
      6       2.8367      0.00000
      7       4.0318      0.00000
      8       5.7155      0.00000
      9       6.1512      0.00000
     10       6.8370      0.00000
     11       7.4320      0.00000
     12       7.9410      0.00000
     13       8.6110      0.00000
     14       9.9068      0.00000
     15      11.2842      0.00000
     16      12.8725      0.00000

 k-point    20 :       0.0769    0.0769    0.0000
  band No.  band energies     occupation 
      1     -15.4689      2.00000
      2      -8.2926      2.00000
      3      -2.6240      2.00000
      4      -0.4477      2.00000
      5       0.7224      2.00000
      6       2.1753      0.00000
      7       2.5193      0.00000
      8       3.4667      0.00000
      9       4.6417      0.00000
     10       5.4831      0.00000
     11       6.7748      0.00000
     12       7.6627      0.00000
     13      10.1343      0.00000
     14      10.9862      0.00000
     15      12.2892      0.00000
     16      13.6992      0.00000

 k-point    21 :      -0.0769    0.1538    0.0000
  band No.  band energies     occupation 
      1     -15.5831      2.00000
      2      -7.8271      2.00000
      3      -2.5369      2.00000
      4      -1.0576      2.00000
      5       1.1047      2.00000
      6       2.3987      0.00000
      7       2.7455      0.00000
      8       4.4702      0.00000
      9       5.2489      0.00000
     10       5.9059      0.00000
     11       8.1363      0.00000
     12       8.6686      0.00000
     13      10.8064      0.00000
     14      11.7970      0.00000
     15      13.5864      0.00000
     16      14.1847      0.00000

 k-point    22 :      -0.1538    0.0769    0.0000
  band No.  band energies     occupation 
      1     -15.8118      2.00000
      2      -7.9622      2.00000
      3      -2.3846      2.00000
      4      -1.0108      2.00000
      5       0.7144      2.00000
      6       2.4438      0.00000
      7       2.6981      0.00000
      8       3.8053      0.00000
      9       5.5342      0.00000
     10       6.0934      0.00000
     11       7.0857      0.00000
     12       8.7998      0.00000
     13       9.5687      0.00000
     14      10.8761      0.00000
     15      12.1134      0.00000
     16      15.3644      0.00000

 k-point    23 :       0.1538    0.0769    0.0000
  band No.  band energies     occupation 
      1     -15.1152      2.00000
      2      -7.3113      2.00000
      3      -3.8868      2.00000
      4      -0.8159      2.00000
      5       1.0884      2.00000
      6       2.5778      0.00000
      7       3.0617      0.00000
      8       4.3027      0.00000
      9       4.9951      0.00000
     10       6.5296      0.00000
     11       7.6549      0.00000
     12       9.0590      0.00000
     13       9.3904      0.00000
     14      11.2912      0.00000
     15      12.2532      0.00000
     16      12.9341      0.00000

 k-point    24 :      -0.0769    0.2308    0.0000
  band No.  band energies     occupation 
      1     -14.8850      2.00000
      2      -8.4251      2.00000
      3      -4.1060      2.00000
      4      -1.2248      2.00000
      5       0.7295      2.00000
      6       2.6200      0.00000
      7       3.2966      0.00000
      8       4.9934      0.00000
      9       5.3060      0.00000
     10       6.1477      0.00000
     11       7.1116      0.00000
     12       8.8496      0.00000
     13      10.7964      0.00000
     14      11.3245      0.00000
     15      12.7290      0.00000
     16      13.8238      0.00000

 k-point    25 :      -0.2308    0.1538    0.0000
  band No.  band energies     occupation 
      1     -15.1822      2.00000
      2      -7.0736      2.00000
      3      -3.0083      2.00000
      4      -0.7905      2.00000
      5       0.2624      2.00000
      6       2.7328      0.00000
      7       3.0304      0.00000
      8       4.3993      0.00000
      9       4.8225      0.00000
     10       5.7820      0.00000
     11       6.1628      0.00000
     12       9.1269      0.00000
     13      10.4683      0.00000
     14      11.1194      0.00000
     15      11.8816      0.00000
     16      13.6994      0.00000

 k-point    26 :      -0.1538    0.2308    0.0000
  band No.  band energies     occupation 
      1     -15.1032      2.00000
      2      -8.0041      2.00000
      3      -3.8599      2.00000
      4      -1.9103      2.00000
      5       0.7841      2.00000
      6       2.3810      0.00000
      7       2.9598      0.00000
      8       3.0729      0.00000
      9       4.6527      0.00000
     10       6.2109      0.00000
     11       8.3591      0.00000
     12       9.4372      0.00000
     13      10.6832      0.00000
     14      11.6963      0.00000
     15      13.1594      0.00000
     16      14.9330      0.00000

 k-point    27 :       0.0769    0.1538    0.0000
  band No.  band energies     occupation 
      1     -15.3585      2.00000
      2      -8.3846      2.00000
      3      -3.9325      2.00000
      4      -0.8797      2.00000
      5       0.3271      2.00000
      6       2.7151      0.00000
      7       3.0961      0.00000
      8       4.8005      0.00000
      9       5.5478      0.00000
     10       6.3958      0.00000
     11       8.5751      0.00000
     12       9.7453      0.00000
     13      10.4669      0.00000
     14      11.8450      0.00000
     15      12.9355      0.00000
     16      13.7610      0.00000

 k-point    28 :       0.2308   -0.0769    0.0000
  band No.  band energies     occupation 
      1     -15.1453      2.00000
      2      -7.4922      2.00000
      3      -4.0694      2.00000
      4      -1.6995      2.00000
      5       0.7864      2.00000
      6       2.6872      0.00000
      7       3.0968      0.00000
      8       5.0319      0.00000
      9       5.5386      0.00000
     10       6.1207      0.00000
     11       6.5166      0.00000
     12       8.3740      0.00000
     13      11.0695      0.00000
     14      12.8697      0.00000
     15      13.3177      0.00000
     16      14.1882      0.00000

 k-point    29 :       0.2308    0.0769    0.0000
  band No.  band energies     occupation 
      1     -14.3651      2.00000
      2      -7.7181      2.00000
      3      -3.8873      2.00000
      4      -1.9613      2.00000
      5       1.4153      2.00000
      6       2.5474      0.00000
      7       3.3073      0.00000
      8       3.8592      0.00000
      9       5.6730      0.00000
     10       6.0426      0.00000
     11       8.6622      0.00000
     12       9.1757      0.00000
     13       9.8489      0.00000
     14      11.0114      0.00000
     15      12.1201      0.00000
     16      12.8047      0.00000

 k-point    30 :      -0.0769    0.3077    0.0000
  band No.  band energies     occupation 
      1     -14.4312      2.00000
      2      -7.3591      2.00000
      3      -4.5502      2.00000
      4      -2.0622      2.00000
      5      -0.3999      2.00000
      6       2.0011      1.04076
      7       3.4013      0.00000
      8       3.8221      0.00000
      9       5.5966      0.00000
     10       6.3396      0.00000
     11       6.9165      0.00000
     12       9.5803      0.00000
     13      10.3986      0.00000
     14      11.6489      0.00000
     15      12.1748      0.00000
     16      12.6464      0.00000

 k-point    31 :      -0.3077    0.2308    0.0000
  band No.  band energies     occupation 
      1     -14.3520      2.00000
      2      -8.5543      2.00000
      3      -4.7865      2.00000
      4      -1.7033      2.00000
      5      -1.1230      2.00000
      6       2.0545      0.00000
      7       3.2848      0.00000
      8       3.6512      0.00000
      9       5.3811      0.00000
     10       5.8212      0.00000
     11       7.0918      0.00000
     12       9.4504      0.00000
     13      10.0227      0.00000
     14      11.0434      0.00000
     15      11.4136      0.00000
     16      12.3801      0.00000

 k-point    32 :      -0.2308    0.3077    0.0000
  band No.  band energies     occupation 
      1     -14.5698      2.00000
      2      -6.7189      2.00000
      3      -3.7241      2.00000
      4      -0.9489      2.00000
      5       2.1533      0.00000
      6       3.5178      0.00000
      7       3.8991      0.00000
      8       4.8320      0.00000
      9       5.4112      0.00000
     10       7.0824      0.00000
     11       7.8543      0.00000
     12       9.4557      0.00000
     13      11.1737      0.00000
     14      12.4497      0.00000
     15      12.6141      0.00000
     16      13.8459      0.00000

 k-point    33 :       0.0769    0.2308    0.0000
  band No.  band energies     occupation 
      1     -14.4641      2.00000
      2      -7.2624      2.00000
      3      -3.5318      2.00000
      4      -1.4522      2.00000
      5      -0.2473      2.00000
      6       3.4032      0.00000
      7       3.5264      0.00000
      8       4.0145      0.00000
      9       5.1709      0.00000
     10       5.8123      0.00000
     11       6.5492      0.00000
     12       7.8603      0.00000
     13       9.7315      0.00000
     14      10.2570      0.00000
     15      11.8455      0.00000
     16      13.0888      0.00000

 k-point    34 :       0.3077   -0.0769    0.0000
  band No.  band energies     occupation 
      1     -15.0159      2.00000
      2      -8.6553      2.00000
      3      -4.8584      2.00000
      4      -1.5287      2.00000
      5      -0.2258      2.00000
      6       2.5733      0.00000
      7       3.1257      0.00000
      8       3.6939      0.00000
      9       5.3718      0.00000
     10       6.4081      0.00000
     11       7.0714      0.00000
     12       8.9579      0.00000
     13      10.1830      0.00000
     14      10.6216      0.00000
     15      11.5830      0.00000
     16      12.1916      0.00000

 k-point    35 :       0.3077    0.0769    0.0000
  band No.  band energies     occupation 
      1     -13.4350      2.00000
      2      -7.1062      2.00000
      3      -4.9771      2.00000
      4      -1.8274      2.00000
      5       1.7150      2.00000
      6       2.8464      0.00000
      7       4.0687      0.00000
      8       4.6942      0.00000
      9       5.3434      0.00000
     10       7.3268      0.00000
     11       8.6577      0.00000
     12       9.5628      0.00000
     13      10.0551      0.00000
     14      10.9055      0.00000
     15      12.0052      0.00000
     16      13.1656      0.00000

 k-point    36 :      -0.0769    0.3846    0.0000
  band No.  band energies     occupation 
      1     -13.1496      2.00000
      2      -8.1392      2.00000
      3      -5.0555      2.00000
      4      -1.2261      2.00000
      5       2.0030      0.82737
      6       3.3783      0.00000
      7       4.5664      0.00000
      8       5.0030      0.00000
      9       6.7468      0.00000
     10       7.8746      0.00000
     11       8.4678      0.00000
     12      10.0087      0.00000
     13      10.6858      0.00000
     14      11.3206      0.00000
     15      12.3269      0.00000
     16      13.7653      0.00000

 k-point    37 :      -0.3846    0.3077    0.0000
  band No.  band energies     occupation 
      1     -13.4100      2.00000
      2      -8.4898      2.00000
      3      -5.7966      2.00000
      4      -3.0744      2.00000
      5       0.7439      2.00000
      6       2.1562      0.00000
      7       4.1142      0.00000
      8       4.5660      0.00000
      9       6.4365      0.00000
     10       7.0908      0.00000
     11       8.6020      0.00000
[...]
 -0.307692  0.384615  0.000000      2.000000
  0.076923  0.307692  0.000000      2.000000
  0.384615 -0.076923  0.000000      2.000000
  0.384615  0.076923  0.000000      2.000000
 -0.076923  0.461538  0.000000      2.000000
 -0.461538  0.384615  0.000000      2.000000
 -0.384615  0.461538  0.000000      2.000000
  0.076923  0.384615  0.000000      2.000000
  0.461538 -0.076923  0.000000      2.000000
  0.461538  0.076923  0.000000      2.000000
 -0.076923 -0.461538  0.000000      2.000000
  0.461538  0.461538  0.000000      2.000000
  0.153846  0.153846  0.000000      2.000000
 -0.153846  0.307692  0.000000      2.000000
 -0.307692  0.153846  0.000000      2.000000
  0.230769  0.153846  0.000000      2.000000
 -0.153846  0.384615  0.000000      2.000000
 -0.384615  0.230769  0.000000      2.000000
 -0.230769  0.384615  0.000000      2.000000
  0.153846  0.230769  0.000000      2.000000
  0.384615 -0.153846  0.000000      2.000000
  0.307692  0.153846  0.000000      2.000000
 -0.153846  0.461538  0.000000      2.000000
 -0.461538  0.307692  0.000000      2.000000
 -0.307692  0.461538  0.000000      2.000000
  0.153846  0.307692  0.000000      2.000000
  0.461538 -0.153846  0.000000      2.000000
  0.384615  0.153846  0.000000      2.000000
 -0.153846 -0.461538  0.000000      2.000000
  0.461538  0.384615  0.000000      2.000000
 -0.384615 -0.461538  0.000000      2.000000
  0.153846  0.384615  0.000000      2.000000
 -0.461538 -0.153846  0.000000      2.000000
  0.230769  0.230769  0.000000      2.000000
 -0.230769  0.461538  0.000000      2.000000
 -0.461538  0.230769  0.000000      2.000000
  0.307692  0.230769  0.000000      2.000000
 -0.230769 -0.461538  0.000000      2.000000
  0.461538  0.307692  0.000000      2.000000
 -0.307692 -0.461538  0.000000      2.000000
  0.230769  0.307692  0.000000      2.000000
 -0.461538 -0.230769  0.000000      2.000000
  0.384615  0.230769  0.000000      2.000000
 -0.230769 -0.384615  0.000000      2.000000
  0.384615  0.384615  0.000000      2.000000
  0.307692  0.307692  0.000000      2.000000
 -0.307692 -0.384615  0.000000      2.000000
  0.384615  0.307692  0.000000      2.000000
 
 Following cartesian coordinates:
            Coordinates               Weight
  0.000000  0.000000  0.000000      1.000000
  0.021327  0.012313  0.000000      2.000000
  0.000000  0.024626  0.000000      2.000000
 -0.021327  0.012313  0.000000      2.000000
  0.042653  0.024626  0.000000      2.000000
  0.000000  0.049252  0.000000      2.000000
 -0.042653  0.024626  0.000000      2.000000
  0.063980  0.036939  0.000000      2.000000
  0.000000  0.073878  0.000000      2.000000
 -0.063980  0.036939  0.000000      2.000000
  0.085307  0.049252  0.000000      2.000000
  0.000000  0.098504  0.000000      2.000000
 -0.085307  0.049252  0.000000      2.000000
  0.106633  0.061565  0.000000      2.000000
  0.000000  0.123130  0.000000      2.000000
 -0.106633  0.061565  0.000000      2.000000
  0.127960  0.073878  0.000000      2.000000
  0.000000  0.147756  0.000000      2.000000
 -0.127960  0.073878  0.000000      2.000000
  0.021327  0.036939  0.000000      2.000000
 -0.021327  0.036939  0.000000      2.000000
 -0.042653  0.000000  0.000000      2.000000
  0.042653  0.049252  0.000000      2.000000
 -0.021327  0.061565  0.000000      2.000000
 -0.063980  0.012313  0.000000      2.000000
 -0.042653  0.049252  0.000000      2.000000
  0.021327  0.061565  0.000000      2.000000
  0.063980  0.012313  0.000000      2.000000
  0.063980  0.061565  0.000000      2.000000
 -0.021327  0.086191  0.000000      2.000000
 -0.085307  0.024626  0.000000      2.000000
 -0.063980  0.061565  0.000000      2.000000
  0.021327  0.086191  0.000000      2.000000
  0.085307  0.024626  0.000000      2.000000
  0.085307  0.073878  0.000000      2.000000
 -0.021327  0.110817  0.000000      2.000000
 -0.106633  0.036939  0.000000      2.000000
 -0.085307  0.073878  0.000000      2.000000
  0.021327  0.110817  0.000000      2.000000
  0.106633  0.036939  0.000000      2.000000
  0.106633  0.086191  0.000000      2.000000
 -0.021327  0.135443  0.000000      2.000000
 -0.127960  0.049252  0.000000      2.000000
 -0.106633  0.086191  0.000000      2.000000
  0.021327  0.135443  0.000000      2.000000
  0.127960  0.049252  0.000000      2.000000
  0.127960  0.098504  0.000000      2.000000
 -0.021327 -0.160069  0.000000      2.000000
  0.127960  0.221633  0.000000      2.000000
  0.042653  0.073878  0.000000      2.000000
 -0.042653  0.073878  0.000000      2.000000
 -0.085307  0.000000  0.000000      2.000000
  0.063980  0.086191  0.000000      2.000000
 -0.042653  0.098504  0.000000      2.000000
 -0.106633  0.012313  0.000000      2.000000
 -0.063980  0.086191  0.000000      2.000000
  0.042653  0.098504  0.000000      2.000000
  0.106633  0.012313  0.000000      2.000000
  0.085307  0.098504  0.000000      2.000000
 -0.042653  0.123130  0.000000      2.000000
 -0.127960  0.024626  0.000000      2.000000
 -0.085307  0.098504  0.000000      2.000000
  0.042653  0.123130  0.000000      2.000000
  0.127960  0.024626  0.000000      2.000000
  0.106633  0.110817  0.000000      2.000000
 -0.042653 -0.172382  0.000000      2.000000
  0.127960  0.197008  0.000000      2.000000
 -0.106633 -0.209320  0.000000      2.000000
  0.042653  0.147756  0.000000      2.000000
 -0.127960 -0.123130  0.000000      2.000000
  0.063980  0.110817  0.000000      2.000000
 -0.063980  0.110817  0.000000      2.000000
 -0.127960  0.000000  0.000000      2.000000
  0.085307  0.123130  0.000000      2.000000
 -0.063980 -0.184695  0.000000      2.000000
  0.127960  0.172382  0.000000      2.000000
 -0.085307 -0.197008  0.000000      2.000000
  0.063980  0.135443  0.000000      2.000000
 -0.127960 -0.147756  0.000000      2.000000
  0.106633  0.135443  0.000000      2.000000
 -0.063980 -0.160069  0.000000      2.000000
  0.106633  0.184695  0.000000      2.000000
  0.085307  0.147756  0.000000      2.000000
 -0.085307 -0.172382  0.000000      2.000000
  0.106633  0.160069  0.000000      2.000000
 


 MACROSCOPIC STATIC DIELECTRIC TENSOR (including local field effects in DFT)
 ------------------------------------------------------
           4.783078    -0.036423    -0.001794
          -0.036422     4.781714    -0.000017
          -0.001797    -0.000017     1.334090
 ------------------------------------------------------



--------------------------------------------------------------------------------------------------------


  LATTYP: Found a hexagonal cell.
 ALAT       =     3.6068925390
 C/A-ratio  =     4.4359513978
  
  Lattice vectors:
  
 A1 = (   3.6068925390,   0.0000000000,   0.0000000000)
 A2 = (  -1.8034462695,   3.1236605675,   0.0000000000)
 A3 = (   0.0000000000,   0.0000000000,  16.0000000000)


Analysis of symmetry for initial positions (statically):
=====================================================================
 Subroutine PRICEL returns:
 Original cell was already a primitive cell.
 

 Routine SETGRP: Setting up the symmetry group for a 
 hexagonal supercell.


 Subroutine GETGRP returns: Found  2 space group operations
 (whereof  2 operations were pure point group operations)
 out of a pool of 24 trial point group operations.


The static configuration has the point symmetry S_2 .


Analysis of symmetry for dynamics (positions and initial velocities):
=====================================================================
 Subroutine PRICEL returns:
 Original cell was already a primitive cell.
 

 Routine SETGRP: Setting up the symmetry group for a 
 hexagonal supercell.


 Subroutine GETGRP returns: Found  2 space group operations
 (whereof  2 operations were pure point group operations)
 out of a pool of 24 trial point group operations.


The dynamic configuration has the point symmetry S_2 .


 Subroutine INISYM returns: Found  2 space group operations
 (whereof  2 operations are pure point group operations),
 and found     1 'primitive' translations

 
 KPOINTS: kpoints                                 

Automatic generation of k-mesh.
 Grid dimensions read from file:
 generate k-points for:   13   13    1

 Generating k-lattice:

  Cartesian coordinates                     Fractional coordinates (reciprocal lattice)
     0.021326689  0.012312970  0.000000000     0.076923077  0.000000000  0.000000000
     0.000000000  0.024625940  0.000000000     0.000000000  0.076923077  0.000000000
     0.000000000  0.000000000  0.062500000     0.000000000  0.000000000  1.000000000

  Length of vectors
     0.024625940  0.024625940  0.062500000

  Shift w.r.t. Gamma in fractional coordinates (k-lattice)
     0.000000000  0.000000000  0.000000000

 
 Subroutine IBZKPT returns following result:
 ===========================================
 
 Found     85 irreducible k-points:
 
 Following reciprocal coordinates:
            Coordinates               Weight
  0.000000  0.000000  0.000000      1.000000
  0.076923  0.000000  0.000000      2.000000
  0.000000  0.076923  0.000000      2.000000
 -0.076923  0.076923  0.000000      2.000000
  0.153846  0.000000  0.000000      2.000000
  0.000000  0.153846  0.000000      2.000000
 -0.153846  0.153846  0.000000      2.000000
  0.230769 -0.000000  0.000000      2.000000
  0.000000  0.230769  0.000000      2.000000
 -0.230769  0.230769  0.000000      2.000000
  0.307692  0.000000  0.000000      2.000000
  0.000000  0.307692  0.000000      2.000000
 -0.307692  0.307692  0.000000      2.000000
  0.384615  0.000000  0.000000      2.000000
  0.000000  0.384615  0.000000      2.000000
 -0.384615  0.384615  0.000000      2.000000
  0.461538 -0.000000  0.000000      2.000000
  0.000000  0.461538  0.000000      2.000000
 -0.461538  0.461538  0.000000      2.000000
  0.076923  0.076923  0.000000      2.000000
 -0.076923  0.153846  0.000000      2.000000
 -0.153846  0.076923  0.000000      2.000000
  0.153846  0.076923  0.000000      2.000000
 -0.076923  0.230769  0.000000      2.000000
 -0.230769  0.153846  0.000000      2.000000
 -0.153846  0.230769  0.000000      2.000000
  0.076923  0.153846  0.000000      2.000000
  0.230769 -0.076923  0.000000      2.000000
  0.230769  0.076923  0.000000      2.000000
 -0.076923  0.307692  0.000000      2.000000
 -0.307692  0.230769  0.000000      2.000000
 -0.230769  0.307692  0.000000      2.000000
  0.076923  0.230769  0.000000      2.000000
  0.307692 -0.076923  0.000000      2.000000
  0.307692  0.076923  0.000000      2.000000
 -0.076923  0.384615  0.000000      2.000000
 -0.384615  0.307692  0.000000      2.000000
 -0.307692  0.384615  0.000000      2.000000
  0.076923  0.307692  0.000000      2.000000
  0.384615 -0.076923  0.000000      2.000000
  0.384615  0.076923  0.000000      2.000000
 -0.076923  0.461538  0.000000      2.000000
 -0.461538  0.384615  0.000000      2.000000
 -0.384615  0.461538  0.000000      2.000000
  0.076923  0.384615  0.000000      2.000000
  0.461538 -0.076923  0.000000      2.000000
  0.461538  0.076923  0.000000      2.000000
 -0.076923 -0.461538  0.000000      2.000000
  0.461538  0.461538  0.000000      2.000000
  0.153846  0.153846  0.000000      2.000000
 -0.153846  0.307692  0.000000      2.000000
 -0.307692  0.153846  0.000000      2.000000
  0.230769  0.153846  0.000000      2.000000
 -0.153846  0.384615  0.000000      2.000000
 -0.384615  0.230769  0.000000      2.000000
 -0.230769  0.384615  0.000000      2.000000
  0.153846  0.230769  0.000000      2.000000
  0.384615 -0.153846  0.000000      2.000000
  0.307692  0.153846  0.000000      2.000000
 -0.153846  0.461538  0.000000      2.000000
 -0.461538  0.307692  0.000000      2.000000
 -0.307692  0.461538  0.000000      2.000000
  0.153846  0.307692  0.000000      2.000000
  0.461538 -0.153846  0.000000      2.000000
  0.384615  0.153846  0.000000      2.000000
 -0.153846 -0.461538  0.000000      2.000000
  0.461538  0.384615  0.000000      2.000000
 -0.384615 -0.461538  0.000000      2.000000
  0.153846  0.384615  0.000000      2.000000
 -0.461538 -0.153846  0.000000      2.000000
  0.230769  0.230769  0.000000      2.000000
 -0.230769  0.461538  0.000000      2.000000
 -0.461538  0.230769  0.000000      2.000000
  0.307692  0.230769  0.000000      2.000000
 -0.230769 -0.461538  0.000000      2.000000
  0.461538  0.307692  0.000000      2.000000
 -0.307692 -0.461538  0.000000      2.000000
  0.230769  0.307692  0.000000      2.000000
 -0.461538 -0.230769  0.000000      2.000000
  0.384615  0.230769  0.000000      2.000000
 -0.230769 -0.384615  0.000000      2.000000
  0.384615  0.384615  0.000000      2.000000
  0.307692  0.307692  0.000000      2.000000
 -0.307692 -0.384615  0.000000      2.000000
  0.384615  0.307692  0.000000      2.000000
 
 Following cartesian coordinates:
            Coordinates               Weight
  0.000000  0.000000  0.000000      1.000000
  0.021327  0.012313  0.000000      2.000000
  0.000000  0.024626  0.000000      2.000000
 -0.021327  0.012313  0.000000      2.000000
  0.042653  0.024626  0.000000      2.000000
  0.000000  0.049252  0.000000      2.000000
 -0.042653  0.024626  0.000000      2.000000
  0.063980  0.036939  0.000000      2.000000
  0.000000  0.073878  0.000000      2.000000
 -0.063980  0.036939  0.000000      2.000000
  0.085307  0.049252  0.000000      2.000000
  0.000000  0.098504  0.000000      2.000000
 -0.085307  0.049252  0.000000      2.000000
  0.106633  0.061565  0.000000      2.000000
  0.000000  0.123130  0.000000      2.000000
 -0.106633  0.061565  0.000000      2.000000
  0.127960  0.073878  0.000000      2.000000
  0.000000  0.147756  0.000000      2.000000
 -0.127960  0.073878  0.000000      2.000000
  0.021327  0.036939  0.000000      2.000000
 -0.021327  0.036939  0.000000      2.000000
 -0.042653  0.000000  0.000000      2.000000
  0.042653  0.049252  0.000000      2.000000
 -0.021327  0.061565  0.000000      2.000000
 -0.063980  0.012313  0.000000      2.000000
 -0.042653  0.049252  0.000000      2.000000
  0.021327  0.061565  0.000000      2.000000
  0.063980  0.012313  0.000000      2.000000
  0.063980  0.061565  0.000000      2.000000
 -0.021327  0.086191  0.000000      2.000000
 -0.085307  0.024626  0.000000      2.000000
 -0.063980  0.061565  0.000000      2.000000
  0.021327  0.086191  0.000000      2.000000
  0.085307  0.024626  0.000000      2.000000
  0.085307  0.073878  0.000000      2.000000
 -0.021327  0.110817  0.000000      2.000000
 -0.106633  0.036939  0.000000      2.000000
 -0.085307  0.073878  0.000000      2.000000
  0.021327  0.110817  0.000000      2.000000
  0.106633  0.036939  0.000000      2.000000
  0.106633  0.086191  0.000000      2.000000
 -0.021327  0.135443  0.000000      2.000000
 -0.127960  0.049252  0.000000      2.000000
 -0.106633  0.086191  0.000000      2.000000
  0.021327  0.135443  0.000000      2.000000
  0.127960  0.049252  0.000000      2.000000
  0.127960  0.098504  0.000000      2.000000
 -0.021327 -0.160069  0.000000      2.000000
  0.127960  0.221633  0.000000      2.000000
  0.042653  0.073878  0.000000      2.000000
 -0.042653  0.073878  0.000000      2.000000
 -0.085307  0.000000  0.000000      2.000000
  0.063980  0.086191  0.000000      2.000000
 -0.042653  0.098504  0.000000      2.000000
 -0.106633  0.012313  0.000000      2.000000
 -0.063980  0.086191  0.000000      2.000000
  0.042653  0.098504  0.000000      2.000000
  0.106633  0.012313  0.000000      2.000000
  0.085307  0.098504  0.000000      2.000000
 -0.042653  0.123130  0.000000      2.000000
 -0.127960  0.024626  0.000000      2.000000
 -0.085307  0.098504  0.000000      2.000000
  0.042653  0.123130  0.000000      2.000000
  0.127960  0.024626  0.000000      2.000000
  0.106633  0.110817  0.000000      2.000000
 -0.042653 -0.172382  0.000000      2.000000
  0.127960  0.197008  0.000000      2.000000
 -0.106633 -0.209320  0.000000      2.000000
  0.042653  0.147756  0.000000      2.000000
 -0.127960 -0.123130  0.000000      2.000000
  0.063980  0.110817  0.000000      2.000000
 -0.063980  0.110817  0.000000      2.000000
 -0.127960  0.000000  0.000000      2.000000
  0.085307  0.123130  0.000000      2.000000
 -0.063980 -0.184695  0.000000      2.000000
  0.127960  0.172382  0.000000      2.000000
 -0.085307 -0.197008  0.000000      2.000000
  0.063980  0.135443  0.000000      2.000000
 -0.127960 -0.147756  0.000000      2.000000
  0.106633  0.135443  0.000000      2.000000
 -0.063980 -0.160069  0.000000      2.000000
  0.106633  0.184695  0.000000      2.000000
  0.085307  0.147756  0.000000      2.000000
 -0.085307 -0.172382  0.000000      2.000000
  0.106633  0.160069  0.000000      2.000000
 


--------------------------------------------------------------------------------------------------------




 MACROSCOPIC STATIC DIELECTRIC TENSOR (including local field effects in DFT)
 ------------------------------------------------------
           4.783078    -0.036423    -0.001794
          -0.036422     4.781714    -0.000017
          -0.001797    -0.000017     1.334090
 ------------------------------------------------------


 PIEZOELECTRIC TENSOR (including local field effects)  for field in x, y, z        (e  Angst)
          XX          YY          ZZ          XY          YZ          ZX
  --------------------------------------------------------------------------------
  x     0.00000     0.00000     0.00000     0.00000     0.00000     0.00000
  y     0.00000     0.00000     0.00000     0.00000     0.00000     0.00000
  z     0.00000     0.00000     0.00000     0.00000     0.00000     0.00000

 PIEZOELECTRIC TENSOR (including local field effects)  for field in x, y, z        (C/m^2)
          XX          YY          ZZ          XY          YZ          ZX
  --------------------------------------------------------------------------------
  x     0.00000     0.00000     0.00000     0.00000     0.00000     0.00000
  y     0.00000     0.00000     0.00000     0.00000     0.00000     0.00000
  z     0.00000     0.00000     0.00000     0.00000     0.00000     0.00000
 
 BORN EFFECTIVE CHARGES (including local field effects) (in |e|, cummulative output)
 ---------------------------------------------------------------------------------
 ion    1
    1     0.00000     0.00000     0.00000
    2     0.00000     0.00000     0.00000
    3     0.00000     0.00000     0.00000
 ion    2
    1     0.00000     0.00000     0.00000
    2     0.00000     0.00000     0.00000
    3     0.00000     0.00000     0.00000


--------------------------------------------------------------------------------------------------------


     LOOP+:  cpu time     83.7331: real time     88.0400
    4ORBIT:  cpu time      0.0000: real time      0.0000



 total charge

# of ion       s       p       d       tot
------------------------------------------
    1        1.291   1.352   0.041   2.684
    2        1.291   1.352   0.041   2.684
--------------------------------------------------
tot          2.582   2.704   0.082   5.368
 

 total amount of memory used by VASP MPI-rank0    49542. kBytes
=======================================================================

   base      :      30000. kBytes
   nonl-proj :      13343. kBytes
   fftplans  :       2217. kBytes
   grid      :       1878. kBytes
   one-center:         16. kBytes
   wavefun   :       2088. kBytes
 
  
  
 General timing and accounting informations for this job:
 ========================================================
  
                  Total CPU time used (sec):       84.438
                            User time (sec):       84.199
                          System time (sec):        0.240
                         Elapsed time (sec):       90.025
  
                   Maximum memory used (kb):      193296.
                   Average memory used (kb):          N/A
  
                          Minor page faults:        32144
                          Major page faults:         2921
                 Voluntary context switches:          560
