 vasp.6.4.2 20Jul23 (build Nov 14 2023 12:59:38) complex                        
  
 executed on             LinuxIFC date 2023.12.29  15:48:08
 running   16 mpi-ranks, on    1 nodes
 distrk:  each k-point on   16 cores,    1 groups
 distr:  one band on NCORE=   1 cores,   16 groups


--------------------------------------------------------------------------------------------------------


 INCAR:
   ENCUT = 234.789750
   ALGO = Normal
   NELM = 200
   NELMIN = 6
   NELMDL = -12
   EDIFF = 1.0E-6
   AMIX = 0.1
   BMIX = 0.0001
   PREC = Accurate
   IVDW = 0
   ISPIN = 1
   ADDGRID = .TRUE.
   LASPH = .TRUE.
   LREAL = .FALSE.
   LEPSILON = .TRUE.
   ISMEAR = 0
   SIGMA = 0.01
   LORBIT = 10
   NEDOS = 6001
   NWRITE = 3
   LWAVE = .FALSE.
   LCHARG = .FALSE.
   ICHARG = 2
   LELF = .FALSE.
   LVTOT = .FALSE.
   LPLANE = .TRUE.

 POTCAR:    PAW_PBE As_GW 20Mar2012               
 -----------------------------------------------------------------------------
|                                                                             |
|           W    W    AA    RRRRR   N    N  II  N    N   GGGG   !!!           |
|           W    W   A  A   R    R  NN   N  II  NN   N  G    G  !!!           |
|           W    W  A    A  R    R  N N  N  II  N N  N  G       !!!           |
|           W WW W  AAAAAA  RRRRR   N  N N  II  N  N N  G  GGG   !            |
|           WW  WW  A    A  R   R   N   NN  II  N   NN  G    G                |
|           W    W  A    A  R    R  N    N  II  N    N   GGGG   !!!           |
|                                                                             |
|     For optimal performance we recommend to set                             |
|       NCORE = 2 up to number-of-cores-per-socket                            |
|     NCORE specifies how many cores store one orbital (NPAR=cpu/NCORE).      |
|     This setting can greatly improve the performance of VASP for DFT.       |
|     The default, NCORE=1 might be grossly inefficient on modern             |
|     multi-core architectures or massively parallel machines. Do your        |
|     own testing! More info at https://www.vasp.at/wiki/index.php/NCORE      |
|     Unfortunately you need to use the default for GW and RPA                |
|     calculations (for HF NCORE is supported but not extensively tested      |
|     yet).                                                                   |
|                                                                             |
 -----------------------------------------------------------------------------

 POTCAR:    PAW_PBE As_GW 20Mar2012               
   SHA256 =  a9e2ff0950b1b79091db2e66c8f6a7a7244f007cee0c91008df893b76da4c5a2 As_GW/POTCAR          
   COPYR  = (c) Copyright 20Mar2012 Georg Kresse                                                    
   COPYR  = This file is part of the software VASP. Any use, copying, and all other rights are regul
   COPYR  = If you do not have a valid VASP license, you may not use, copy or distribute this file. 
   VRHFIN =As: s2p3                                                                                 
   LEXCH  = PE                                                                                      
   EATOM  =   170.1867 eV,   12.5084 Ry                                                             
                                                                                                    
   TITEL  = PAW_PBE As_GW 20Mar2012                                                                 
   LULTRA =        F    use ultrasoft PP ?                                                          
   IUNSCR =        1    unscreen: 0-lin 1-nonlin 2-no                                               
   RPACOR =    1.900    partial core radius                                                         
   POMASS =   74.922; ZVAL   =    5.000    mass and valenz                                          
   RCORE  =    2.100    outmost cutoff radius                                                       
   RWIGS  =    2.300; RWIGS  =    1.217    wigner-seitz radius (au A)                               
   ENMAX  =  208.702; ENMIN  =  156.526 eV                                                          
   ICORE  =        3    local potential                                                             
   LCOR   =        T    correct aug charges                                                         
   LPAW   =        T    paw PP                                                                      
   EAUG   =  462.758                                                                                
   RMAX   =    2.144    core radius for proj-oper                                                   
   RAUG   =    1.300    factor for augmentation sphere                                              
   RDEP   =    2.140    radius for radial grids                                                     
   RDEPT  =    1.956    core radius for aug-charge                                                  
                                                                                                    
   Atomic configuration                                                                             
   10 entries                                                                                       
     n  l   j            E        occ.                                                              
     1  0  0.50    -11718.0418   2.0000                                                             
     2  0  0.50     -1486.5454   2.0000                                                             
     2  1  1.50     -1303.3889   6.0000                                                             
     3  0  0.50      -190.2849   2.0000                                                             
     3  1  1.50      -133.6555   6.0000                                                             
     3  2  2.50       -40.6443  10.0000                                                             
     4  0  0.50       -14.4936   2.0000                                                             
     4  1  0.50        -5.1947   3.0000                                                             
     4  2  1.50        -5.4423   0.0000                                                             
     4  3  2.50        -5.4423   0.0000                                                             
   Description                                                                                      
     l       E           TYP  RCUT    TYP  RCUT                                                     
     0    -14.4935572     23  2.100                                                                 
     0     81.6349560     23  2.100                                                                 
     1     -5.1947128     23  2.100                                                                 
     1     95.2407820     23  2.100                                                                 
     2     -5.4423304     23  2.100                                                                 
     3     -1.3605826      7  2.100                                                                 
  local pseudopotential read in
  partial core-charges read in
  partial kinetic energy density read in
  kinetic energy density of atom read in
  atomic valenz-charges read in
  non local Contribution for L=           0  read in
    real space projection operators read in
  non local Contribution for L=           0  read in
    real space projection operators read in
  non local Contribution for L=           1  read in
    real space projection operators read in
  non local Contribution for L=           1  read in
    real space projection operators read in
  non local Contribution for L=           2  read in
    real space projection operators read in
    PAW grid and wavefunctions read in
 
   number of l-projection  operators is LMAX  =           5
   number of lm-projection operators is LMMAX =          13
 
  PAW_PBE As_GW 20Mar2012               :
 energy of atom  1       EATOM= -170.1867
 kinetic energy error for atom=    0.0047 (will be added to EATOM!!)
 
 
 POSCAR: OUTCAR.0001.+1.out 1.0e-02
  positions in cartesian coordinates
  No initial velocities read in
 exchange correlation table for  LEXCH =        8
   RHO(1)=    0.500       N(1)  =     2000
   RHO(2)=  100.500       N(2)  =     4000
 


--------------------------------------------------------------------------------------------------------


 ion  position               nearest neighbor table
   1  0.667  0.333  0.456-   2 2.52   2 2.52   2 2.52
   2  0.333  0.667  0.544-   1 2.52   1 2.52   1 2.52
 
  LATTYP: Found a hexagonal cell.
 ALAT       =     3.6068925390
 C/A-ratio  =     4.4359513978
  
  Lattice vectors:
  
 A1 = (   3.6068925390,   0.0000000000,   0.0000000000)
 A2 = (  -1.8034462695,   3.1236605675,   0.0000000000)
 A3 = (   0.0000000000,   0.0000000000,  16.0000000000)


Analysis of symmetry for initial positions (statically):
=====================================================================
 Subroutine PRICEL returns:
 Original cell was already a primitive cell.
 

 Routine SETGRP: Setting up the symmetry group for a 
 hexagonal supercell.


 Subroutine GETGRP returns: Found 12 space group operations
 (whereof 12 operations were pure point group operations)
 out of a pool of 24 trial point group operations.


The static configuration has the point symmetry D_3d.


Analysis of symmetry for dynamics (positions and initial velocities):
=====================================================================
 Subroutine PRICEL returns:
 Original cell was already a primitive cell.
 

 Routine SETGRP: Setting up the symmetry group for a 
 hexagonal supercell.


 Subroutine GETGRP returns: Found 12 space group operations
 (whereof 12 operations were pure point group operations)
 out of a pool of 24 trial point group operations.


The dynamic configuration has the point symmetry D_3d.


 Subroutine INISYM returns: Found 12 space group operations
 (whereof 12 operations are pure point group operations),
 and found     1 'primitive' translations



 irot  :   1
 --------------------------------------------------------------------
 isymop:   1   0   0
           0   1   0
           0   0   1

 gtrans:     0.0000000     0.0000000     0.0000000

 ptrans:     0.0000000     0.0000000     0.0000000
 
 rotmap:
 (   1->   1)  (   2->   2) 


 irot  :   2
 --------------------------------------------------------------------
 isymop:  -1   0   0
           0  -1   0
           0   0  -1

 gtrans:     0.0000000     0.0000000     0.0000000

 ptrans:     0.0000000     0.0000000     0.0000000
 
 rotmap:
 (   1->   2)  (   2->   1) 


 irot  :   3
 --------------------------------------------------------------------
 isymop:   0  -1   0
           1  -1   0
           0   0   1

 gtrans:     0.0000000     0.0000000     0.0000000

 ptrans:     0.0000000     0.0000000     0.0000000
 
 rotmap:
 (   1->   1)  (   2->   2) 


 irot  :   4
 --------------------------------------------------------------------
 isymop:   0   1   0
          -1   1   0
           0   0  -1

 gtrans:     0.0000000     0.0000000     0.0000000

 ptrans:     0.0000000     0.0000000     0.0000000
 
 rotmap:
 (   1->   2)  (   2->   1) 


 irot  :   5
 --------------------------------------------------------------------
 isymop:  -1   1   0
          -1   0   0
           0   0   1

 gtrans:     0.0000000     0.0000000     0.0000000

 ptrans:     0.0000000     0.0000000     0.0000000
 
 rotmap:
 (   1->   1)  (   2->   2) 


 irot  :   6
 --------------------------------------------------------------------
 isymop:   1  -1   0
           1   0   0
           0   0  -1

 gtrans:     0.0000000     0.0000000     0.0000000

 ptrans:     0.0000000     0.0000000     0.0000000
 
 rotmap:
 (   1->   2)  (   2->   1) 


 irot  :   7
 --------------------------------------------------------------------
 isymop:   1  -1   0
           0  -1   0
           0   0  -1

 gtrans:     0.0000000     0.0000000     0.0000000

 ptrans:     0.0000000     0.0000000     0.0000000
 
 rotmap:
 (   1->   2)  (   2->   1) 


 irot  :   8
 --------------------------------------------------------------------
 isymop:  -1   1   0
           0   1   0
           0   0   1

 gtrans:     0.0000000     0.0000000     0.0000000

 ptrans:     0.0000000     0.0000000     0.0000000
 
 rotmap:
 (   1->   1)  (   2->   2) 


 irot  :   9
 --------------------------------------------------------------------
 isymop:  -1   0   0
          -1   1   0
           0   0  -1

 gtrans:     0.0000000     0.0000000     0.0000000

 ptrans:     0.0000000     0.0000000     0.0000000
 
 rotmap:
 (   1->   2)  (   2->   1) 


 irot  :  10
 --------------------------------------------------------------------
 isymop:   1   0   0
           1  -1   0
           0   0   1

 gtrans:     0.0000000     0.0000000     0.0000000

 ptrans:     0.0000000     0.0000000     0.0000000
 
 rotmap:
 (   1->   1)  (   2->   2) 


 irot  :  11
 --------------------------------------------------------------------
 isymop:   0   1   0
           1   0   0
           0   0  -1

 gtrans:     0.0000000     0.0000000     0.0000000

 ptrans:     0.0000000     0.0000000     0.0000000
 
 rotmap:
 (   1->   2)  (   2->   1) 


 irot  :  12
 --------------------------------------------------------------------
 isymop:   0  -1   0
          -1   0   0
           0   0   1

 gtrans:     0.0000000     0.0000000     0.0000000

 ptrans:     0.0000000     0.0000000     0.0000000
 
 rotmap:
 (   1->   1)  (   2->   2) 

----------------------------------------------------------------------------------------

                                     Primitive cell                                     

  volume of cell :     180.2673

  direct lattice vectors                    reciprocal lattice vectors
     3.606892539  0.000000000  0.000000000     0.277246962  0.160068608  0.000000000
    -1.803446269  3.123660567  0.000000000     0.000000000  0.320137217  0.000000000
     0.000000000  0.000000000 16.000000000     0.000000000  0.000000000  0.062500000

  length of vectors
     3.606892539  3.606892539 16.000000000     0.320137217  0.320137217  0.062500000

  position of ions in fractional coordinates (direct lattice)
     0.666666667  0.333333333  0.455901194
     0.333333333  0.666666667  0.544098806

  ion indices of the primitive-cell ions
   primitive index   ion index
                 1           1
                 2           2

----------------------------------------------------------------------------------------

 
 
 KPOINTS: kpoints                                 

Automatic generation of k-mesh.
 Grid dimensions read from file:
 generate k-points for:   13   13    1

 Generating k-lattice:

  Cartesian coordinates                     Fractional coordinates (reciprocal lattice)
     0.021326689  0.012312970  0.000000000     0.076923077  0.000000000  0.000000000
     0.000000000  0.024625940  0.000000000     0.000000000  0.076923077  0.000000000
     0.000000000  0.000000000  0.062500000     0.000000000  0.000000000  1.000000000

  Length of vectors
     0.024625940  0.024625940  0.062500000

  Shift w.r.t. Gamma in fractional coordinates (k-lattice)
     0.000000000  0.000000000  0.000000000

 
 Subroutine IBZKPT returns following result:
 ===========================================
 
 Found     21 irreducible k-points:
 
 Following reciprocal coordinates:
            Coordinates               Weight
  0.000000  0.000000  0.000000      1.000000
  0.076923  0.000000  0.000000      6.000000
  0.153846  0.000000  0.000000      6.000000
  0.230769 -0.000000  0.000000      6.000000
  0.307692  0.000000  0.000000      6.000000
  0.384615  0.000000  0.000000      6.000000
  0.461538 -0.000000  0.000000      6.000000
  0.076923  0.076923  0.000000      6.000000
  0.153846  0.076923  0.000000     12.000000
  0.230769  0.076923  0.000000     12.000000
  0.307692  0.076923  0.000000     12.000000
  0.384615  0.076923  0.000000     12.000000
  0.461538  0.076923  0.000000      6.000000
  0.153846  0.153846  0.000000      6.000000
  0.230769  0.153846  0.000000     12.000000
  0.307692  0.153846  0.000000     12.000000
  0.384615  0.153846  0.000000     12.000000
  0.230769  0.230769  0.000000      6.000000
  0.307692  0.230769  0.000000     12.000000
  0.384615  0.230769  0.000000      6.000000
  0.307692  0.307692  0.000000      6.000000
 
 Following cartesian coordinates:
            Coordinates               Weight
  0.000000  0.000000  0.000000      1.000000
  0.021327  0.012313  0.000000      6.000000
  0.042653  0.024626  0.000000      6.000000
  0.063980  0.036939  0.000000      6.000000
  0.085307  0.049252  0.000000      6.000000
  0.106633  0.061565  0.000000      6.000000
  0.127960  0.073878  0.000000      6.000000
  0.021327  0.036939  0.000000      6.000000
  0.042653  0.049252  0.000000     12.000000
  0.063980  0.061565  0.000000     12.000000
  0.085307  0.073878  0.000000     12.000000
  0.106633  0.086191  0.000000     12.000000
  0.127960  0.098504  0.000000      6.000000
  0.042653  0.073878  0.000000      6.000000
  0.063980  0.086191  0.000000     12.000000
  0.085307  0.098504  0.000000     12.000000
  0.106633  0.110817  0.000000     12.000000
  0.063980  0.110817  0.000000      6.000000
  0.085307  0.123130  0.000000     12.000000
  0.106633  0.135443  0.000000      6.000000
  0.085307  0.147756  0.000000      6.000000
 
 
 Subroutine IBZKPT_HF returns following result:
 ==============================================
 
 Found    169 k-points in 1st BZ
 the following    169 k-points will be used (e.g. in the exchange kernel)
 Following reciprocal coordinates:   # in IRBZ
  0.000000  0.000000  0.000000    0.00591716   1 t-inv F
  0.076923  0.000000  0.000000    0.00591716   2 t-inv F
  0.153846  0.000000  0.000000    0.00591716   3 t-inv F
  0.230769 -0.000000  0.000000    0.00591716   4 t-inv F
  0.307692  0.000000  0.000000    0.00591716   5 t-inv F
  0.384615  0.000000  0.000000    0.00591716   6 t-inv F
  0.461538 -0.000000  0.000000    0.00591716   7 t-inv F
  0.076923  0.076923  0.000000    0.00591716   8 t-inv F
  0.153846  0.076923  0.000000    0.00591716   9 t-inv F
  0.230769  0.076923  0.000000    0.00591716  10 t-inv F
  0.307692  0.076923  0.000000    0.00591716  11 t-inv F
  0.384615  0.076923  0.000000    0.00591716  12 t-inv F
  0.461538  0.076923  0.000000    0.00591716  13 t-inv F
  0.153846  0.153846  0.000000    0.00591716  14 t-inv F
  0.230769  0.153846  0.000000    0.00591716  15 t-inv F
  0.307692  0.153846  0.000000    0.00591716  16 t-inv F
  0.384615  0.153846  0.000000    0.00591716  17 t-inv F
  0.230769  0.230769  0.000000    0.00591716  18 t-inv F
  0.307692  0.230769  0.000000    0.00591716  19 t-inv F
  0.384615  0.230769  0.000000    0.00591716  20 t-inv F
  0.307692  0.307692  0.000000    0.00591716  21 t-inv F
 -0.076923 -0.000000  0.000000    0.00591716   2 t-inv F
 -0.076923  0.076923  0.000000    0.00591716   2 t-inv F
  0.076923 -0.076923  0.000000    0.00591716   2 t-inv F
  0.000000 -0.076923  0.000000    0.00591716   2 t-inv F
 -0.000000  0.076923  0.000000    0.00591716   2 t-inv F
 -0.153846 -0.000000  0.000000    0.00591716   3 t-inv F
 -0.153846  0.153846  0.000000    0.00591716   3 t-inv F
  0.153846 -0.153846  0.000000    0.00591716   3 t-inv F
  0.000000 -0.153846  0.000000    0.00591716   3 t-inv F
 -0.000000  0.153846  0.000000    0.00591716   3 t-inv F
 -0.230769  0.000000  0.000000    0.00591716   4 t-inv F
 -0.230769  0.230769  0.000000    0.00591716   4 t-inv F
  0.230769 -0.230769  0.000000    0.00591716   4 t-inv F
 -0.000000 -0.230769  0.000000    0.00591716   4 t-inv F
  0.000000  0.230769  0.000000    0.00591716   4 t-inv F
 -0.307692 -0.000000  0.000000    0.00591716   5 t-inv F
 -0.307692  0.307692  0.000000    0.00591716   5 t-inv F
  0.307692 -0.307692  0.000000    0.00591716   5 t-inv F
  0.000000 -0.307692  0.000000    0.00591716   5 t-inv F
 -0.000000  0.307692  0.000000    0.00591716   5 t-inv F
 -0.384615  0.000000  0.000000    0.00591716   6 t-inv F
 -0.384615  0.384615  0.000000    0.00591716   6 t-inv F
  0.384615 -0.384615  0.000000    0.00591716   6 t-inv F
  0.000000 -0.384615  0.000000    0.00591716   6 t-inv F
  0.000000  0.384615  0.000000    0.00591716   6 t-inv F
 -0.461538  0.000000  0.000000    0.00591716   7 t-inv F
 -0.461538  0.461538  0.000000    0.00591716   7 t-inv F
  0.461538 -0.461538  0.000000    0.00591716   7 t-inv F
 -0.000000 -0.461538  0.000000    0.00591716   7 t-inv F
  0.000000  0.461538  0.000000    0.00591716   7 t-inv F
 -0.076923 -0.076923  0.000000    0.00591716   8 t-inv F
 -0.153846  0.076923  0.000000    0.00591716   8 t-inv F
  0.153846 -0.076923  0.000000    0.00591716   8 t-inv F
  0.076923 -0.153846  0.000000    0.00591716   8 t-inv F
 -0.076923  0.153846  0.000000    0.00591716   8 t-inv F
 -0.153846 -0.076923  0.000000    0.00591716   9 t-inv F
 -0.230769  0.153846  0.000000    0.00591716   9 t-inv F
  0.230769 -0.153846  0.000000    0.00591716   9 t-inv F
  0.076923 -0.230769  0.000000    0.00591716   9 t-inv F
 -0.076923  0.230769  0.000000    0.00591716   9 t-inv F
  0.153846 -0.230769  0.000000    0.00591716   9 t-inv F
 -0.153846  0.230769  0.000000    0.00591716   9 t-inv F
 -0.230769  0.076923  0.000000    0.00591716   9 t-inv F
  0.230769 -0.076923  0.000000    0.00591716   9 t-inv F
  0.076923  0.153846  0.000000    0.00591716   9 t-inv F
 -0.076923 -0.153846  0.000000    0.00591716   9 t-inv F
 -0.230769 -0.076923  0.000000    0.00591716  10 t-inv F
 -0.307692  0.230769  0.000000    0.00591716  10 t-inv F
  0.307692 -0.230769  0.000000    0.00591716  10 t-inv F
  0.076923 -0.307692  0.000000    0.00591716  10 t-inv F
 -0.076923  0.307692  0.000000    0.00591716  10 t-inv F
  0.230769 -0.307692  0.000000    0.00591716  10 t-inv F
 -0.230769  0.307692  0.000000    0.00591716  10 t-inv F
 -0.307692  0.076923  0.000000    0.00591716  10 t-inv F
  0.307692 -0.076923  0.000000    0.00591716  10 t-inv F
  0.076923  0.230769  0.000000    0.00591716  10 t-inv F
 -0.076923 -0.230769  0.000000    0.00591716  10 t-inv F
 -0.307692 -0.076923  0.000000    0.00591716  11 t-inv F
 -0.384615  0.307692  0.000000    0.00591716  11 t-inv F
  0.384615 -0.307692  0.000000    0.00591716  11 t-inv F
  0.076923 -0.384615  0.000000    0.00591716  11 t-inv F
 -0.076923  0.384615  0.000000    0.00591716  11 t-inv F
  0.307692 -0.384615  0.000000    0.00591716  11 t-inv F
 -0.307692  0.384615  0.000000    0.00591716  11 t-inv F
 -0.384615  0.076923  0.000000    0.00591716  11 t-inv F
  0.384615 -0.076923  0.000000    0.00591716  11 t-inv F
  0.076923  0.307692  0.000000    0.00591716  11 t-inv F
 -0.076923 -0.307692  0.000000    0.00591716  11 t-inv F
 -0.384615 -0.076923  0.000000    0.00591716  12 t-inv F
 -0.461538  0.384615  0.000000    0.00591716  12 t-inv F
  0.461538 -0.384615  0.000000    0.00591716  12 t-inv F
  0.076923 -0.461538  0.000000    0.00591716  12 t-inv F
 -0.076923  0.461538  0.000000    0.00591716  12 t-inv F
  0.384615 -0.461538  0.000000    0.00591716  12 t-inv F
 -0.384615  0.461538  0.000000    0.00591716  12 t-inv F
 -0.461538  0.076923  0.000000    0.00591716  12 t-inv F
  0.461538 -0.076923  0.000000    0.00591716  12 t-inv F
  0.076923  0.384615  0.000000    0.00591716  12 t-inv F
 -0.076923 -0.384615  0.000000    0.00591716  12 t-inv F
 -0.461538 -0.076923  0.000000    0.00591716  13 t-inv F
 -0.538462  0.461538  0.000000    0.00591716  13 t-inv F
  0.538462 -0.461538  0.000000    0.00591716  13 t-inv F
  0.076923 -0.538462  0.000000    0.00591716  13 t-inv F
 -0.076923  0.538462  0.000000    0.00591716  13 t-inv F
 -0.153846 -0.153846  0.000000    0.00591716  14 t-inv F
 -0.307692  0.153846  0.000000    0.00591716  14 t-inv F
  0.307692 -0.153846  0.000000    0.00591716  14 t-inv F
  0.153846 -0.307692  0.000000    0.00591716  14 t-inv F
 -0.153846  0.307692  0.000000    0.00591716  14 t-inv F
 -0.230769 -0.153846  0.000000    0.00591716  15 t-inv F
 -0.384615  0.230769  0.000000    0.00591716  15 t-inv F
  0.384615 -0.230769  0.000000    0.00591716  15 t-inv F
  0.153846 -0.384615  0.000000    0.00591716  15 t-inv F
 -0.153846  0.384615  0.000000    0.00591716  15 t-inv F
  0.230769 -0.384615  0.000000    0.00591716  15 t-inv F
 -0.230769  0.384615  0.000000    0.00591716  15 t-inv F
 -0.384615  0.153846  0.000000    0.00591716  15 t-inv F
  0.384615 -0.153846  0.000000    0.00591716  15 t-inv F
  0.153846  0.230769  0.000000    0.00591716  15 t-inv F
 -0.153846 -0.230769  0.000000    0.00591716  15 t-inv F
 -0.307692 -0.153846  0.000000    0.00591716  16 t-inv F
 -0.461538  0.307692  0.000000    0.00591716  16 t-inv F
  0.461538 -0.307692  0.000000    0.00591716  16 t-inv F
  0.153846 -0.461538  0.000000    0.00591716  16 t-inv F
 -0.153846  0.461538  0.000000    0.00591716  16 t-inv F
  0.307692 -0.461538  0.000000    0.00591716  16 t-inv F
 -0.307692  0.461538  0.000000    0.00591716  16 t-inv F
 -0.461538  0.153846  0.000000    0.00591716  16 t-inv F
  0.461538 -0.153846  0.000000    0.00591716  16 t-inv F
  0.153846  0.307692  0.000000    0.00591716  16 t-inv F
 -0.153846 -0.307692  0.000000    0.00591716  16 t-inv F
 -0.384615 -0.153846  0.000000    0.00591716  17 t-inv F
 -0.538462  0.384615  0.000000    0.00591716  17 t-inv F
  0.538462 -0.384615  0.000000    0.00591716  17 t-inv F
  0.153846 -0.538462  0.000000    0.00591716  17 t-inv F
 -0.153846  0.538462  0.000000    0.00591716  17 t-inv F
  0.384615 -0.538462  0.000000    0.00591716  17 t-inv F
 -0.384615  0.538462  0.000000    0.00591716  17 t-inv F
 -0.538462  0.153846  0.000000    0.00591716  17 t-inv F
  0.538462 -0.153846  0.000000    0.00591716  17 t-inv F
  0.153846  0.384615  0.000000    0.00591716  17 t-inv F
 -0.153846 -0.384615  0.000000    0.00591716  17 t-inv F
 -0.230769 -0.230769  0.000000    0.00591716  18 t-inv F
 -0.461538  0.230769  0.000000    0.00591716  18 t-inv F
  0.461538 -0.230769  0.000000    0.00591716  18 t-inv F
  0.230769 -0.461538  0.000000    0.00591716  18 t-inv F
 -0.230769  0.461538  0.000000    0.00591716  18 t-inv F
 -0.307692 -0.230769  0.000000    0.00591716  19 t-inv F
 -0.538462  0.307692  0.000000    0.00591716  19 t-inv F
  0.538462 -0.307692  0.000000    0.00591716  19 t-inv F
  0.230769 -0.538462  0.000000    0.00591716  19 t-inv F
 -0.230769  0.538462  0.000000    0.00591716  19 t-inv F
  0.307692 -0.538462  0.000000    0.00591716  19 t-inv F
 -0.307692  0.538462  0.000000    0.00591716  19 t-inv F
 -0.538462  0.230769  0.000000    0.00591716  19 t-inv F
  0.538462 -0.230769  0.000000    0.00591716  19 t-inv F
  0.230769  0.307692  0.000000    0.00591716  19 t-inv F
 -0.230769 -0.307692  0.000000    0.00591716  19 t-inv F
 -0.384615 -0.230769  0.000000    0.00591716  20 t-inv F
 -0.615385  0.384615  0.000000    0.00591716  20 t-inv F
  0.615385 -0.384615  0.000000    0.00591716  20 t-inv F
  0.230769 -0.615385  0.000000    0.00591716  20 t-inv F
 -0.230769  0.615385  0.000000    0.00591716  20 t-inv F
 -0.307692 -0.307692  0.000000    0.00591716  21 t-inv F
 -0.615385  0.307692  0.000000    0.00591716  21 t-inv F
  0.615385 -0.307692  0.000000    0.00591716  21 t-inv F
  0.307692 -0.615385  0.000000    0.00591716  21 t-inv F
 -0.307692  0.615385  0.000000    0.00591716  21 t-inv F


--------------------------------------------------------------------------------------------------------




 Dimension of arrays:
   k-points           NKPTS =     21   k-points in BZ     NKDIM =     21   number of bands    NBANDS=     16
   number of dos      NEDOS =   6001   number of ions     NIONS =      2
   non local maximal  LDIM  =      5   non local SUM 2l+1 LMDIM =     13
   total plane-waves  NPLWV =  25920
   max r-space proj   IRMAX =      1   max aug-charges    IRDMAX=  47793
   dimension x,y,z NGX =    18 NGY =   18 NGZ =   80
   dimension x,y,z NGXF=    36 NGYF=   36 NGZF=  160
   support grid    NGXF=    72 NGYF=   72 NGZF=  320
   ions per type =               2
   NGX,Y,Z   is equivalent  to a cutoff of   8.30,  8.30,  8.31 a.u.
   NGXF,Y,Z  is equivalent  to a cutoff of  16.59, 16.59, 16.62 a.u.

 SYSTEM =  unknown system                          
 POSCAR =  OUTCAR.0001.+1.out 1.0e-02              

 Startparameter for this run:
   NWRITE =      3    write-flag & timer
   PREC   = accura    normal or accurate (medium, high low for compatibility)
   ISTART =      0    job   : 0-new  1-cont  2-samecut
   ICHARG =      2    charge: 1-file 2-atom 10-const
   ISPIN  =      1    spin polarized calculation?
   LNONCOLLINEAR =      F non collinear calculations
   LSORBIT =      F    spin-orbit coupling
   INIWAV =      1    electr: 0-lowe 1-rand  2-diag
   LASPH  =      T    aspherical Exc in radial PAW
 Electronic Relaxation 1
   ENCUT  =  234.8 eV  17.26 Ry    4.15 a.u.   4.51  4.51 19.99*2*pi/ulx,y,z
   ENINI  =  234.8     initial cutoff
   ENAUG  =  462.8 eV  augmentation charge cutoff
   NELM   =    200;   NELMIN=  6; NELMDL=-12     # of ELM steps 
   EDIFF  = 0.1E-05   stopping-criterion for ELM
   LREAL  =      F    real-space projection
   NLSPLINE    = F    spline interpolate recip. space projectors
   LCOMPAT=      F    compatible to vasp.4.4
   GGA_COMPAT  = T    GGA compatible to vasp.4.4-vasp.4.6
   LMAXPAW     = -100 max onsite density
   LMAXMIX     =    2 max onsite mixed and CHGCAR
   VOSKOWN=      0    Vosko Wilk Nusair interpolation
   ROPT   =    0.00000
 Ionic relaxation
   EDIFFG = 0.1E-04   stopping-criterion for IOM
   NSW    =      0    number of steps for IOM
   NBLOCK =      1;   KBLOCK =      1    inner block; outer block 
   IBRION =     -1    ionic relax: 0-MD 1-quasi-New 2-CG
   NFREE  =      0    steps in history (QN), initial steepest desc. (CG)
   ISIF   =      2    stress and relaxation
   IWAVPR =     10    prediction:  0-non 1-charg 2-wave 3-comb
   ISYM   =      2    0-nonsym 1-usesym 2-fastsym
   LCORR  =      T    Harris-Foulkes like correction to forces

   POTIM  = 0.5000    time-step for ionic-motion
   TEIN   =    0.0    initial temperature
   TEBEG  =    0.0;   TEEND  =   0.0 temperature during run
   SMASS  =  -3.00    Nose mass-parameter (am)
   estimated Nose-frequenzy (Omega)   =  0.10E-29 period in steps = 0.13E+47 mass=  -0.297E-27a.u.
   SCALEE = 1.0000    scale energy and forces
   NPACO  =    256;   APACO  = 10.0  distance and # of slots for P.C.
   PSTRESS=    0.0 pullay stress

  Mass of Ions in am
   POMASS =  74.92
  Ionic Valenz
   ZVAL   =   5.00
  Atomic Wigner-Seitz radii
   RWIGS  =  -1.00
  virtual crystal weights 
   VCA    =   1.00
   NELECT =      10.0000    total number of electrons
   NUPDOWN=      -1.0000    fix difference up-down

 DOS related values:
   EMIN   =  10.00;   EMAX   =-10.00  energy-range for DOS
   EFERMI =   0.00;   METHOD = LEGACY      
   ISMEAR =     0;   SIGMA  =   0.01  broadening in eV -4-tet -1-fermi 0-gaus

 Electronic relaxation 2 (details)
   IALGO  =     38    algorithm
   LDIAG  =      T    sub-space diagonalisation (order eigenvalues)
   LSUBROT=      F    optimize rotation matrix (better conditioning)
   TURBO    =      0    0=normal 1=particle mesh
   IRESTART =      0    0=no restart 2=restart with 2 vectors
   NREBOOT  =      0    no. of reboots
   NMIN     =      0    reboot dimension
   EREF     =   0.00    reference energy to select bands
   IMIX   =      4    mixing-type and parameters
     AMIX     =   0.10;   BMIX     =  0.00
     AMIX_MAG =   0.40;   BMIX_MAG =  0.00
     AMIN     =   0.10
     WC   =   100.;   INIMIX=   1;  MIXPRE=   1;  MAXMIX= -45

 Intra band minimization:
   WEIMIN = 0.0000     energy-eigenvalue tresh-hold
   EBREAK =  0.16E-07  absolut break condition
   DEPER  =   0.30     relativ break condition  

   TIME   =   0.40     timestep for ELM

  volume/ion in A,a.u.               =      90.13       608.25
  Fermi-wavevector in a.u.,A,eV,Ry     =   0.624361  1.179871  5.303915  0.389827
  Thomas-Fermi vector in A             =   1.684891
 
 Write flags
   LWAVE        =      F    write WAVECAR
   LDOWNSAMPLE  =      F    k-point downsampling of WAVECAR
   LCHARG       =      F    write CHGCAR
   LVTOT        =      F    write LOCPOT, total local potential
   LVHAR        =      F    write LOCPOT, Hartree potential only
   LELF         =      F    write electronic localiz. function (ELF)
   LORBIT       =     10    0 simple, 1 ext, 2 COOP (PROOUT), +10 PAW based schemes


 Dipole corrections
   LMONO  =      F    monopole corrections only (constant potential shift)
   LDIPOL =      F    correct potential (dipole corrections)
   IDIPOL =      0    1-x, 2-y, 3-z, 4-all directions 
   EPSILON=  1.0000000 bulk dielectric constant

 Exchange correlation treatment:
   GGA     =    --    GGA type
   LEXCH   =     8    internal setting for exchange type
   LIBXC   =     F    Libxc                    
   VOSKOWN =     0    Vosko Wilk Nusair interpolation
   LHFCALC =     F    Hartree Fock is set to
   LHFONE  =     F    Hartree Fock one center treatment
   AEXX    =    0.0000 exact exchange contribution

 Linear response parameters
   LEPSILON=     T    determine dielectric tensor
   LRPA    =     F    only Hartree local field effects (RPA)
   LNABLA  =     F    use nabla operator in PAW spheres
   LVEL    =     F    velocity operator in full k-point grid
   CSHIFT  =0.1000    complex shift for real part using Kramers Kronig
   OMEGAMAX=  -1.0    maximum frequency
   DEG_THRESHOLD= 0.2000000E-02 threshold for treating states as degnerate
   RTIME   =   -0.100 relaxation time in fs
  (WPLASMAI=    0.000 imaginary part of plasma frequency in eV, 0.658/RTIME)
   DFIELD  = 0.0000000 0.0000000 0.0000000 field for delta impulse in time
 
  Optional k-point grid parameters
   LKPOINTS_OPT  =     F    use optional k-point grid
   KPOINTS_OPT_MODE=     1    mode for optional k-point grid
 
 Orbital magnetization related:
   ORBITALMAG=     F  switch on orbital magnetization
   LCHIMAG   =     F  perturbation theory with respect to B field
   DQ        =  0.001000  dq finite difference perturbation B field
   LLRAUG    =     F  two centre corrections for induced B field
   LBONE     =     F  B-component reconstruction in AE one-centre
   LVGVCALC  =     T  calculate vGv susceptibility
   LVGVAPPL  =     F  apply vGv susceptibility instead of pGv for G=0

 Random number generation:
   RANDOM_GENERATOR = DEFAULT
   PCG_SEED         = not used


--------------------------------------------------------------------------------------------------------


 Static calculation
 charge density and potential will be updated during run
 non-spin polarized calculation
 Variant of blocked Davidson
 Davidson routine will perform the subspace rotation
 perform sub-space diagonalisation
    after iterative eigenvector-optimisation
 modified Broyden-mixing scheme, WC =      100.0
 initial mixing is a Kerker type mixing with AMIX =  0.1000 and BMIX =      0.0001
 Hartree-type preconditioning will be used
 using additional bands           11
 reciprocal scheme for non local part
 use partial core corrections
 calculate Harris-corrections to forces 
   (improved forces if not selfconsistent)
 use gradient corrections 
 use of overlap-Matrix (Vanderbilt PP)
 Gauss-broadening in eV      SIGMA  =   0.01


--------------------------------------------------------------------------------------------------------


  energy-cutoff  :      234.79
  volume of cell :      180.27
      direct lattice vectors                 reciprocal lattice vectors
     3.606892539  0.000000000  0.000000000     0.277246962  0.160068608  0.000000000
    -1.803446269  3.123660567  0.000000000     0.000000000  0.320137217  0.000000000
     0.000000000  0.000000000 16.000000000     0.000000000  0.000000000  0.062500000

  length of vectors
     3.606892539  3.606892539 16.000000000     0.320137217  0.320137217  0.062500000


 
 k-points in units of 2pi/SCALE and weight: kpoints                                 
   0.00000000  0.00000000  0.00000000       0.006
   0.02132669  0.01231297  0.00000000       0.036
   0.04265338  0.02462594  0.00000000       0.036
   0.06398007  0.03693891  0.00000000       0.036
   0.08530676  0.04925188  0.00000000       0.036
   0.10663345  0.06156485  0.00000000       0.036
   0.12796014  0.07387782  0.00000000       0.036
   0.02132669  0.03693891  0.00000000       0.036
   0.04265338  0.04925188  0.00000000       0.071
   0.06398007  0.06156485  0.00000000       0.071
   0.08530676  0.07387782  0.00000000       0.071
   0.10663345  0.08619079  0.00000000       0.071
   0.12796014  0.09850376  0.00000000       0.036
   0.04265338  0.07387782  0.00000000       0.036
   0.06398007  0.08619079  0.00000000       0.071
   0.08530676  0.09850376  0.00000000       0.071
   0.10663345  0.11081673  0.00000000       0.071
   0.06398007  0.11081673  0.00000000       0.036
   0.08530676  0.12312970  0.00000000       0.071
   0.10663345  0.13544267  0.00000000       0.036
   0.08530676  0.14775564  0.00000000       0.036
 
 k-points in reciprocal lattice and weights: kpoints                                 
   0.00000000  0.00000000  0.00000000       0.006
   0.07692308  0.00000000  0.00000000       0.036
   0.15384615  0.00000000  0.00000000       0.036
   0.23076923 -0.00000000  0.00000000       0.036
   0.30769231  0.00000000  0.00000000       0.036
   0.38461538  0.00000000  0.00000000       0.036
   0.46153846 -0.00000000  0.00000000       0.036
   0.07692308  0.07692308  0.00000000       0.036
   0.15384615  0.07692308  0.00000000       0.071
   0.23076923  0.07692308  0.00000000       0.071
   0.30769231  0.07692308  0.00000000       0.071
   0.38461538  0.07692308  0.00000000       0.071
   0.46153846  0.07692308  0.00000000       0.036
   0.15384615  0.15384615  0.00000000       0.036
   0.23076923  0.15384615  0.00000000       0.071
   0.30769231  0.15384615  0.00000000       0.071
   0.38461538  0.15384615  0.00000000       0.071
   0.23076923  0.23076923  0.00000000       0.036
   0.30769231  0.23076923  0.00000000       0.071
   0.38461538  0.23076923  0.00000000       0.036
   0.30769231  0.30769231  0.00000000       0.036
 
 position of ions in fractional coordinates (direct lattice) 
   0.66666667  0.33333333  0.45590119
   0.33333333  0.66666667  0.54409881
 
 position of ions in cartesian coordinates  (Angst):
   1.80344627  1.04122019  7.29441910
  -0.00000000  2.08244038  8.70558090
 


--------------------------------------------------------------------------------------------------------


 k-point   1 :   0.0000 0.0000 0.0000  plane waves:    1485
 k-point   2 :   0.0769 0.0000 0.0000  plane waves:    1493
 k-point   3 :   0.1538 0.0000 0.0000  plane waves:    1498
 k-point   4 :   0.2308-0.0000 0.0000  plane waves:    1484
 k-point   5 :   0.3077 0.0000 0.0000  plane waves:    1476
 k-point   6 :   0.3846 0.0000 0.0000  plane waves:    1462
 k-point   7 :   0.4615-0.0000 0.0000  plane waves:    1452
 k-point   8 :   0.0769 0.0769 0.0000  plane waves:    1503
 k-point   9 :   0.1538 0.0769 0.0000  plane waves:    1493
 k-point  10 :   0.2308 0.0769 0.0000  plane waves:    1489
 k-point  11 :   0.3077 0.0769 0.0000  plane waves:    1464
 k-point  12 :   0.3846 0.0769 0.0000  plane waves:    1457
 k-point  13 :   0.4615 0.0769 0.0000  plane waves:    1452
 k-point  14 :   0.1538 0.1538 0.0000  plane waves:    1493
 k-point  15 :   0.2308 0.1538 0.0000  plane waves:    1463
 k-point  16 :   0.3077 0.1538 0.0000  plane waves:    1464
 k-point  17 :   0.3846 0.1538 0.0000  plane waves:    1460
 k-point  18 :   0.2308 0.2308 0.0000  plane waves:    1459
 k-point  19 :   0.3077 0.2308 0.0000  plane waves:    1456
 k-point  20 :   0.3846 0.2308 0.0000  plane waves:    1458
 k-point  21 :   0.3077 0.3077 0.0000  plane waves:    1476

 maximum and minimum number of plane-waves per node :      1503     1452

 maximum number of plane-waves:      1503
 maximum index in each direction: 
   IXMAX=    4   IYMAX=    4   IZMAX=   19
   IXMIN=   -4   IYMIN=   -4   IZMIN=  -19


 serial   3D FFT for wavefunctions
 parallel 3D FFT for charge:
    minimum data exchange during FFTs selected (reduces bandwidth)


 total amount of memory used by VASP MPI-rank0    37959. kBytes
=======================================================================

   base      :      30000. kBytes
   nonl-proj :       3332. kBytes
   fftplans  :       2217. kBytes
   grid      :       1878. kBytes
   one-center:         16. kBytes
   wavefun   :        516. kBytes
 
     INWAV:  cpu time      0.0000: real time      0.0004
 Broyden mixing: mesh for mixing (old mesh)
   NGX =  9   NGY =  9   NGZ = 39
  (NGX  = 36   NGY  = 36   NGZ  =160)
  gives a total of   3159 points

 initial charge density was supplied:
 charge density of overlapping atoms calculated
 number of electron      10.0000000 magnetization 
 keeping initial charge density in first step


--------------------------------------------------------------------------------------------------------


 Maximum index for augmentation-charges         3092 (set IRDMAX)


--------------------------------------------------------------------------------------------------------


 First call to EWALD:  gamma=   0.314
 Maximum number of real-space cells 5x 5x 1
 Maximum number of reciprocal cells 2x 2x 7

    FEWALD:  cpu time      0.0013: real time      0.0013


--------------------------------------- Ionic step        1  -------------------------------------------




--------------------------------------- Iteration      1(   1)  ---------------------------------------


    POTLOK:  cpu time      0.0144: real time      0.1248
    SETDIJ:  cpu time      0.1521: real time      0.1522
     EDDAV:  cpu time      0.0891: real time      0.0891
       DOS:  cpu time      0.0010: real time      0.0010
    --------------------------------------------
      LOOP:  cpu time      0.2567: real time      0.3671

 eigenvalue-minimisations  :   672
 total energy-change (2. order) : 0.2135256E+02  (-0.2497366E+03)
 number of electron      10.0000000 magnetization 
 augmentation part       10.0000000 magnetization 

 Free energy of the ion-electron system (eV)
  ---------------------------------------------------
  alpha Z        PSCENC =         5.26383816
  Ewald energy   TEWEN  =       376.29297887
  -Hartree energ DENC   =      -662.55326714
  -exchange      EXHF   =         0.00000000
  -V(xc)+E(xc)   XCENC  =       -23.96458518
  PAW double counting   =       294.12882363     -251.25503797
  entropy T*S    EENTRO =        -0.00040102
  eigenvalues    EBANDS =       -56.92372225
  atomic energy  EATOM  =       340.36393574
  Solvation  Ediel_sol  =         0.00000000
  ---------------------------------------------------
  free energy    TOTEN  =        21.35256284 eV

  energy without entropy =       21.35296386  energy(sigma->0) =       21.35276335


--------------------------------------------------------------------------------------------------------




 average (electrostatic) potential at core
  the test charge radii are     1.0621
  (the norm of the test charge is              1.0000)
       1 -57.9159       2 -57.9159
 
 
 
 E-fermi :   1.9762     XC(G=0):  -3.3511     alpha+bet : -2.4472

 Fermi energy:         1.9761673125

 k-point     1 :       0.0000    0.0000    0.0000
  band No.  band energies     occupation 
      1     -15.6051      2.00000
      2      -8.5939      2.00000
      3      -2.0518      2.00000
      4       0.0779      2.00000
      5       1.3332      2.00000
      6       2.0029      0.00016
      7       2.2916      0.00000
      8       3.9191      0.00000
      9       4.2403      0.00000
     10       5.6084      0.00000
     11       6.4680      0.00000
     12       8.8055      0.00000
     13       9.6371      0.00000
     14      10.4046      0.00000
     15      13.3484      0.00000
     16      13.9203      0.00000

 k-point     2 :       0.0769    0.0000    0.0000
  band No.  band energies     occupation 
      1     -15.6455      2.00000
      2      -8.8553      2.00000
      3      -2.9233      2.00000
      4      -0.9435      2.00000
      5       1.1394      2.00000
      6       2.0131      0.00000
      7       2.4400      0.00000
      8       4.1868      0.00000
      9       4.8364      0.00000
     10       6.1861      0.00000
     11       7.5777      0.00000
     12       9.1076      0.00000
     13      11.1650      0.00000
     14      12.1418      0.00000
     15      12.6953      0.00000
     16      14.4278      0.00000

 k-point     3 :       0.1538    0.0000    0.0000
  band No.  band energies     occupation 
      1     -15.4159      2.00000
      2      -8.6670      2.00000
      3      -2.1733      2.00000
      4      -0.7032      2.00000
      5       1.9315      2.00000
      6       2.4289      0.00000
      7       2.7322      0.00000
      8       3.8854      0.00000
      9       5.1825      0.00000
     10       5.4492      0.00000
     11       7.9995      0.00000
     12       9.6963      0.00000
     13      10.4270      0.00000
     14      11.9735      0.00000
     15      12.5991      0.00000
     16      13.9707      0.00000

 k-point     4 :       0.2308   -0.0000    0.0000
  band No.  band energies     occupation 
      1     -14.7976      2.00000
      2      -7.5079      2.00000
      3      -3.0338      2.00000
      4      -0.4183      2.00000
      5       2.1595      0.00000
      6       3.0405      0.00000
      7       3.8084      0.00000
      8       4.0395      0.00000
      9       5.8945      0.00000
     10       6.8494      0.00000
     11       8.7958      0.00000
     12      10.0560      0.00000
     13      11.0395      0.00000
     14      12.2868      0.00000
     15      12.8843      0.00000
     16      13.3607      0.00000

 k-point     5 :       0.3077    0.0000    0.0000
  band No.  band energies     occupation 
      1     -14.3387      2.00000
      2      -7.0252      2.00000
      3      -5.1594      2.00000
      4      -1.4056      2.00000
      5       1.4258      2.00000
      6       2.0136      0.00000
      7       3.9193      0.00000
      8       4.3456      0.00000
      9       5.6847      0.00000
     10       6.9180      0.00000
     11       8.6145      0.00000
     12       9.4634      0.00000
     13      10.2547      0.00000
     14      10.9834      0.00000
     15      12.2826      0.00000
     16      13.6245      0.00000

 k-point     6 :       0.3846    0.0000    0.0000
  band No.  band energies     occupation 
      1     -13.2830      2.00000
      2      -7.0345      2.00000
      3      -5.2540      2.00000
      4      -1.7510      2.00000
      5       0.9845      2.00000
      6       3.5029      0.00000
      7       4.2088      0.00000
      8       4.8265      0.00000
      9       5.8039      0.00000
     10       7.1037      0.00000
     11       7.7113      0.00000
     12       8.8932      0.00000
     13       9.1826      0.00000
     14       9.6503      0.00000
     15      11.7312      0.00000
     16      12.2887      0.00000

 k-point     7 :       0.4615   -0.0000    0.0000
  band No.  band energies     occupation 
      1     -12.6245      2.00000
      2      -9.1034      2.00000
      3      -4.3301      2.00000
      4      -2.6842      2.00000
      5      -1.9157      2.00000
      6       2.5365      0.00000
      7       3.7285      0.00000
      8       5.2698      0.00000
      9       6.0619      0.00000
     10       6.9575      0.00000
     11       7.7013      0.00000
     12       8.6010      0.00000
     13       9.3955      0.00000
     14      10.1254      0.00000
     15      11.2838      0.00000
     16      13.2887      0.00000

 k-point     8 :       0.0769    0.0769    0.0000
  band No.  band energies     occupation 
      1     -15.3941      2.00000
      2      -8.6593      2.00000
      3      -2.5272      2.00000
      4      -1.5915      2.00000
      5       0.9390      2.00000
      6       2.2669      0.00000
      7       2.6652      0.00000
      8       4.1745      0.00000
      9       4.6177      0.00000
     10       5.2688      0.00000
     11       7.3580      0.00000
     12       9.0742      0.00000
     13       9.5970      0.00000
     14      10.1591      0.00000
     15      13.2024      0.00000
     16      13.8014      0.00000

 k-point     9 :       0.1538    0.0769    0.0000
  band No.  band energies     occupation 
      1     -15.2446      2.00000
      2      -8.0161      2.00000
      3      -2.6533      2.00000
      4      -1.4627      2.00000
      5       0.1468      2.00000
      6       2.5983      0.00000
      7       2.9942      0.00000
      8       3.3991      0.00000
      9       4.4338      0.00000
     10       5.3539      0.00000
     11       6.2791      0.00000
     12       8.1544      0.00000
     13       9.4831      0.00000
     14      10.9285      0.00000
     15      12.7154      0.00000
     16      13.3977      0.00000

 k-point    10 :       0.2308    0.0769    0.0000
  band No.  band energies     occupation 
      1     -15.0350      2.00000
      2      -8.0048      2.00000
      3      -5.3034      2.00000
      4      -1.7624      2.00000
      5      -0.5509      2.00000
      6       3.2058      0.00000
      7       3.5097      0.00000
      8       3.9274      0.00000
      9       4.9618      0.00000
     10       6.5329      0.00000
     11       6.7496      0.00000
     12       8.8748      0.00000
     13      10.3594      0.00000
     14      11.8558      0.00000
     15      12.4590      0.00000
     16      12.9989      0.00000

 k-point    11 :       0.3077    0.0769    0.0000
  band No.  band energies     occupation 
      1     -13.8104      2.00000
      2      -6.3949      2.00000
      3      -5.1866      2.00000
      4      -2.3692      2.00000
      5       1.5219      2.00000
      6       2.5558      0.00000
      7       4.2043      0.00000
      8       5.0026      0.00000
      9       5.5780      0.00000
     10       6.9355      0.00000
     11       7.4512      0.00000
     12       8.2822      0.00000
     13      10.1303      0.00000
     14      10.7654      0.00000
     15      11.1638      0.00000
     16      12.7149      0.00000

 k-point    12 :       0.3846    0.0769    0.0000
  band No.  band energies     occupation 
      1     -11.7127      2.00000
      2      -9.4688      2.00000
      3      -4.6246      2.00000
      4      -2.1787      2.00000
      5       1.9498      1.99981
      6       4.1974      0.00000
      7       5.2039      0.00000
      8       5.8528      0.00000
      9       6.1758      0.00000
     10       7.3905      0.00000
     11       7.9138      0.00000
     12       8.9924      0.00000
     13       9.4356      0.00000
     14      11.1481      0.00000
     15      12.1879      0.00000
     16      13.5327      0.00000

 k-point    13 :       0.4615    0.0769    0.0000
  band No.  band energies     occupation 
      1     -11.7845      2.00000
      2     -10.4234      2.00000
      3      -3.9868      2.00000
      4      -1.5039      2.00000
      5       0.7866      2.00000
      6       3.5924      0.00000
      7       4.7318      0.00000
      8       5.0388      0.00000
      9       6.3765      0.00000
     10       6.9928      0.00000
     11       7.2728      0.00000
     12       9.0660      0.00000
     13      10.3449      0.00000
     14      11.1530      0.00000
     15      12.2076      0.00000
     16      13.4361      0.00000

 k-point    14 :       0.1538    0.1538    0.0000
  band No.  band energies     occupation 
      1     -14.8224      2.00000
      2      -8.6544      2.00000
      3      -4.0921      2.00000
      4      -2.3532      2.00000
      5      -1.4374      2.00000
      6       2.6233      0.00000
      7       2.9543      0.00000
      8       3.4525      0.00000
      9       4.8105      0.00000
     10       5.7861      0.00000
     11       6.9906      0.00000
     12       8.8902      0.00000
     13       9.7686      0.00000
     14      10.7154      0.00000
     15      12.3222      0.00000
     16      13.5118      0.00000

 k-point    15 :       0.2308    0.1538    0.0000
  band No.  band energies     occupation 
      1     -14.2157      2.00000
      2      -9.0934      2.00000
      3      -4.7501      2.00000
      4      -3.2605      2.00000
      5      -1.9002      2.00000
      6       1.9762      1.00018
      7       3.8786      0.00000
      8       4.3519      0.00000
      9       6.4019      0.00000
     10       6.8725      0.00000
     11       7.4937      0.00000
     12       9.7474      0.00000
     13      11.0310      0.00000
     14      11.3610      0.00000
     15      12.2601      0.00000
     16      12.8239      0.00000

 k-point    16 :       0.3077    0.1538    0.0000
  band No.  band energies     occupation 
      1     -13.1086      2.00000
      2      -8.5867      2.00000
      3      -5.1515      2.00000
      4      -2.8736      2.00000
      5      -1.5661      2.00000
      6       2.9555      0.00000
      7       4.7135      0.00000
      8       5.1949      0.00000
      9       5.3742      0.00000
     10       7.4352      0.00000
     11       7.8639      0.00000
     12       9.1400      0.00000
     13      10.6288      0.00000
     14      11.0777      0.00000
     15      12.0329      0.00000
     16      13.5578      0.00000

 k-point    17 :       0.3846    0.1538    0.0000
  band No.  band energies     occupation 
      1     -12.3597      2.00000
      2      -9.3760      2.00000
      3      -4.6346      2.00000
      4      -4.1928      2.00000
      5      -0.4730      2.00000
      6       3.1047      0.00000
      7       5.0978      0.00000
      8       5.9851      0.00000
      9       6.5636      0.00000
     10       7.7913      0.00000
     11       8.0582      0.00000
     12       9.0377      0.00000
     13       9.6839      0.00000
     14      10.1042      0.00000
     15      10.7631      0.00000
     16      11.9936      0.00000

 k-point    18 :       0.2308    0.2308    0.0000
  band No.  band energies     occupation 
      1     -12.9566      2.00000
      2      -7.8636      2.00000
      3      -4.2533      2.00000
      4      -2.8745      2.00000
      5       0.5188      2.00000
      6       2.6319      0.00000
      7       4.6346      0.00000
      8       5.2241      0.00000
      9       5.7648      0.00000
     10       7.8663      0.00000
     11       8.3494      0.00000
     12       9.1973      0.00000
     13       9.9330      0.00000
     14      10.5760      0.00000
     15      11.1179      0.00000
     16      12.5412      0.00000

 k-point    19 :       0.3077    0.2308    0.0000
  band No.  band energies     occupation 
      1     -11.5675      2.00000
      2      -8.5089      2.00000
      3      -5.3917      2.00000
      4      -3.3350      2.00000
      5      -0.8273      2.00000
      6       2.8981      0.00000
      7       4.5378      0.00000
      8       6.4744      0.00000
      9       7.0633      0.00000
     10       8.2484      0.00000
     11       8.4114      0.00000
     12       9.0322      0.00000
     13      10.3406      0.00000
     14      11.1724      0.00000
     15      11.6111      0.00000
     16      12.3389      0.00000

 k-point    20 :       0.3846    0.2308    0.0000
  band No.  band energies     occupation 
      1     -10.6700      2.00000
      2      -9.7106      2.00000
      3      -5.5761      2.00000
      4      -1.4986      2.00000
      5       0.9919      2.00000
      6       3.2712      0.00000
      7       5.8555      0.00000
      8       6.6778      0.00000
      9       7.0842      0.00000
     10       7.6986      0.00000
     11       8.4384      0.00000
     12       8.6751      0.00000
     13       9.5062      0.00000
     14      10.1387      0.00000
     15      10.4014      0.00000
     16      13.1481      0.00000

 k-point    21 :       0.3077    0.3077    0.0000
  band No.  band energies     occupation 
      1     -11.1616      2.00000
      2      -8.5561      2.00000
      3      -4.9257      2.00000
      4      -2.3243      2.00000
      5      -0.9676      2.00000
      6       3.3097      0.00000
      7       6.2582      0.00000
      8       6.7414      0.00000
      9       7.4562      0.00000
     10       8.0280      0.00000
     11       8.4133      0.00000
     12       8.5699      0.00000
     13       9.9135      0.00000
     14      10.4399      0.00000
     15      10.7988      0.00000
     16      12.7898      0.00000


--------------------------------------------------------------------------------------------------------


 soft charge-density along one line, spin component           1
         0         1         2         3         4         5         6         7         8         9
 total charge-density along one line
 
 pseudopotential strength for first ion, spin component:           1
 25.612 -40.870   0.000   0.035  -0.000  -0.000  -0.071   0.000
-40.870  42.434  -0.000  -0.070   0.000   0.000   0.184  -0.000
  0.000  -0.000   5.911   0.000  -0.000  -7.455  -0.000   0.000
  0.035  -0.070   0.000   5.909  -0.000  -0.000  -7.453   0.000
 -0.000   0.000  -0.000  -0.000   5.911   0.000   0.000  -7.455
 -0.000   0.000  -7.455  -0.000   0.000  11.167   0.000  -0.000
 -0.071   0.184  -0.000  -7.453   0.000   0.000  11.161  -0.000
  0.000  -0.000   0.000   0.000  -7.455  -0.000  -0.000  11.167
 -0.000   0.000   0.000  -0.000   0.002  -0.000   0.000  -0.003
  0.000  -0.000   0.011   0.000  -0.000  -0.017  -0.000   0.000
 -0.002   0.002   0.000   0.009  -0.000  -0.000  -0.016   0.000
 -0.000   0.000  -0.000  -0.000   0.011   0.000   0.000  -0.017
  0.000  -0.000   0.002   0.000   0.000  -0.003  -0.000  -0.000
 total augmentation occupancy for first ion, spin component:           1
  2.000   0.000   0.000   0.000   0.000   0.000   0.000   0.000   0.000   0.000   0.000   0.000   0.000
  0.000   0.000   0.000   0.000   0.000   0.000   0.000   0.000   0.000   0.000   0.000   0.000   0.000
  0.000   0.000   1.000   0.000   0.000   0.000   0.000   0.000   0.000   0.000   0.000   0.000   0.000
  0.000   0.000   0.000   1.000   0.000   0.000   0.000   0.000   0.000   0.000   0.000   0.000   0.000
  0.000   0.000   0.000   0.000   1.000   0.000   0.000   0.000   0.000   0.000   0.000   0.000   0.000
  0.000   0.000   0.000   0.000   0.000   0.000   0.000   0.000   0.000   0.000   0.000   0.000   0.000
  0.000   0.000   0.000   0.000   0.000   0.000   0.000   0.000   0.000   0.000   0.000   0.000   0.000
  0.000   0.000   0.000   0.000   0.000   0.000   0.000   0.000   0.000   0.000   0.000   0.000   0.000
  0.000   0.000   0.000   0.000   0.000   0.000   0.000   0.000   0.000   0.000   0.000   0.000   0.000
  0.000   0.000   0.000   0.000   0.000   0.000   0.000   0.000   0.000   0.000   0.000   0.000   0.000
  0.000   0.000   0.000   0.000   0.000   0.000   0.000   0.000   0.000   0.000   0.000   0.000   0.000
  0.000   0.000   0.000   0.000   0.000   0.000   0.000   0.000   0.000   0.000   0.000   0.000   0.000
  0.000   0.000   0.000   0.000   0.000   0.000   0.000   0.000   0.000   0.000   0.000   0.000   0.000


--------------------------------------- Iteration      1(   2)  ---------------------------------------


     EDDAV:  cpu time      0.1356: real time      0.1356
       DOS:  cpu time      0.0003: real time      0.0003
    --------------------------------------------
      LOOP:  cpu time      0.1359: real time      0.1360

 eigenvalue-minimisations  :  1008
 total energy-change (2. order) :-0.3006923E+02  (-0.2985173E+02)
 number of electron      10.0000000 magnetization 
 augmentation part       10.0000000 magnetization 

 Free energy of the ion-electron system (eV)
  ---------------------------------------------------
  alpha Z        PSCENC =         5.26383816
  Ewald energy   TEWEN  =       376.29297887
  -Hartree energ DENC   =      -662.55326714
  -exchange      EXHF   =         0.00000000
  -V(xc)+E(xc)   XCENC  =       -23.96458518
  PAW double counting   =       294.12882363     -251.25503797
  entropy T*S    EENTRO =        -0.00000000
  eigenvalues    EBANDS =       -86.99335207
  atomic energy  EATOM  =       340.36393574
  Solvation  Ediel_sol  =         0.00000000
  ---------------------------------------------------
  free energy    TOTEN  =        -8.71666596 eV

  energy without entropy =       -8.71666596  energy(sigma->0) =       -8.71666596


--------------------------------------------------------------------------------------------------------




 average (electrostatic) potential at core
  the test charge radii are     1.0621
  (the norm of the test charge is              1.0000)
       1 -57.9159       2 -57.9159
 
 
 
 E-fermi :  -3.0963     XC(G=0):  -3.3511     alpha+bet : -2.4472

 Fermi energy:        -3.0962922356

 k-point     1 :       0.0000    0.0000    0.0000
  band No.  band energies     occupation 
      1     -16.9327      2.00000
      2     -10.6236      2.00000
      3      -3.9685      2.00000
      4      -3.4246      2.00000
      5      -3.1391      2.00000
      6      -1.3678      0.00000
      7       0.3771      0.00000
      8       1.8246      0.00000
      9       1.9919      0.00000
     10       2.1261      0.00000
     11       3.4218      0.00000
     12       4.2842      0.00000
     13       5.9757      0.00000
     14       7.0611      0.00000
     15       7.2578      0.00000
     16       7.7648      0.00000

 k-point     2 :       0.0769    0.0000    0.0000
  band No.  band energies     occupation 
      1     -16.8965      2.00000
      2     -10.7057      2.00000
      3      -4.2791      2.00000
      4      -3.9716      2.00000
      5      -3.6575      2.00000
      6      -0.8170      0.00000
      7       0.1135      0.00000
      8       0.3745      0.00000
      9       1.9571      0.00000
     10       2.1127      0.00000
     11       3.4836      0.00000
     12       4.3682      0.00000
     13       5.8507      0.00000
     14       6.0780      0.00000
     15       6.6930      0.00000
     16       7.2629      0.00000

 k-point     3 :       0.1538    0.0000    0.0000
  band No.  band energies     occupation 
      1     -16.6690      2.00000
      2     -10.7067      2.00000
      3      -5.4513      2.00000
      4      -4.0291      2.00000
      5      -3.8834      2.00000
      6      -1.0043      0.00000
      7       0.7050      0.00000
      8       0.9277      0.00000
      9       2.2434      0.00000
     10       2.4252      0.00000
     11       3.6955      0.00000
     12       4.6081      0.00000
     13       5.1212      0.00000
     14       6.3185      0.00000
     15       6.7447      0.00000
     16       7.6058      0.00000

 k-point     4 :       0.2308   -0.0000    0.0000
  band No.  band energies     occupation 
      1     -16.2717      2.00000
      2     -10.7985      2.00000
      3      -6.4522      2.00000
      4      -4.2672      2.00000
      5      -3.8010      2.00000
      6      -1.5594      0.00000
      7       1.0086      0.00000
      8       1.2587      0.00000
      9       2.5307      0.00000
     10       2.8617      0.00000
     11       3.9956      0.00000
     12       4.8248      0.00000
     13       5.4325      0.00000
     14       5.8458      0.00000
     15       7.2791      0.00000
     16       7.3977      0.00000

 k-point     5 :       0.3077    0.0000    0.0000
  band No.  band energies     occupation 
      1     -15.7684      2.00000
      2     -11.1796      2.00000
      3      -7.0161      2.00000
      4      -4.8472      2.00000
      5      -4.1420      2.00000
      6      -1.7886      0.00000
      7       0.6422      0.00000
      8       1.2108      0.00000
      9       3.0811      0.00000
     10       3.2800      0.00000
     11       4.1815      0.00000
     12       5.2899      0.00000
     13       5.6390      0.00000
     14       6.8722      0.00000
     15       7.2379      0.00000
     16       8.3511      0.00000

 k-point     6 :       0.3846    0.0000    0.0000
  band No.  band energies     occupation 
      1     -15.1616      2.00000
      2     -11.8537      2.00000
      3      -7.0876      2.00000
      4      -5.1611      2.00000
      5      -4.5191      2.00000
      6      -1.6231      0.00000
      7       0.2032      0.00000
      8       1.2991      0.00000
      9       3.2660      0.00000
     10       3.8468      0.00000
     11       4.5691      0.00000
     12       5.7918      0.00000
     13       6.4023      0.00000
     14       6.8834      0.00000
     15       7.5090      0.00000
     16       8.0959      0.00000

 k-point     7 :       0.4615   -0.0000    0.0000
  band No.  band energies     occupation 
      1     -14.6414      2.00000
      2     -12.4698      2.00000
      3      -6.9475      2.00000
      4      -5.3220      2.00000
      5      -5.0122      2.00000
      6      -1.4809      0.00000
      7      -0.2550      0.00000
      8       1.3705      0.00000
      9       3.0128      0.00000
     10       4.7984      0.00000
     11       5.2778      0.00000
     12       5.8562      0.00000
     13       6.3221      0.00000
     14       6.7544      0.00000
     15       7.2940      0.00000
     16       7.4382      0.00000

 k-point     8 :       0.0769    0.0769    0.0000
  band No.  band energies     occupation 
      1     -16.6788      2.00000
      2     -10.6062      2.00000
      3      -5.0043      2.00000
      4      -4.0214      2.00000
      5      -3.8651      2.00000
      6      -0.1338      0.00000
      7       0.0603      0.00000
      8       1.5489      0.00000
      9       2.2969      0.00000
     10       2.5820      0.00000
     11       3.6328      0.00000
     12       4.6242      0.00000
     13       5.3167      0.00000
     14       6.7842      0.00000
     15       7.2595      0.00000
     16       7.9109      0.00000

 k-point     9 :       0.1538    0.0769    0.0000
  band No.  band energies     occupation 
      1     -16.4225      2.00000
      2     -10.7577      2.00000
      3      -6.1027      2.00000
      4      -4.5939      2.00000
      5      -3.8735      2.00000
      6      -0.9384      0.00000
      7       0.2060      0.00000
      8       1.6054      0.00000
      9       2.4739      0.00000
     10       2.6501      0.00000
     11       3.7720      0.00000
     12       4.7517      0.00000
     13       4.9792      0.00000
     14       6.1657      0.00000
     15       7.1304      0.00000
     16       7.4690      0.00000

 k-point    10 :       0.2308    0.0769    0.0000
  band No.  band energies     occupation 
      1     -15.9727      2.00000
      2     -11.0490      2.00000
      3      -6.7919      2.00000
      4      -5.1296      2.00000
      5      -3.8406      2.00000
      6      -1.2393      0.00000
      7       0.7573      0.00000
      8       1.0662      0.00000
      9       2.8340      0.00000
     10       3.1378      0.00000
     11       4.0679      0.00000
     12       5.0578      0.00000
     13       5.4714      0.00000
     14       6.2828      0.00000
     15       7.4837      0.00000
     16       8.5943      0.00000

 k-point    11 :       0.3077    0.0769    0.0000
  band No.  band energies     occupation 
      1     -15.4111      2.00000
      2     -11.5130      2.00000
      3      -7.0475      2.00000
      4      -5.4738      2.00000
      5      -4.1757      2.00000
      6      -1.3966      0.00000
      7       0.6311      0.00000
      8       1.0539      0.00000
      9       3.4796      0.00000
     10       3.5500      0.00000
     11       4.3596      0.00000
     12       5.5576      0.00000
     13       6.0379      0.00000
     14       6.5732      0.00000
     15       7.8111      0.00000
     16       8.0564      0.00000

 k-point    12 :       0.3846    0.0769    0.0000
  band No.  band energies     occupation 
      1     -14.7753      2.00000
      2     -12.2569      2.00000
      3      -7.0075      2.00000
      4      -5.5985      2.00000
      5      -4.6226      2.00000
      6      -1.0313      0.00000
      7      -0.0655      0.00000
      8       1.1068      0.00000
      9       3.2127      0.00000
     10       4.4042      0.00000
     11       5.0036      0.00000
     12       6.1028      0.00000
     13       6.6048      0.00000
     14       6.8613      0.00000
     15       7.0071      0.00000
     16       7.7817      0.00000

 k-point    13 :       0.4615    0.0769    0.0000
  band No.  band energies     occupation 
      1     -14.4639      2.00000
      2     -12.6374      2.00000
      3      -6.9322      2.00000
      4      -5.5015      2.00000
      5      -4.9960      2.00000
      6      -0.9328      0.00000
      7      -0.3280      0.00000
      8       1.0455      0.00000
      9       3.0300      0.00000
     10       5.3983      0.00000
     11       5.4474      0.00000
     12       5.7840      0.00000
     13       6.1301      0.00000
     14       6.7563      0.00000
     15       7.2150      0.00000
     16       8.0249      0.00000

 k-point    14 :       0.1538    0.1538    0.0000
  band No.  band energies     occupation 
      1     -16.0740      2.00000
      2     -11.0084      2.00000
      3      -6.5921      2.00000
      4      -5.4665      2.00000
      5      -3.8966      2.00000
      6      -0.6396      0.00000
      7      -0.0001      0.00000
      8       1.2756      0.00000
      9       2.8698      0.00000
     10       2.9230      0.00000
     11       3.7896      0.00000
     12       4.8851      0.00000
     13       5.2806      0.00000
     14       5.9734      0.00000
     15       7.2897      0.00000
     16       7.7999      0.00000

 k-point    15 :       0.2308    0.1538    0.0000
  band No.  band energies     occupation 
      1     -15.5387      2.00000
      2     -11.4125      2.00000
      3      -6.8218      2.00000
      4      -6.0520      2.00000
      5      -4.1083      2.00000
      6      -0.7330      0.00000
      7       0.2582      0.00000
      8       1.2857      0.00000
      9       3.3448      0.00000
     10       3.5241      0.00000
     11       4.2024      0.00000
     12       5.3774      0.00000
     13       5.6366      0.00000
     14       6.0375      0.00000
     15       7.7442      0.00000
     16       8.8055      0.00000

 k-point    16 :       0.3077    0.1538    0.0000
  band No.  band energies     occupation 
      1     -14.9494      2.00000
      2     -12.0052      2.00000
      3      -6.9800      2.00000
      4      -6.2052      2.00000
      5      -4.5170      2.00000
      6      -0.6670      0.00000
      7       0.1506      0.00000
      8       1.0165      0.00000
      9       3.7097      0.00000
     10       4.1918      0.00000
     11       4.7861      0.00000
     12       5.9567      0.00000
     13       6.1897      0.00000
     14       6.8641      0.00000
     15       7.4091      0.00000
     16       7.7326      0.00000

 k-point    17 :       0.3846    0.1538    0.0000
  band No.  band energies     occupation 
      1     -14.3933      2.00000
      2     -12.5892      2.00000
      3      -7.1224      2.00000
      4      -5.9976      2.00000
      5      -4.9229      2.00000
      6      -0.6643      0.00000
      7       0.1408      0.00000
      8       0.8528      0.00000
      9       3.4428      0.00000
     10       5.1347      0.00000
     11       5.6084      0.00000
     12       6.0975      0.00000
     13       6.3783      0.00000
     14       6.6130      0.00000
     15       7.3520      0.00000
     16       7.7206      0.00000

 k-point    18 :       0.2308    0.2308    0.0000
  band No.  band energies     occupation 
      1     -14.9924      2.00000
      2     -11.8866      2.00000
      3      -6.8837      2.00000
      4      -6.5531      2.00000
      5      -4.2975      2.00000
      6      -0.5625      0.00000
      7      -0.0419      0.00000
      8       1.5214      0.00000
      9       3.9137      0.00000
     10       4.1247      0.00000
     11       4.7279      0.00000
     12       5.1778      0.00000
     13       5.8055      0.00000
     14       6.6626      0.00000
     15       7.1184      0.00000
     16       8.7084      0.00000

 k-point    19 :       0.3077    0.2308    0.0000
  band No.  band energies     occupation 
      1     -14.4148      2.00000
      2     -12.5535      2.00000
      3      -7.3840      2.00000
      4      -6.1965      2.00000
      5      -4.8213      2.00000
      6      -1.0106      0.00000
      7       0.3153      0.00000
      8       1.3109      0.00000
      9       4.1806      0.00000
     10       4.9425      0.00000
     11       5.2464      0.00000
     12       5.5156      0.00000
     13       6.0859      0.00000
     14       7.2177      0.00000
     15       7.3667      0.00000
     16       7.5138      0.00000

 k-point    20 :       0.3846    0.2308    0.0000
  band No.  band energies     occupation 
      1     -13.9731      2.00000
      2     -12.9114      2.00000
      3      -7.5160      2.00000
      4      -5.8502      2.00000
      5      -4.9986      2.00000
      6      -1.1633      0.00000
      7       0.8735      0.00000
      8       1.0514      0.00000
      9       4.2088      0.00000
     10       5.3192      0.00000
     11       5.9951      0.00000
     12       6.1220      0.00000
     13       6.2259      0.00000
     14       6.9364      0.00000
     15       7.2021      0.00000
     16       8.0744      0.00000

 k-point    21 :       0.3077    0.3077    0.0000
  band No.  band energies     occupation 
      1     -13.7922      2.00000
      2     -12.9854      2.00000
      3      -7.7020      2.00000
      4      -5.7601      2.00000
      5      -5.1886      2.00000
      6      -1.2475      0.00000
      7       1.0361      0.00000
      8       1.4818      0.00000
      9       4.9768      0.00000
     10       5.5190      0.00000
     11       5.7690      0.00000
     12       6.3812      0.00000
     13       6.7389      0.00000
     14       7.3143      0.00000
     15       7.3706      0.00000
     16       7.5513      0.00000


--------------------------------------------------------------------------------------------------------


 soft charge-density along one line, spin component           1
         0         1         2         3         4         5         6         7         8         9
 total charge-density along one line
 
 pseudopotential strength for first ion, spin component:           1
 25.612 -40.870   0.000   0.035  -0.000  -0.000  -0.071   0.000
-40.870  42.434  -0.000  -0.070   0.000   0.000   0.184  -0.000
  0.000  -0.000   5.911   0.000  -0.000  -7.455  -0.000   0.000
  0.035  -0.070   0.000   5.909  -0.000  -0.000  -7.453   0.000
 -0.000   0.000  -0.000  -0.000   5.911   0.000   0.000  -7.455
 -0.000   0.000  -7.455  -0.000   0.000  11.167   0.000  -0.000
 -0.071   0.184  -0.000  -7.453   0.000   0.000  11.161  -0.000
  0.000  -0.000   0.000   0.000  -7.455  -0.000  -0.000  11.167
 -0.000   0.000   0.000  -0.000   0.002  -0.000   0.000  -0.003
  0.000  -0.000   0.011   0.000  -0.000  -0.017  -0.000   0.000
 -0.002   0.002   0.000   0.009  -0.000  -0.000  -0.016   0.000
 -0.000   0.000  -0.000  -0.000   0.011   0.000   0.000  -0.017
  0.000  -0.000   0.002   0.000   0.000  -0.003  -0.000  -0.000
 total augmentation occupancy for first ion, spin component:           1
  2.000   0.000   0.000   0.000   0.000   0.000   0.000   0.000   0.000   0.000   0.000   0.000   0.000
  0.000   0.000   0.000   0.000   0.000   0.000   0.000   0.000   0.000   0.000   0.000   0.000   0.000
  0.000   0.000   1.000   0.000   0.000   0.000   0.000   0.000   0.000   0.000   0.000   0.000   0.000
  0.000   0.000   0.000   1.000   0.000   0.000   0.000   0.000   0.000   0.000   0.000   0.000   0.000
  0.000   0.000   0.000   0.000   1.000   0.000   0.000   0.000   0.000   0.000   0.000   0.000   0.000
  0.000   0.000   0.000   0.000   0.000   0.000   0.000   0.000   0.000   0.000   0.000   0.000   0.000
  0.000   0.000   0.000   0.000   0.000   0.000   0.000   0.000   0.000   0.000   0.000   0.000   0.000
  0.000   0.000   0.000   0.000   0.000   0.000   0.000   0.000   0.000   0.000   0.000   0.000   0.000
  0.000   0.000   0.000   0.000   0.000   0.000   0.000   0.000   0.000   0.000   0.000   0.000   0.000
  0.000   0.000   0.000   0.000   0.000   0.000   0.000   0.000   0.000   0.000   0.000   0.000   0.000
  0.000   0.000   0.000   0.000   0.000   0.000   0.000   0.000   0.000   0.000   0.000   0.000   0.000
  0.000   0.000   0.000   0.000   0.000   0.000   0.000   0.000   0.000   0.000   0.000   0.000   0.000
  0.000   0.000   0.000   0.000   0.000   0.000   0.000   0.000   0.000   0.000   0.000   0.000   0.000


--------------------------------------- Iteration      1(   3)  ---------------------------------------


     EDDAV:  cpu time      0.0972: real time      0.0972
       DOS:  cpu time      0.0003: real time      0.0003
    --------------------------------------------
      LOOP:  cpu time      0.0975: real time      0.0975

 eigenvalue-minimisations  :   736
 total energy-change (2. order) :-0.6654484E+00  (-0.6654484E+00)
 number of electron      10.0000000 magnetization 
 augmentation part       10.0000000 magnetization 

 Free energy of the ion-electron system (eV)
  ---------------------------------------------------
  alpha Z        PSCENC =         5.26383816
  Ewald energy   TEWEN  =       376.29297887
  -Hartree energ DENC   =      -662.55326714
  -exchange      EXHF   =         0.00000000
  -V(xc)+E(xc)   XCENC  =       -23.96458518
  PAW double counting   =       294.12882363     -251.25503797
  entropy T*S    EENTRO =        -0.00000000
  eigenvalues    EBANDS =       -87.65880043
  atomic energy  EATOM  =       340.36393574
  Solvation  Ediel_sol  =         0.00000000
  ---------------------------------------------------
  free energy    TOTEN  =        -9.38211432 eV

  energy without entropy =       -9.38211432  energy(sigma->0) =       -9.38211432


--------------------------------------------------------------------------------------------------------




 average (electrostatic) potential at core
  the test charge radii are     1.0621
  (the norm of the test charge is              1.0000)
       1 -57.9159       2 -57.9159
 
 
 
 E-fermi :  -3.4963     XC(G=0):  -3.3511     alpha+bet : -2.4472

 Fermi energy:        -3.4962710733

 k-point     1 :       0.0000    0.0000    0.0000
  band No.  band energies     occupation 
      1     -16.9936      2.00000
      2     -10.7559      2.00000
      3      -4.0780      2.00000
      4      -3.5421      2.00000
      5      -3.5381      2.00000
      6      -1.5917      0.00000
      7      -0.0205      0.00000
      8       0.0300      0.00000
      9       1.8339      0.00000
     10       1.9965      0.00000
     11       3.3633      0.00000
     12       4.2566      0.00000
     13       5.5620      0.00000
     14       6.6935      0.00000
     15       6.7316      0.00000
     16       7.3551      0.00000

 k-point     2 :       0.0769    0.0000    0.0000
  band No.  band energies     occupation 
      1     -16.9219      2.00000
      2     -10.7542      2.00000
      3      -4.3214      2.00000
      4      -4.0439      2.00000
      5      -3.7159      2.00000
      6      -1.0078      0.00000
      7      -0.1472      0.00000
      8       0.1465      0.00000
      9       1.9396      0.00000
     10       2.0897      0.00000
     11       3.4468      0.00000
[...]
    HAMIL1:  cpu time      0.0184: real time      0.0184
    LRDIAG:  cpu time      0.0064: real time      0.0064
    LRDIIS:  cpu time      0.0957: real time      0.0957
    LRDIAG:  cpu time      0.0052: real time      0.0052
    MIXING:  cpu time      0.0005: real time      0.0005
    --------------------------------------------
      LOOP:  cpu time      0.4679: real time      0.4681

 Broyden mixing:
  rms(total) = 0.12537E-03    rms(broyden)= 0.12536E-03
  rms(prec ) = 0.14783E-03
  weight for this iteration     100.00

 eigenvalues of (default mixing * dielectric matrix)
  average eigenvalue GAMMA=   4.1810
  9.9690  7.6752  5.8164  5.5046  1.4865  1.0285  0.9838  0.9838

 Free energy of the ion-electron system (eV)
  ---------------------------------------------------
  -Hartree energ DENC   =        -0.12413127
  -V(xc)+E(xc)   XCENC  =         0.00448810
  PAW double counting   =         0.01373086       -0.01365013
  entropy T*S    EENTRO =         0.00000000
  eigenvalues    EBANDS =        -0.05816403
  ---------------------------------------------------
  free energy    TOTEN  =        -0.17772648 eV

  energy without entropy =       -0.17772648


----------------------------------------- Iteration    3(  11)  ---------------------------------------


   POT+DIJ:  cpu time      0.3201: real time      0.3201
    HAMIL1:  cpu time      0.0184: real time      0.0184
    LRDIAG:  cpu time      0.0065: real time      0.0065
    LRDIIS:  cpu time      0.0933: real time      0.0933
    LRDIAG:  cpu time      0.0052: real time      0.0052
    MIXING:  cpu time      0.0005: real time      0.0005
    --------------------------------------------
      LOOP:  cpu time      0.4662: real time      0.4664

 Broyden mixing:
  rms(total) = 0.27833E-04    rms(broyden)= 0.27817E-04
  rms(prec ) = 0.32632E-04
  weight for this iteration     100.00

 eigenvalues of (default mixing * dielectric matrix)
  average eigenvalue GAMMA=   4.0831
 10.1485  8.3636  7.1597  5.3789  1.4865  0.9853  0.9853  1.0359  1.2048

 Free energy of the ion-electron system (eV)
  ---------------------------------------------------
  -Hartree energ DENC   =        -0.12409319
  -V(xc)+E(xc)   XCENC  =         0.00448728
  PAW double counting   =         0.01384403       -0.01376524
  entropy T*S    EENTRO =         0.00000000
  eigenvalues    EBANDS =        -0.05819337
  ---------------------------------------------------
  free energy    TOTEN  =        -0.17772049 eV

  energy without entropy =       -0.17772049


----------------------------------------- Iteration    3(  12)  ---------------------------------------


   POT+DIJ:  cpu time      0.3202: real time      0.3203
    HAMIL1:  cpu time      0.0183: real time      0.0184
    LRDIAG:  cpu time      0.0064: real time      0.0064
    LRDIIS:  cpu time      0.0964: real time      0.0964
    LRDIAG:  cpu time      0.0052: real time      0.0052
    MIXING:  cpu time      0.0005: real time      0.0005
    --------------------------------------------
      LOOP:  cpu time      0.4689: real time      0.4691

 Broyden mixing:
  rms(total) = 0.63687E-05    rms(broyden)= 0.63646E-05
  rms(prec ) = 0.69729E-05
  weight for this iteration     100.00

 eigenvalues of (default mixing * dielectric matrix)
  average eigenvalue GAMMA=   4.1777
 10.1777  9.0419  7.3335  5.3786  4.3659  1.4865  1.0310  0.9963  0.9963  0.9695

 Free energy of the ion-electron system (eV)
  ---------------------------------------------------
  -Hartree energ DENC   =        -0.12410088
  -V(xc)+E(xc)   XCENC  =         0.00448797
  PAW double counting   =         0.01383204       -0.01375328
  entropy T*S    EENTRO =         0.00000000
  eigenvalues    EBANDS =        -0.05818831
  ---------------------------------------------------
  free energy    TOTEN  =        -0.17772245 eV

  energy without entropy =       -0.17772245


----------------------------------------- Iteration    3(  13)  ---------------------------------------


   POT+DIJ:  cpu time      0.3203: real time      0.3204
    HAMIL1:  cpu time      0.0183: real time      0.0183
    LRDIAG:  cpu time      0.0064: real time      0.0064
    LRDIIS:  cpu time      0.0956: real time      0.0956
    LRDIAG:  cpu time      0.0052: real time      0.0052
    MIXING:  cpu time      0.0005: real time      0.0005
    --------------------------------------------
      LOOP:  cpu time      0.4682: real time      0.4684

 Broyden mixing:
  rms(total) = 0.69771E-05    rms(broyden)= 0.69763E-05
  rms(prec ) = 0.81815E-05
  weight for this iteration     100.00

 eigenvalues of (default mixing * dielectric matrix)
  average eigenvalue GAMMA=   4.2840
 10.4370  9.8969  7.8873  7.0590  5.3800  1.4865  1.0276  1.0094  0.9899  0.9899
  0.9608

 Free energy of the ion-electron system (eV)
  ---------------------------------------------------
  -Hartree energ DENC   =        -0.12410175
  -V(xc)+E(xc)   XCENC  =         0.00448802
  PAW double counting   =         0.01383171       -0.01375295
  entropy T*S    EENTRO =         0.00000000
  eigenvalues    EBANDS =        -0.05818786
  ---------------------------------------------------
  free energy    TOTEN  =        -0.17772284 eV

  energy without entropy =       -0.17772284


------------------------ aborting loop because EDIFF is reached ----------------------------------------


 change of polarisation eV/A/(eV/A) component  3 :    -0.031     0.000     0.334
 dielectric tensor                  component  3 :    -0.031     0.000     1.335


--------------------------------------------------------------------------------------------------------


    FORLOC:  cpu time      0.0004: real time      0.0004
    FORNL :  cpu time      0.0285: real time      0.0285
    STRESS:  cpu time      0.1761: real time      0.1762
    FORCOR:  cpu time      0.0080: real time      0.0080
    OFIELD:  cpu time      0.0001: real time      0.0001
    FORLOC:  cpu time      0.0004: real time      0.0004
    FORNL :  cpu time      0.0284: real time      0.0284
    STRESS:  cpu time      0.1759: real time      0.1760
    FORCOR:  cpu time      0.0080: real time      0.0080
    OFIELD:  cpu time      0.0001: real time      0.0001
    FORNLD:  cpu time      0.0701: real time      0.0701

 PIEZOELECTRIC TENSOR FIELD DIRECTION 3  (e Angst)
 -----------------------------------------------------------------------------
    -0.00031  0.00000 -0.00000           (  0.00000  0.00000  0.00000)
     0.00000 -0.00031 -0.00000           (  0.00000  0.00000  0.00000)
     0.00000  0.00000  0.00022           (  0.00000  0.00000  0.00000)

 PIEZOELECTRIC TENSOR FIELD DIRECTION 3  (C/m^2)
 -----------------------------------------------------------------------------
    -0.00003  0.00000 -0.00000
     0.00000 -0.00003 -0.00000
     0.00000  0.00000  0.00002


      POSITION         DIRECTION 3           BORN EFFECTIVE CHARGE    (rigid.aug.   ionic)
 -----------------------------------------------------------------------------------------
      1.80345      1.04122      7.29442    -0.00000 -0.00000  0.00231 (  0.81330  5.00000)
     -0.00000      2.08244      8.70558    -0.00000  0.00000  0.00266 (  0.81330  5.00000)
 -----------------------------------------------------------------------------------------
    total drift (improves with k-points):  -0.00000 -0.00000  0.00497




--------------------------------------------------------------------------------------------------------


  LATTYP: Found a hexagonal cell.
 ALAT       =     3.6068925390
 C/A-ratio  =     4.4359513978
  
  Lattice vectors:
  
 A1 = (   3.6068925390,   0.0000000000,   0.0000000000)
 A2 = (  -1.8034462695,   3.1236605675,   0.0000000000)
 A3 = (   0.0000000000,   0.0000000000,  16.0000000000)


Analysis of symmetry for initial positions (statically):
=====================================================================
 Subroutine PRICEL returns:
 Original cell was already a primitive cell.
 

 Routine SETGRP: Setting up the symmetry group for a 
 hexagonal supercell.


 Subroutine GETGRP returns: Found 12 space group operations
 (whereof 12 operations were pure point group operations)
 out of a pool of 24 trial point group operations.


The static configuration has the point symmetry D_3d.


Analysis of symmetry for dynamics (positions and initial velocities):
=====================================================================
 Subroutine PRICEL returns:
 Original cell was already a primitive cell.
 

 Routine SETGRP: Setting up the symmetry group for a 
 hexagonal supercell.


 Subroutine GETGRP returns: Found 12 space group operations
 (whereof 12 operations were pure point group operations)
 out of a pool of 24 trial point group operations.


The dynamic configuration has the point symmetry D_3d.


 Subroutine INISYM returns: Found 12 space group operations
 (whereof 12 operations are pure point group operations),
 and found     1 'primitive' translations

 
 KPOINTS: kpoints                                 

Automatic generation of k-mesh.
 Grid dimensions read from file:
 generate k-points for:   13   13    1

 Generating k-lattice:

  Cartesian coordinates                     Fractional coordinates (reciprocal lattice)
     0.021326689  0.012312970  0.000000000     0.076923077  0.000000000  0.000000000
     0.000000000  0.024625940  0.000000000     0.000000000  0.076923077  0.000000000
     0.000000000  0.000000000  0.062500000     0.000000000  0.000000000  1.000000000

  Length of vectors
     0.024625940  0.024625940  0.062500000

  Shift w.r.t. Gamma in fractional coordinates (k-lattice)
     0.000000000  0.000000000  0.000000000

 
 Subroutine IBZKPT returns following result:
 ===========================================
 
 Found     21 irreducible k-points:
 
 Following reciprocal coordinates:
            Coordinates               Weight
  0.000000  0.000000  0.000000      1.000000
  0.076923  0.000000  0.000000      6.000000
  0.153846  0.000000  0.000000      6.000000
  0.230769 -0.000000  0.000000      6.000000
  0.307692  0.000000  0.000000      6.000000
  0.384615  0.000000  0.000000      6.000000
  0.461538 -0.000000  0.000000      6.000000
  0.076923  0.076923  0.000000      6.000000
  0.153846  0.076923  0.000000     12.000000
  0.230769  0.076923  0.000000     12.000000
  0.307692  0.076923  0.000000     12.000000
  0.384615  0.076923  0.000000     12.000000
  0.461538  0.076923  0.000000      6.000000
  0.153846  0.153846  0.000000      6.000000
  0.230769  0.153846  0.000000     12.000000
  0.307692  0.153846  0.000000     12.000000
  0.384615  0.153846  0.000000     12.000000
  0.230769  0.230769  0.000000      6.000000
  0.307692  0.230769  0.000000     12.000000
  0.384615  0.230769  0.000000      6.000000
  0.307692  0.307692  0.000000      6.000000
 
 Following cartesian coordinates:
            Coordinates               Weight
  0.000000  0.000000  0.000000      1.000000
  0.021327  0.012313  0.000000      6.000000
  0.042653  0.024626  0.000000      6.000000
  0.063980  0.036939  0.000000      6.000000
  0.085307  0.049252  0.000000      6.000000
  0.106633  0.061565  0.000000      6.000000
  0.127960  0.073878  0.000000      6.000000
  0.021327  0.036939  0.000000      6.000000
  0.042653  0.049252  0.000000     12.000000
  0.063980  0.061565  0.000000     12.000000
  0.085307  0.073878  0.000000     12.000000
  0.106633  0.086191  0.000000     12.000000
  0.127960  0.098504  0.000000      6.000000
  0.042653  0.073878  0.000000      6.000000
  0.063980  0.086191  0.000000     12.000000
  0.085307  0.098504  0.000000     12.000000
  0.106633  0.110817  0.000000     12.000000
  0.063980  0.110817  0.000000      6.000000
  0.085307  0.123130  0.000000     12.000000
  0.106633  0.135443  0.000000      6.000000
  0.085307  0.147756  0.000000      6.000000
 


 MACROSCOPIC STATIC DIELECTRIC TENSOR (including local field effects in DFT)
 ------------------------------------------------------
           4.823046     0.000000     0.000000
           0.000000     4.823046    -0.000000
          -0.000000     0.000000     1.335380
 ------------------------------------------------------



--------------------------------------------------------------------------------------------------------


  LATTYP: Found a hexagonal cell.
 ALAT       =     3.6068925390
 C/A-ratio  =     4.4359513978
  
  Lattice vectors:
  
 A1 = (   3.6068925390,   0.0000000000,   0.0000000000)
 A2 = (  -1.8034462695,   3.1236605675,   0.0000000000)
 A3 = (   0.0000000000,   0.0000000000,  16.0000000000)


Analysis of symmetry for initial positions (statically):
=====================================================================
 Subroutine PRICEL returns:
 Original cell was already a primitive cell.
 

 Routine SETGRP: Setting up the symmetry group for a 
 hexagonal supercell.


 Subroutine GETGRP returns: Found 12 space group operations
 (whereof 12 operations were pure point group operations)
 out of a pool of 24 trial point group operations.


The static configuration has the point symmetry D_3d.


Analysis of symmetry for dynamics (positions and initial velocities):
=====================================================================
 Subroutine PRICEL returns:
 Original cell was already a primitive cell.
 

 Routine SETGRP: Setting up the symmetry group for a 
 hexagonal supercell.


 Subroutine GETGRP returns: Found 12 space group operations
 (whereof 12 operations were pure point group operations)
 out of a pool of 24 trial point group operations.


The dynamic configuration has the point symmetry D_3d.


 Subroutine INISYM returns: Found 12 space group operations
 (whereof 12 operations are pure point group operations),
 and found     1 'primitive' translations

 
 KPOINTS: kpoints                                 

Automatic generation of k-mesh.
 Grid dimensions read from file:
 generate k-points for:   13   13    1

 Generating k-lattice:

  Cartesian coordinates                     Fractional coordinates (reciprocal lattice)
     0.021326689  0.012312970  0.000000000     0.076923077  0.000000000  0.000000000
     0.000000000  0.024625940  0.000000000     0.000000000  0.076923077  0.000000000
     0.000000000  0.000000000  0.062500000     0.000000000  0.000000000  1.000000000

  Length of vectors
     0.024625940  0.024625940  0.062500000

  Shift w.r.t. Gamma in fractional coordinates (k-lattice)
     0.000000000  0.000000000  0.000000000

 
 Subroutine IBZKPT returns following result:
 ===========================================
 
 Found     21 irreducible k-points:
 
 Following reciprocal coordinates:
            Coordinates               Weight
  0.000000  0.000000  0.000000      1.000000
  0.076923  0.000000  0.000000      6.000000
  0.153846  0.000000  0.000000      6.000000
  0.230769 -0.000000  0.000000      6.000000
  0.307692  0.000000  0.000000      6.000000
  0.384615  0.000000  0.000000      6.000000
  0.461538 -0.000000  0.000000      6.000000
  0.076923  0.076923  0.000000      6.000000
  0.153846  0.076923  0.000000     12.000000
  0.230769  0.076923  0.000000     12.000000
  0.307692  0.076923  0.000000     12.000000
  0.384615  0.076923  0.000000     12.000000
  0.461538  0.076923  0.000000      6.000000
  0.153846  0.153846  0.000000      6.000000
  0.230769  0.153846  0.000000     12.000000
  0.307692  0.153846  0.000000     12.000000
  0.384615  0.153846  0.000000     12.000000
  0.230769  0.230769  0.000000      6.000000
  0.307692  0.230769  0.000000     12.000000
  0.384615  0.230769  0.000000      6.000000
  0.307692  0.307692  0.000000      6.000000
 
 Following cartesian coordinates:
            Coordinates               Weight
  0.000000  0.000000  0.000000      1.000000
  0.021327  0.012313  0.000000      6.000000
  0.042653  0.024626  0.000000      6.000000
  0.063980  0.036939  0.000000      6.000000
  0.085307  0.049252  0.000000      6.000000
  0.106633  0.061565  0.000000      6.000000
  0.127960  0.073878  0.000000      6.000000
  0.021327  0.036939  0.000000      6.000000
  0.042653  0.049252  0.000000     12.000000
  0.063980  0.061565  0.000000     12.000000
  0.085307  0.073878  0.000000     12.000000
  0.106633  0.086191  0.000000     12.000000
  0.127960  0.098504  0.000000      6.000000
  0.042653  0.073878  0.000000      6.000000
  0.063980  0.086191  0.000000     12.000000
  0.085307  0.098504  0.000000     12.000000
  0.106633  0.110817  0.000000     12.000000
  0.063980  0.110817  0.000000      6.000000
  0.085307  0.123130  0.000000     12.000000
  0.106633  0.135443  0.000000      6.000000
  0.085307  0.147756  0.000000      6.000000
 


--------------------------------------------------------------------------------------------------------




 MACROSCOPIC STATIC DIELECTRIC TENSOR (including local field effects in DFT)
 ------------------------------------------------------
           4.823046     0.000000     0.000000
           0.000000     4.823046    -0.000000
          -0.000000     0.000000     1.335380
 ------------------------------------------------------


 PIEZOELECTRIC TENSOR (including local field effects)  for field in x, y, z        (e  Angst)
          XX          YY          ZZ          XY          YZ          ZX
  --------------------------------------------------------------------------------
  x     0.00000     0.00000     0.00000     0.00000     0.00000     0.00000
  y     0.00000     0.00000     0.00000     0.00000     0.00000     0.00000
  z     0.00000     0.00000     0.00000     0.00000     0.00000     0.00000

 PIEZOELECTRIC TENSOR (including local field effects)  for field in x, y, z        (C/m^2)
          XX          YY          ZZ          XY          YZ          ZX
  --------------------------------------------------------------------------------
  x     0.00000     0.00000     0.00000     0.00000     0.00000     0.00000
  y     0.00000     0.00000     0.00000     0.00000     0.00000     0.00000
  z     0.00000     0.00000     0.00000     0.00000     0.00000     0.00000
 
 BORN EFFECTIVE CHARGES (including local field effects) (in |e|, cummulative output)
 ---------------------------------------------------------------------------------
 ion    1
    1     0.00000     0.00000     0.00000
    2     0.00000     0.00000     0.00000
    3     0.00000     0.00000     0.00000
 ion    2
    1     0.00000     0.00000     0.00000
    2     0.00000     0.00000     0.00000
    3     0.00000     0.00000     0.00000


--------------------------------------------------------------------------------------------------------


     LOOP+:  cpu time     46.3370: real time     51.2341
    4ORBIT:  cpu time      0.0000: real time      0.0000



 total charge

# of ion       s       p       d       tot
------------------------------------------
    1        1.292   1.347   0.040   2.679
    2        1.292   1.347   0.040   2.679
--------------------------------------------------
tot          2.584   2.694   0.081   5.358
 

 total amount of memory used by VASP MPI-rank0    37959. kBytes
=======================================================================

   base      :      30000. kBytes
   nonl-proj :       3332. kBytes
   fftplans  :       2217. kBytes
   grid      :       1878. kBytes
   one-center:         16. kBytes
   wavefun   :        516. kBytes
 
  
  
 General timing and accounting informations for this job:
 ========================================================
  
                  Total CPU time used (sec):       46.846
                            User time (sec):       46.618
                          System time (sec):        0.228
                         Elapsed time (sec):       53.059
  
                   Maximum memory used (kb):      177048.
                   Average memory used (kb):          N/A
  
                          Minor page faults:        33327
                          Major page faults:         2891
                 Voluntary context switches:          552
