 vasp.6.4.2 20Jul23 (build Nov 14 2023 12:59:38) complex                        
  
 executed on             LinuxIFC date 2023.12.29  15:36:49
 running   16 mpi-ranks, on    1 nodes
 distrk:  each k-point on   16 cores,    1 groups
 distr:  one band on NCORE=   1 cores,   16 groups


--------------------------------------------------------------------------------------------------------


 INCAR:
   ENCUT = 234.789750
   ALGO = Normal
   NELM = 200
   NELMIN = 6
   NELMDL = -12
   EDIFF = 1.0E-6
   AMIX = 0.1
   BMIX = 0.0001
   PREC = Accurate
   IVDW = 0
   ISPIN = 1
   ADDGRID = .TRUE.
   LASPH = .TRUE.
   LREAL = .FALSE.
   NSW = 1
   EDIFFG = -0.010
   IBRION = 8
   POTIM = 0.01
   STRESSTYPE = 2
   LEPSILON = .FALSE.
   ISMEAR = 0
   SIGMA = 0.01
   LORBIT = 10
   NEDOS = 6001
   NWRITE = 3
   LWAVE = .FALSE.
   LCHARG = .FALSE.
   ICHARG = 2
   LELF = .FALSE.
   LVTOT = .FALSE.
   LPLANE = .TRUE.

 POTCAR:    PAW_PBE As_GW 20Mar2012               
 -----------------------------------------------------------------------------
|                                                                             |
|           W    W    AA    RRRRR   N    N  II  N    N   GGGG   !!!           |
|           W    W   A  A   R    R  NN   N  II  NN   N  G    G  !!!           |
|           W    W  A    A  R    R  N N  N  II  N N  N  G       !!!           |
|           W WW W  AAAAAA  RRRRR   N  N N  II  N  N N  G  GGG   !            |
|           WW  WW  A    A  R   R   N   NN  II  N   NN  G    G                |
|           W    W  A    A  R    R  N    N  II  N    N   GGGG   !!!           |
|                                                                             |
|     For optimal performance we recommend to set                             |
|       NCORE = 2 up to number-of-cores-per-socket                            |
|     NCORE specifies how many cores store one orbital (NPAR=cpu/NCORE).      |
|     This setting can greatly improve the performance of VASP for DFT.       |
|     The default, NCORE=1 might be grossly inefficient on modern             |
|     multi-core architectures or massively parallel machines. Do your        |
|     own testing! More info at https://www.vasp.at/wiki/index.php/NCORE      |
|     Unfortunately you need to use the default for GW and RPA                |
|     calculations (for HF NCORE is supported but not extensively tested      |
|     yet).                                                                   |
|                                                                             |
 -----------------------------------------------------------------------------

 POTCAR:    PAW_PBE As_GW 20Mar2012               
   SHA256 =  a9e2ff0950b1b79091db2e66c8f6a7a7244f007cee0c91008df893b76da4c5a2 As_GW/POTCAR          
   COPYR  = (c) Copyright 20Mar2012 Georg Kresse                                                    
   COPYR  = This file is part of the software VASP. Any use, copying, and all other rights are regul
   COPYR  = If you do not have a valid VASP license, you may not use, copy or distribute this file. 
   VRHFIN =As: s2p3                                                                                 
   LEXCH  = PE                                                                                      
   EATOM  =   170.1867 eV,   12.5084 Ry                                                             
                                                                                                    
   TITEL  = PAW_PBE As_GW 20Mar2012                                                                 
   LULTRA =        F    use ultrasoft PP ?                                                          
   IUNSCR =        1    unscreen: 0-lin 1-nonlin 2-no                                               
   RPACOR =    1.900    partial core radius                                                         
   POMASS =   74.922; ZVAL   =    5.000    mass and valenz                                          
   RCORE  =    2.100    outmost cutoff radius                                                       
   RWIGS  =    2.300; RWIGS  =    1.217    wigner-seitz radius (au A)                               
   ENMAX  =  208.702; ENMIN  =  156.526 eV                                                          
   ICORE  =        3    local potential                                                             
   LCOR   =        T    correct aug charges                                                         
   LPAW   =        T    paw PP                                                                      
   EAUG   =  462.758                                                                                
   RMAX   =    2.144    core radius for proj-oper                                                   
   RAUG   =    1.300    factor for augmentation sphere                                              
   RDEP   =    2.140    radius for radial grids                                                     
   RDEPT  =    1.956    core radius for aug-charge                                                  
                                                                                                    
   Atomic configuration                                                                             
   10 entries                                                                                       
     n  l   j            E        occ.                                                              
     1  0  0.50    -11718.0418   2.0000                                                             
     2  0  0.50     -1486.5454   2.0000                                                             
     2  1  1.50     -1303.3889   6.0000                                                             
     3  0  0.50      -190.2849   2.0000                                                             
     3  1  1.50      -133.6555   6.0000                                                             
     3  2  2.50       -40.6443  10.0000                                                             
     4  0  0.50       -14.4936   2.0000                                                             
     4  1  0.50        -5.1947   3.0000                                                             
     4  2  1.50        -5.4423   0.0000                                                             
     4  3  2.50        -5.4423   0.0000                                                             
   Description                                                                                      
     l       E           TYP  RCUT    TYP  RCUT                                                     
     0    -14.4935572     23  2.100                                                                 
     0     81.6349560     23  2.100                                                                 
     1     -5.1947128     23  2.100                                                                 
     1     95.2407820     23  2.100                                                                 
     2     -5.4423304     23  2.100                                                                 
     3     -1.3605826      7  2.100                                                                 
  local pseudopotential read in
  partial core-charges read in
  partial kinetic energy density read in
  kinetic energy density of atom read in
  atomic valenz-charges read in
  non local Contribution for L=           0  read in
    real space projection operators read in
  non local Contribution for L=           0  read in
    real space projection operators read in
  non local Contribution for L=           1  read in
    real space projection operators read in
  non local Contribution for L=           1  read in
    real space projection operators read in
  non local Contribution for L=           2  read in
    real space projection operators read in
    PAW grid and wavefunctions read in
 
   number of l-projection  operators is LMAX  =           5
   number of lm-projection operators is LMMAX =          13
 
  PAW_PBE As_GW 20Mar2012               :
 energy of atom  1       EATOM= -170.1867
 kinetic energy error for atom=    0.0047 (will be added to EATOM!!)
 
 
 POSCAR: pnictogen honeycomb monolayer
  positions in direct lattice
  velocities in cartesian coordinates
 exchange correlation table for  LEXCH =        8
   RHO(1)=    0.500       N(1)  =     2000
   RHO(2)=  100.500       N(2)  =     4000
 -----------------------------------------------------------------------------
|                                                                             |
|           W    W    AA    RRRRR   N    N  II  N    N   GGGG   !!!           |
|           W    W   A  A   R    R  NN   N  II  NN   N  G    G  !!!           |
|           W    W  A    A  R    R  N N  N  II  N N  N  G       !!!           |
|           W WW W  AAAAAA  RRRRR   N  N N  II  N  N N  G  GGG   !            |
|           WW  WW  A    A  R   R   N   NN  II  N   NN  G    G                |
|           W    W  A    A  R    R  N    N  II  N    N   GGGG   !!!           |
|                                                                             |
|     The following INCAR tags have not been used:                            |
|     In line 28: STRESSTYPE                                                  |
|     Please check whether the tags are spelled correctly, have the           |
|     correct format, and do not appear multiple times in the file.           |
|                                                                             |
 -----------------------------------------------------------------------------

 


--------------------------------------------------------------------------------------------------------


 ion  position               nearest neighbor table
   1  0.667  0.333  0.456-   2 2.51   2 2.51   2 2.51
   2  0.333  0.667  0.544-   1 2.51   1 2.51   1 2.51
 
  LATTYP: Found a hexagonal cell.
 ALAT       =     3.6068925390
 C/A-ratio  =     4.4359513978
  
  Lattice vectors:
  
 A1 = (   3.6068925390,   0.0000000000,   0.0000000000)
 A2 = (  -1.8034462695,   3.1236605675,   0.0000000000)
 A3 = (   0.0000000000,   0.0000000000,  16.0000000000)


Analysis of symmetry for initial positions (statically):
=====================================================================
 Subroutine PRICEL returns:
 Original cell was already a primitive cell.
 

 Routine SETGRP: Setting up the symmetry group for a 
 hexagonal supercell.


 Subroutine GETGRP returns: Found 12 space group operations
 (whereof 12 operations were pure point group operations)
 out of a pool of 24 trial point group operations.


The static configuration has the point symmetry D_3d.


Analysis of symmetry for dynamics (positions and initial velocities):
=====================================================================
 Subroutine PRICEL returns:
 Original cell was already a primitive cell.
 

 Routine SETGRP: Setting up the symmetry group for a 
 hexagonal supercell.


 Subroutine GETGRP returns: Found 12 space group operations
 (whereof 12 operations were pure point group operations)
 out of a pool of 24 trial point group operations.


The dynamic configuration has the point symmetry D_3d.


 Subroutine INISYM returns: Found 12 space group operations
 (whereof 12 operations are pure point group operations),
 and found     1 'primitive' translations



 irot  :   1
 --------------------------------------------------------------------
 isymop:   1   0   0
           0   1   0
           0   0   1

 gtrans:     0.0000000     0.0000000     0.0000000

 ptrans:     0.0000000     0.0000000     0.0000000
 
 rotmap:
 (   1->   1)  (   2->   2) 


 irot  :   2
 --------------------------------------------------------------------
 isymop:  -1   0   0
           0  -1   0
           0   0  -1

 gtrans:     0.0000000     0.0000000     0.0000000

 ptrans:     0.0000000     0.0000000     0.0000000
 
 rotmap:
 (   1->   2)  (   2->   1) 


 irot  :   3
 --------------------------------------------------------------------
 isymop:   0  -1   0
           1  -1   0
           0   0   1

 gtrans:     0.0000000     0.0000000     0.0000000

 ptrans:     0.0000000     0.0000000     0.0000000
 
 rotmap:
 (   1->   1)  (   2->   2) 


 irot  :   4
 --------------------------------------------------------------------
 isymop:   0   1   0
          -1   1   0
           0   0  -1

 gtrans:     0.0000000     0.0000000     0.0000000

 ptrans:     0.0000000     0.0000000     0.0000000
 
 rotmap:
 (   1->   2)  (   2->   1) 


 irot  :   5
 --------------------------------------------------------------------
 isymop:  -1   1   0
          -1   0   0
           0   0   1

 gtrans:     0.0000000     0.0000000     0.0000000

 ptrans:     0.0000000     0.0000000     0.0000000
 
 rotmap:
 (   1->   1)  (   2->   2) 


 irot  :   6
 --------------------------------------------------------------------
 isymop:   1  -1   0
           1   0   0
           0   0  -1

 gtrans:     0.0000000     0.0000000     0.0000000

 ptrans:     0.0000000     0.0000000     0.0000000
 
 rotmap:
 (   1->   2)  (   2->   1) 


 irot  :   7
 --------------------------------------------------------------------
 isymop:   1  -1   0
           0  -1   0
           0   0  -1

 gtrans:     0.0000000     0.0000000     0.0000000

 ptrans:     0.0000000     0.0000000     0.0000000
 
 rotmap:
 (   1->   2)  (   2->   1) 


 irot  :   8
 --------------------------------------------------------------------
 isymop:  -1   1   0
           0   1   0
           0   0   1

 gtrans:     0.0000000     0.0000000     0.0000000

 ptrans:     0.0000000     0.0000000     0.0000000
 
 rotmap:
 (   1->   1)  (   2->   2) 


 irot  :   9
 --------------------------------------------------------------------
 isymop:  -1   0   0
          -1   1   0
           0   0  -1

 gtrans:     0.0000000     0.0000000     0.0000000

 ptrans:     0.0000000     0.0000000     0.0000000
 
 rotmap:
 (   1->   2)  (   2->   1) 


 irot  :  10
 --------------------------------------------------------------------
 isymop:   1   0   0
           1  -1   0
           0   0   1

 gtrans:     0.0000000     0.0000000     0.0000000

 ptrans:     0.0000000     0.0000000     0.0000000
 
 rotmap:
 (   1->   1)  (   2->   2) 


 irot  :  11
 --------------------------------------------------------------------
 isymop:   0   1   0
           1   0   0
           0   0  -1

 gtrans:     0.0000000     0.0000000     0.0000000

 ptrans:     0.0000000     0.0000000     0.0000000
 
 rotmap:
 (   1->   2)  (   2->   1) 


 irot  :  12
 --------------------------------------------------------------------
 isymop:   0  -1   0
          -1   0   0
           0   0   1

 gtrans:     0.0000000     0.0000000     0.0000000

 ptrans:     0.0000000     0.0000000     0.0000000
 
 rotmap:
 (   1->   1)  (   2->   2) 

----------------------------------------------------------------------------------------

                                     Primitive cell                                     

  volume of cell :     180.2673

  direct lattice vectors                    reciprocal lattice vectors
     3.606892539  0.000000000  0.000000000     0.277246962  0.160068608  0.000000000
    -1.803446269  3.123660567  0.000000000     0.000000000  0.320137217  0.000000000
     0.000000000  0.000000000 16.000000000     0.000000000  0.000000000  0.062500000

  length of vectors
     3.606892539  3.606892539 16.000000000     0.320137217  0.320137217  0.062500000

  position of ions in fractional coordinates (direct lattice)
     0.666666667  0.333333333  0.456343136
     0.333333333  0.666666667  0.543656864

  ion indices of the primitive-cell ions
   primitive index   ion index
                 1           1
                 2           2

----------------------------------------------------------------------------------------

 
 
 KPOINTS: kpoints                                 

Automatic generation of k-mesh.
 Grid dimensions read from file:
 generate k-points for:   13   13    1

 Generating k-lattice:

  Cartesian coordinates                     Fractional coordinates (reciprocal lattice)
     0.021326689  0.012312970  0.000000000     0.076923077  0.000000000  0.000000000
     0.000000000  0.024625940  0.000000000     0.000000000  0.076923077  0.000000000
     0.000000000  0.000000000  0.062500000     0.000000000  0.000000000  1.000000000

  Length of vectors
     0.024625940  0.024625940  0.062500000

  Shift w.r.t. Gamma in fractional coordinates (k-lattice)
     0.000000000  0.000000000  0.000000000

 
 Subroutine IBZKPT returns following result:
 ===========================================
 
 Found     21 irreducible k-points:
 
 Following reciprocal coordinates:
            Coordinates               Weight
  0.000000  0.000000  0.000000      1.000000
  0.076923  0.000000  0.000000      6.000000
  0.153846  0.000000  0.000000      6.000000
  0.230769 -0.000000  0.000000      6.000000
  0.307692  0.000000  0.000000      6.000000
  0.384615  0.000000  0.000000      6.000000
  0.461538 -0.000000  0.000000      6.000000
  0.076923  0.076923  0.000000      6.000000
  0.153846  0.076923  0.000000     12.000000
  0.230769  0.076923  0.000000     12.000000
  0.307692  0.076923  0.000000     12.000000
  0.384615  0.076923  0.000000     12.000000
  0.461538  0.076923  0.000000      6.000000
  0.153846  0.153846  0.000000      6.000000
  0.230769  0.153846  0.000000     12.000000
  0.307692  0.153846  0.000000     12.000000
  0.384615  0.153846  0.000000     12.000000
  0.230769  0.230769  0.000000      6.000000
  0.307692  0.230769  0.000000     12.000000
  0.384615  0.230769  0.000000      6.000000
  0.307692  0.307692  0.000000      6.000000
 
 Following cartesian coordinates:
            Coordinates               Weight
  0.000000  0.000000  0.000000      1.000000
  0.021327  0.012313  0.000000      6.000000
  0.042653  0.024626  0.000000      6.000000
  0.063980  0.036939  0.000000      6.000000
  0.085307  0.049252  0.000000      6.000000
  0.106633  0.061565  0.000000      6.000000
  0.127960  0.073878  0.000000      6.000000
  0.021327  0.036939  0.000000      6.000000
  0.042653  0.049252  0.000000     12.000000
  0.063980  0.061565  0.000000     12.000000
  0.085307  0.073878  0.000000     12.000000
  0.106633  0.086191  0.000000     12.000000
  0.127960  0.098504  0.000000      6.000000
  0.042653  0.073878  0.000000      6.000000
  0.063980  0.086191  0.000000     12.000000
  0.085307  0.098504  0.000000     12.000000
  0.106633  0.110817  0.000000     12.000000
  0.063980  0.110817  0.000000      6.000000
  0.085307  0.123130  0.000000     12.000000
  0.106633  0.135443  0.000000      6.000000
  0.085307  0.147756  0.000000      6.000000
 
 
 Subroutine IBZKPT_HF returns following result:
 ==============================================
 
 Found    169 k-points in 1st BZ
 the following    169 k-points will be used (e.g. in the exchange kernel)
 Following reciprocal coordinates:   # in IRBZ
  0.000000  0.000000  0.000000    0.00591716   1 t-inv F
  0.076923  0.000000  0.000000    0.00591716   2 t-inv F
  0.153846  0.000000  0.000000    0.00591716   3 t-inv F
  0.230769 -0.000000  0.000000    0.00591716   4 t-inv F
  0.307692  0.000000  0.000000    0.00591716   5 t-inv F
  0.384615  0.000000  0.000000    0.00591716   6 t-inv F
  0.461538 -0.000000  0.000000    0.00591716   7 t-inv F
  0.076923  0.076923  0.000000    0.00591716   8 t-inv F
  0.153846  0.076923  0.000000    0.00591716   9 t-inv F
  0.230769  0.076923  0.000000    0.00591716  10 t-inv F
  0.307692  0.076923  0.000000    0.00591716  11 t-inv F
  0.384615  0.076923  0.000000    0.00591716  12 t-inv F
  0.461538  0.076923  0.000000    0.00591716  13 t-inv F
  0.153846  0.153846  0.000000    0.00591716  14 t-inv F
  0.230769  0.153846  0.000000    0.00591716  15 t-inv F
  0.307692  0.153846  0.000000    0.00591716  16 t-inv F
  0.384615  0.153846  0.000000    0.00591716  17 t-inv F
  0.230769  0.230769  0.000000    0.00591716  18 t-inv F
  0.307692  0.230769  0.000000    0.00591716  19 t-inv F
  0.384615  0.230769  0.000000    0.00591716  20 t-inv F
  0.307692  0.307692  0.000000    0.00591716  21 t-inv F
 -0.076923 -0.000000  0.000000    0.00591716   2 t-inv F
 -0.076923  0.076923  0.000000    0.00591716   2 t-inv F
  0.076923 -0.076923  0.000000    0.00591716   2 t-inv F
  0.000000 -0.076923  0.000000    0.00591716   2 t-inv F
 -0.000000  0.076923  0.000000    0.00591716   2 t-inv F
 -0.153846 -0.000000  0.000000    0.00591716   3 t-inv F
 -0.153846  0.153846  0.000000    0.00591716   3 t-inv F
  0.153846 -0.153846  0.000000    0.00591716   3 t-inv F
  0.000000 -0.153846  0.000000    0.00591716   3 t-inv F
 -0.000000  0.153846  0.000000    0.00591716   3 t-inv F
 -0.230769  0.000000  0.000000    0.00591716   4 t-inv F
 -0.230769  0.230769  0.000000    0.00591716   4 t-inv F
  0.230769 -0.230769  0.000000    0.00591716   4 t-inv F
 -0.000000 -0.230769  0.000000    0.00591716   4 t-inv F
  0.000000  0.230769  0.000000    0.00591716   4 t-inv F
 -0.307692 -0.000000  0.000000    0.00591716   5 t-inv F
 -0.307692  0.307692  0.000000    0.00591716   5 t-inv F
  0.307692 -0.307692  0.000000    0.00591716   5 t-inv F
  0.000000 -0.307692  0.000000    0.00591716   5 t-inv F
 -0.000000  0.307692  0.000000    0.00591716   5 t-inv F
 -0.384615  0.000000  0.000000    0.00591716   6 t-inv F
 -0.384615  0.384615  0.000000    0.00591716   6 t-inv F
  0.384615 -0.384615  0.000000    0.00591716   6 t-inv F
  0.000000 -0.384615  0.000000    0.00591716   6 t-inv F
  0.000000  0.384615  0.000000    0.00591716   6 t-inv F
 -0.461538  0.000000  0.000000    0.00591716   7 t-inv F
 -0.461538  0.461538  0.000000    0.00591716   7 t-inv F
  0.461538 -0.461538  0.000000    0.00591716   7 t-inv F
 -0.000000 -0.461538  0.000000    0.00591716   7 t-inv F
  0.000000  0.461538  0.000000    0.00591716   7 t-inv F
 -0.076923 -0.076923  0.000000    0.00591716   8 t-inv F
 -0.153846  0.076923  0.000000    0.00591716   8 t-inv F
  0.153846 -0.076923  0.000000    0.00591716   8 t-inv F
  0.076923 -0.153846  0.000000    0.00591716   8 t-inv F
 -0.076923  0.153846  0.000000    0.00591716   8 t-inv F
 -0.153846 -0.076923  0.000000    0.00591716   9 t-inv F
 -0.230769  0.153846  0.000000    0.00591716   9 t-inv F
  0.230769 -0.153846  0.000000    0.00591716   9 t-inv F
  0.076923 -0.230769  0.000000    0.00591716   9 t-inv F
 -0.076923  0.230769  0.000000    0.00591716   9 t-inv F
  0.153846 -0.230769  0.000000    0.00591716   9 t-inv F
 -0.153846  0.230769  0.000000    0.00591716   9 t-inv F
 -0.230769  0.076923  0.000000    0.00591716   9 t-inv F
  0.230769 -0.076923  0.000000    0.00591716   9 t-inv F
  0.076923  0.153846  0.000000    0.00591716   9 t-inv F
 -0.076923 -0.153846  0.000000    0.00591716   9 t-inv F
 -0.230769 -0.076923  0.000000    0.00591716  10 t-inv F
 -0.307692  0.230769  0.000000    0.00591716  10 t-inv F
  0.307692 -0.230769  0.000000    0.00591716  10 t-inv F
  0.076923 -0.307692  0.000000    0.00591716  10 t-inv F
 -0.076923  0.307692  0.000000    0.00591716  10 t-inv F
  0.230769 -0.307692  0.000000    0.00591716  10 t-inv F
 -0.230769  0.307692  0.000000    0.00591716  10 t-inv F
 -0.307692  0.076923  0.000000    0.00591716  10 t-inv F
  0.307692 -0.076923  0.000000    0.00591716  10 t-inv F
  0.076923  0.230769  0.000000    0.00591716  10 t-inv F
 -0.076923 -0.230769  0.000000    0.00591716  10 t-inv F
 -0.307692 -0.076923  0.000000    0.00591716  11 t-inv F
 -0.384615  0.307692  0.000000    0.00591716  11 t-inv F
  0.384615 -0.307692  0.000000    0.00591716  11 t-inv F
  0.076923 -0.384615  0.000000    0.00591716  11 t-inv F
 -0.076923  0.384615  0.000000    0.00591716  11 t-inv F
  0.307692 -0.384615  0.000000    0.00591716  11 t-inv F
 -0.307692  0.384615  0.000000    0.00591716  11 t-inv F
 -0.384615  0.076923  0.000000    0.00591716  11 t-inv F
  0.384615 -0.076923  0.000000    0.00591716  11 t-inv F
  0.076923  0.307692  0.000000    0.00591716  11 t-inv F
 -0.076923 -0.307692  0.000000    0.00591716  11 t-inv F
 -0.384615 -0.076923  0.000000    0.00591716  12 t-inv F
 -0.461538  0.384615  0.000000    0.00591716  12 t-inv F
  0.461538 -0.384615  0.000000    0.00591716  12 t-inv F
  0.076923 -0.461538  0.000000    0.00591716  12 t-inv F
 -0.076923  0.461538  0.000000    0.00591716  12 t-inv F
  0.384615 -0.461538  0.000000    0.00591716  12 t-inv F
 -0.384615  0.461538  0.000000    0.00591716  12 t-inv F
 -0.461538  0.076923  0.000000    0.00591716  12 t-inv F
  0.461538 -0.076923  0.000000    0.00591716  12 t-inv F
  0.076923  0.384615  0.000000    0.00591716  12 t-inv F
 -0.076923 -0.384615  0.000000    0.00591716  12 t-inv F
 -0.461538 -0.076923  0.000000    0.00591716  13 t-inv F
 -0.538462  0.461538  0.000000    0.00591716  13 t-inv F
  0.538462 -0.461538  0.000000    0.00591716  13 t-inv F
  0.076923 -0.538462  0.000000    0.00591716  13 t-inv F
 -0.076923  0.538462  0.000000    0.00591716  13 t-inv F
 -0.153846 -0.153846  0.000000    0.00591716  14 t-inv F
 -0.307692  0.153846  0.000000    0.00591716  14 t-inv F
  0.307692 -0.153846  0.000000    0.00591716  14 t-inv F
  0.153846 -0.307692  0.000000    0.00591716  14 t-inv F
 -0.153846  0.307692  0.000000    0.00591716  14 t-inv F
 -0.230769 -0.153846  0.000000    0.00591716  15 t-inv F
 -0.384615  0.230769  0.000000    0.00591716  15 t-inv F
  0.384615 -0.230769  0.000000    0.00591716  15 t-inv F
  0.153846 -0.384615  0.000000    0.00591716  15 t-inv F
 -0.153846  0.384615  0.000000    0.00591716  15 t-inv F
  0.230769 -0.384615  0.000000    0.00591716  15 t-inv F
 -0.230769  0.384615  0.000000    0.00591716  15 t-inv F
 -0.384615  0.153846  0.000000    0.00591716  15 t-inv F
  0.384615 -0.153846  0.000000    0.00591716  15 t-inv F
  0.153846  0.230769  0.000000    0.00591716  15 t-inv F
 -0.153846 -0.230769  0.000000    0.00591716  15 t-inv F
 -0.307692 -0.153846  0.000000    0.00591716  16 t-inv F
 -0.461538  0.307692  0.000000    0.00591716  16 t-inv F
  0.461538 -0.307692  0.000000    0.00591716  16 t-inv F
  0.153846 -0.461538  0.000000    0.00591716  16 t-inv F
 -0.153846  0.461538  0.000000    0.00591716  16 t-inv F
  0.307692 -0.461538  0.000000    0.00591716  16 t-inv F
 -0.307692  0.461538  0.000000    0.00591716  16 t-inv F
 -0.461538  0.153846  0.000000    0.00591716  16 t-inv F
  0.461538 -0.153846  0.000000    0.00591716  16 t-inv F
  0.153846  0.307692  0.000000    0.00591716  16 t-inv F
 -0.153846 -0.307692  0.000000    0.00591716  16 t-inv F
 -0.384615 -0.153846  0.000000    0.00591716  17 t-inv F
 -0.538462  0.384615  0.000000    0.00591716  17 t-inv F
  0.538462 -0.384615  0.000000    0.00591716  17 t-inv F
  0.153846 -0.538462  0.000000    0.00591716  17 t-inv F
 -0.153846  0.538462  0.000000    0.00591716  17 t-inv F
  0.384615 -0.538462  0.000000    0.00591716  17 t-inv F
 -0.384615  0.538462  0.000000    0.00591716  17 t-inv F
 -0.538462  0.153846  0.000000    0.00591716  17 t-inv F
  0.538462 -0.153846  0.000000    0.00591716  17 t-inv F
  0.153846  0.384615  0.000000    0.00591716  17 t-inv F
 -0.153846 -0.384615  0.000000    0.00591716  17 t-inv F
 -0.230769 -0.230769  0.000000    0.00591716  18 t-inv F
 -0.461538  0.230769  0.000000    0.00591716  18 t-inv F
  0.461538 -0.230769  0.000000    0.00591716  18 t-inv F
  0.230769 -0.461538  0.000000    0.00591716  18 t-inv F
 -0.230769  0.461538  0.000000    0.00591716  18 t-inv F
 -0.307692 -0.230769  0.000000    0.00591716  19 t-inv F
 -0.538462  0.307692  0.000000    0.00591716  19 t-inv F
  0.538462 -0.307692  0.000000    0.00591716  19 t-inv F
  0.230769 -0.538462  0.000000    0.00591716  19 t-inv F
 -0.230769  0.538462  0.000000    0.00591716  19 t-inv F
  0.307692 -0.538462  0.000000    0.00591716  19 t-inv F
 -0.307692  0.538462  0.000000    0.00591716  19 t-inv F
 -0.538462  0.230769  0.000000    0.00591716  19 t-inv F
  0.538462 -0.230769  0.000000    0.00591716  19 t-inv F
  0.230769  0.307692  0.000000    0.00591716  19 t-inv F
 -0.230769 -0.307692  0.000000    0.00591716  19 t-inv F
 -0.384615 -0.230769  0.000000    0.00591716  20 t-inv F
 -0.615385  0.384615  0.000000    0.00591716  20 t-inv F
  0.615385 -0.384615  0.000000    0.00591716  20 t-inv F
  0.230769 -0.615385  0.000000    0.00591716  20 t-inv F
 -0.230769  0.615385  0.000000    0.00591716  20 t-inv F
 -0.307692 -0.307692  0.000000    0.00591716  21 t-inv F
 -0.615385  0.307692  0.000000    0.00591716  21 t-inv F
  0.615385 -0.307692  0.000000    0.00591716  21 t-inv F
  0.307692 -0.615385  0.000000    0.00591716  21 t-inv F
 -0.307692  0.615385  0.000000    0.00591716  21 t-inv F


--------------------------------------------------------------------------------------------------------




 Dimension of arrays:
   k-points           NKPTS =     21   k-points in BZ     NKDIM =     21   number of bands    NBANDS=     16
   number of dos      NEDOS =   6001   number of ions     NIONS =      2
   non local maximal  LDIM  =      5   non local SUM 2l+1 LMDIM =     13
   total plane-waves  NPLWV =  25920
   max r-space proj   IRMAX =      1   max aug-charges    IRDMAX=  47793
   dimension x,y,z NGX =    18 NGY =   18 NGZ =   80
   dimension x,y,z NGXF=    36 NGYF=   36 NGZF=  160
   support grid    NGXF=    72 NGYF=   72 NGZF=  320
   ions per type =               2
   NGX,Y,Z   is equivalent  to a cutoff of   8.30,  8.30,  8.31 a.u.
   NGXF,Y,Z  is equivalent  to a cutoff of  16.59, 16.59, 16.62 a.u.

 SYSTEM =  unknown system                          
 POSCAR =  pnictogen honeycomb monolayer           

 Startparameter for this run:
   NWRITE =      3    write-flag & timer
   PREC   = accura    normal or accurate (medium, high low for compatibility)
   ISTART =      0    job   : 0-new  1-cont  2-samecut
   ICHARG =      2    charge: 1-file 2-atom 10-const
   ISPIN  =      1    spin polarized calculation?
   LNONCOLLINEAR =      F non collinear calculations
   LSORBIT =      F    spin-orbit coupling
   INIWAV =      1    electr: 0-lowe 1-rand  2-diag
   LASPH  =      T    aspherical Exc in radial PAW
 Electronic Relaxation 1
   ENCUT  =  234.8 eV  17.26 Ry    4.15 a.u.   4.51  4.51 19.99*2*pi/ulx,y,z
   ENINI  =  234.8     initial cutoff
   ENAUG  =  462.8 eV  augmentation charge cutoff
   NELM   =    200;   NELMIN=  6; NELMDL=-12     # of ELM steps 
   EDIFF  = 0.1E-05   stopping-criterion for ELM
   LREAL  =      F    real-space projection
   NLSPLINE    = F    spline interpolate recip. space projectors
   LCOMPAT=      F    compatible to vasp.4.4
   GGA_COMPAT  = T    GGA compatible to vasp.4.4-vasp.4.6
   LMAXPAW     = -100 max onsite density
   LMAXMIX     =    2 max onsite mixed and CHGCAR
   VOSKOWN=      0    Vosko Wilk Nusair interpolation
   ROPT   =    0.00000
 Ionic relaxation
   EDIFFG = -.1E-01   stopping-criterion for IOM
   NSW    =      1    number of steps for IOM
   NBLOCK =      1;   KBLOCK =      1    inner block; outer block 
   IBRION =      8    ionic relax: 0-MD 1-quasi-New 2-CG
   NFREE  =      0    steps in history (QN), initial steepest desc. (CG)
   ISIF   =      2    stress and relaxation
   IWAVPR =     11    prediction:  0-non 1-charg 2-wave 3-comb
   ISYM   =      2    0-nonsym 1-usesym 2-fastsym
   LCORR  =      T    Harris-Foulkes like correction to forces

   POTIM  = 0.0100    time-step for ionic-motion
   TEIN   =    0.0    initial temperature
   TEBEG  =    0.0;   TEEND  =   0.0 temperature during run
   SMASS  =  -3.00    Nose mass-parameter (am)
   estimated Nose-frequenzy (Omega)   =  0.10E-29 period in steps = 0.63E+48 mass=  -0.297E-27a.u.
   SCALEE = 1.0000    scale energy and forces
   NPACO  =    256;   APACO  = 10.0  distance and # of slots for P.C.
   PSTRESS=    0.0 pullay stress

  Mass of Ions in am
   POMASS =  74.92
  Ionic Valenz
   ZVAL   =   5.00
  Atomic Wigner-Seitz radii
   RWIGS  =  -1.00
  virtual crystal weights 
   VCA    =   1.00
   NELECT =      10.0000    total number of electrons
   NUPDOWN=      -1.0000    fix difference up-down

 DOS related values:
   EMIN   =  10.00;   EMAX   =-10.00  energy-range for DOS
   EFERMI =   0.00;   METHOD = LEGACY      
   ISMEAR =     0;   SIGMA  =   0.01  broadening in eV -4-tet -1-fermi 0-gaus

 Electronic relaxation 2 (details)
   IALGO  =     38    algorithm
   LDIAG  =      T    sub-space diagonalisation (order eigenvalues)
   LSUBROT=      F    optimize rotation matrix (better conditioning)
   TURBO    =      0    0=normal 1=particle mesh
   IRESTART =      0    0=no restart 2=restart with 2 vectors
   NREBOOT  =      0    no. of reboots
   NMIN     =      0    reboot dimension
   EREF     =   0.00    reference energy to select bands
   IMIX   =      4    mixing-type and parameters
     AMIX     =   0.10;   BMIX     =  0.00
     AMIX_MAG =   0.40;   BMIX_MAG =  0.00
     AMIN     =   0.10
     WC   =   100.;   INIMIX=   1;  MIXPRE=   1;  MAXMIX= -45

 Intra band minimization:
   WEIMIN = 0.0010     energy-eigenvalue tresh-hold
   EBREAK =  0.16E-07  absolut break condition
   DEPER  =   0.30     relativ break condition  

   TIME   =   0.40     timestep for ELM

  volume/ion in A,a.u.               =      90.13       608.25
  Fermi-wavevector in a.u.,A,eV,Ry     =   0.624361  1.179871  5.303915  0.389827
  Thomas-Fermi vector in A             =   1.684891
 
 Write flags
   LWAVE        =      F    write WAVECAR
   LDOWNSAMPLE  =      F    k-point downsampling of WAVECAR
   LCHARG       =      F    write CHGCAR
   LVTOT        =      F    write LOCPOT, total local potential
   LVHAR        =      F    write LOCPOT, Hartree potential only
   LELF         =      F    write electronic localiz. function (ELF)
   LORBIT       =     10    0 simple, 1 ext, 2 COOP (PROOUT), +10 PAW based schemes


 Dipole corrections
   LMONO  =      F    monopole corrections only (constant potential shift)
   LDIPOL =      F    correct potential (dipole corrections)
   IDIPOL =      0    1-x, 2-y, 3-z, 4-all directions 
   EPSILON=  1.0000000 bulk dielectric constant

 Exchange correlation treatment:
   GGA     =    --    GGA type
   LEXCH   =     8    internal setting for exchange type
   LIBXC   =     F    Libxc                    
   VOSKOWN =     0    Vosko Wilk Nusair interpolation
   LHFCALC =     F    Hartree Fock is set to
   LHFONE  =     F    Hartree Fock one center treatment
   AEXX    =    0.0000 exact exchange contribution

 Linear response parameters
   LEPSILON=     F    determine dielectric tensor
   LRPA    =     F    only Hartree local field effects (RPA)
   LNABLA  =     F    use nabla operator in PAW spheres
   LVEL    =     F    velocity operator in full k-point grid
   CSHIFT  =0.1000    complex shift for real part using Kramers Kronig
   OMEGAMAX=  -1.0    maximum frequency
   DEG_THRESHOLD= 0.2000000E-02 threshold for treating states as degnerate
   RTIME   =   -0.100 relaxation time in fs
  (WPLASMAI=    0.000 imaginary part of plasma frequency in eV, 0.658/RTIME)
   DFIELD  = 0.0000000 0.0000000 0.0000000 field for delta impulse in time
 
  Optional k-point grid parameters
   LKPOINTS_OPT  =     F    use optional k-point grid
   KPOINTS_OPT_MODE=     1    mode for optional k-point grid
 
 Orbital magnetization related:
   ORBITALMAG=     F  switch on orbital magnetization
   LCHIMAG   =     F  perturbation theory with respect to B field
   DQ        =  0.001000  dq finite difference perturbation B field
   LLRAUG    =     F  two centre corrections for induced B field
   LBONE     =     F  B-component reconstruction in AE one-centre
   LVGVCALC  =     T  calculate vGv susceptibility
   LVGVAPPL  =     F  apply vGv susceptibility instead of pGv for G=0

 Random number generation:
   RANDOM_GENERATOR = DEFAULT
   PCG_SEED         = not used


--------------------------------------------------------------------------------------------------------


 linear response using symmetry
 charge density and potential will be updated during run
 non-spin polarized calculation
 Variant of blocked Davidson
 Davidson routine will perform the subspace rotation
 perform sub-space diagonalisation
    after iterative eigenvector-optimisation
 modified Broyden-mixing scheme, WC =      100.0
 initial mixing is a Kerker type mixing with AMIX =  0.1000 and BMIX =      0.0001
 Hartree-type preconditioning will be used
 using additional bands           11
 reciprocal scheme for non local part
 use partial core corrections
 calculate Harris-corrections to forces 
   (improved forces if not selfconsistent)
 use gradient corrections 
 use of overlap-Matrix (Vanderbilt PP)
 Gauss-broadening in eV      SIGMA  =   0.01


--------------------------------------------------------------------------------------------------------


  energy-cutoff  :      234.79
  volume of cell :      180.27
      direct lattice vectors                 reciprocal lattice vectors
     3.606892539  0.000000000  0.000000000     0.277246962  0.160068608  0.000000000
    -1.803446269  3.123660567  0.000000000     0.000000000  0.320137217  0.000000000
     0.000000000  0.000000000 16.000000000     0.000000000  0.000000000  0.062500000

  length of vectors
     3.606892539  3.606892539 16.000000000     0.320137217  0.320137217  0.062500000


 
 k-points in units of 2pi/SCALE and weight: kpoints                                 
   0.00000000  0.00000000  0.00000000       0.006
   0.02132669  0.01231297  0.00000000       0.036
   0.04265338  0.02462594  0.00000000       0.036
   0.06398007  0.03693891  0.00000000       0.036
   0.08530676  0.04925188  0.00000000       0.036
   0.10663345  0.06156485  0.00000000       0.036
   0.12796014  0.07387782  0.00000000       0.036
   0.02132669  0.03693891  0.00000000       0.036
   0.04265338  0.04925188  0.00000000       0.071
   0.06398007  0.06156485  0.00000000       0.071
   0.08530676  0.07387782  0.00000000       0.071
   0.10663345  0.08619079  0.00000000       0.071
   0.12796014  0.09850376  0.00000000       0.036
   0.04265338  0.07387782  0.00000000       0.036
   0.06398007  0.08619079  0.00000000       0.071
   0.08530676  0.09850376  0.00000000       0.071
   0.10663345  0.11081673  0.00000000       0.071
   0.06398007  0.11081673  0.00000000       0.036
   0.08530676  0.12312970  0.00000000       0.071
   0.10663345  0.13544267  0.00000000       0.036
   0.08530676  0.14775564  0.00000000       0.036
 
 k-points in reciprocal lattice and weights: kpoints                                 
   0.00000000  0.00000000  0.00000000       0.006
   0.07692308  0.00000000  0.00000000       0.036
   0.15384615  0.00000000  0.00000000       0.036
   0.23076923 -0.00000000  0.00000000       0.036
   0.30769231  0.00000000  0.00000000       0.036
   0.38461538  0.00000000  0.00000000       0.036
   0.46153846 -0.00000000  0.00000000       0.036
   0.07692308  0.07692308  0.00000000       0.036
   0.15384615  0.07692308  0.00000000       0.071
   0.23076923  0.07692308  0.00000000       0.071
   0.30769231  0.07692308  0.00000000       0.071
   0.38461538  0.07692308  0.00000000       0.071
   0.46153846  0.07692308  0.00000000       0.036
   0.15384615  0.15384615  0.00000000       0.036
   0.23076923  0.15384615  0.00000000       0.071
   0.30769231  0.15384615  0.00000000       0.071
   0.38461538  0.15384615  0.00000000       0.071
   0.23076923  0.23076923  0.00000000       0.036
   0.30769231  0.23076923  0.00000000       0.071
   0.38461538  0.23076923  0.00000000       0.036
   0.30769231  0.30769231  0.00000000       0.036
 
 position of ions in fractional coordinates (direct lattice) 
   0.66666667  0.33333333  0.45634314
   0.33333333  0.66666667  0.54365686
 
 position of ions in cartesian coordinates  (Angst):
   1.80344627  1.04122019  7.30149017
   0.00000000  2.08244038  8.69850983
 


--------------------------------------------------------------------------------------------------------


 k-point   1 :   0.0000 0.0000 0.0000  plane waves:    1485
 k-point   2 :   0.0769 0.0000 0.0000  plane waves:    1493
 k-point   3 :   0.1538 0.0000 0.0000  plane waves:    1498
 k-point   4 :   0.2308-0.0000 0.0000  plane waves:    1484
 k-point   5 :   0.3077 0.0000 0.0000  plane waves:    1476
 k-point   6 :   0.3846 0.0000 0.0000  plane waves:    1462
 k-point   7 :   0.4615-0.0000 0.0000  plane waves:    1452
 k-point   8 :   0.0769 0.0769 0.0000  plane waves:    1503
 k-point   9 :   0.1538 0.0769 0.0000  plane waves:    1493
 k-point  10 :   0.2308 0.0769 0.0000  plane waves:    1489
 k-point  11 :   0.3077 0.0769 0.0000  plane waves:    1464
 k-point  12 :   0.3846 0.0769 0.0000  plane waves:    1457
 k-point  13 :   0.4615 0.0769 0.0000  plane waves:    1452
 k-point  14 :   0.1538 0.1538 0.0000  plane waves:    1493
 k-point  15 :   0.2308 0.1538 0.0000  plane waves:    1463
 k-point  16 :   0.3077 0.1538 0.0000  plane waves:    1464
 k-point  17 :   0.3846 0.1538 0.0000  plane waves:    1460
 k-point  18 :   0.2308 0.2308 0.0000  plane waves:    1459
 k-point  19 :   0.3077 0.2308 0.0000  plane waves:    1456
 k-point  20 :   0.3846 0.2308 0.0000  plane waves:    1458
 k-point  21 :   0.3077 0.3077 0.0000  plane waves:    1476

 maximum and minimum number of plane-waves per node :      1503     1452

 maximum number of plane-waves:      1503
 maximum index in each direction: 
   IXMAX=    4   IYMAX=    4   IZMAX=   19
   IXMIN=   -4   IYMIN=   -4   IZMIN=  -19


 serial   3D FFT for wavefunctions
 parallel 3D FFT for charge:
    minimum data exchange during FFTs selected (reduces bandwidth)


 total amount of memory used by VASP MPI-rank0    37959. kBytes
=======================================================================

   base      :      30000. kBytes
   nonl-proj :       3332. kBytes
   fftplans  :       2217. kBytes
   grid      :       1878. kBytes
   one-center:         16. kBytes
   wavefun   :        516. kBytes
 
     INWAV:  cpu time      0.0000: real time      0.0000
 Broyden mixing: mesh for mixing (old mesh)
   NGX =  9   NGY =  9   NGZ = 39
  (NGX  = 36   NGY  = 36   NGZ  =160)
  gives a total of   3159 points

 initial charge density was supplied:
 charge density of overlapping atoms calculated
 number of electron      10.0000000 magnetization 
 keeping initial charge density in first step


--------------------------------------------------------------------------------------------------------


 Maximum index for augmentation-charges         3084 (set IRDMAX)


--------------------------------------------------------------------------------------------------------


 First call to EWALD:  gamma=   0.314
 Maximum number of real-space cells 5x 5x 1
 Maximum number of reciprocal cells 2x 2x 7

    FEWALD:  cpu time      0.0015: real time      0.0015


--------------------------------------- Ionic step        1  -------------------------------------------




--------------------------------------- Iteration      1(   1)  ---------------------------------------


    POTLOK:  cpu time      0.0100: real time      0.0171
    SETDIJ:  cpu time      0.1555: real time      0.1580
     EDDAV:  cpu time      0.0930: real time      0.1312
       DOS:  cpu time      0.0014: real time      0.0040
    --------------------------------------------
      LOOP:  cpu time      0.2599: real time      0.3103

 eigenvalue-minimisations  :   672
 total energy-change (2. order) : 0.2244048E+02  (-0.2539263E+03)
 number of electron      10.0000000 magnetization 
 augmentation part       10.0000000 magnetization 

 Free energy of the ion-electron system (eV)
  ---------------------------------------------------
  alpha Z        PSCENC =         5.26383816
  Ewald energy   TEWEN  =       378.22030483
  -Hartree energ DENC   =      -664.27977220
  -exchange      EXHF   =         0.00000000
  -V(xc)+E(xc)   XCENC  =       -23.94414315
  PAW double counting   =       294.12882363     -251.25503797
  entropy T*S    EENTRO =        -0.00034805
  eigenvalues    EBANDS =       -56.05712573
  atomic energy  EATOM  =       340.36393574
  Solvation  Ediel_sol  =         0.00000000
  ---------------------------------------------------
  free energy    TOTEN  =        22.44047527 eV

  energy without entropy =       22.44082332  energy(sigma->0) =       22.44064930


--------------------------------------------------------------------------------------------------------




 average (electrostatic) potential at core
  the test charge radii are     1.0621
  (the norm of the test charge is              1.0000)
       1 -57.9272       2 -57.9272
 
 
 
 E-fermi :   1.7997     XC(G=0):  -3.3462     alpha+bet : -2.4472

 Fermi energy:         1.7996704587

 k-point     1 :       0.0000    0.0000    0.0000
  band No.  band energies     occupation 
      1     -15.9423      2.00000
      2      -9.0680      2.00000
      3      -2.1125      2.00000
      4       1.2121      2.00000
      5       1.8766      0.00000
      6       2.3376      0.00000
      7       3.0862      0.00000
      8       4.3129      0.00000
      9       5.1070      0.00000
     10       5.5659      0.00000
     11       7.6041      0.00000
     12       8.5057      0.00000
     13       9.2786      0.00000
     14      11.1717      0.00000
     15      12.7119      0.00000
     16      14.4496      0.00000

 k-point     2 :       0.0769    0.0000    0.0000
  band No.  band energies     occupation 
      1     -15.4643      2.00000
      2      -9.1118      2.00000
      3      -1.8840      2.00000
      4       0.5603      2.00000
      5       1.9922      0.00000
      6       2.3543      0.00000
      7       2.6574      0.00000
      8       4.2202      0.00000
      9       5.0688      0.00000
     10       7.2262      0.00000
     11       8.3260      0.00000
     12       9.1191      0.00000
     13      10.7421      0.00000
     14      11.5758      0.00000
     15      13.3754      0.00000
     16      14.4390      0.00000

 k-point     3 :       0.1538    0.0000    0.0000
  band No.  band energies     occupation 
      1     -15.8533      2.00000
      2      -8.1601      2.00000
      3      -2.0533      2.00000
      4      -0.3009      2.00000
      5       1.8014      0.80155
      6       2.4504      0.00000
      7       2.9384      0.00000
      8       4.1380      0.00000
      9       4.5686      0.00000
     10       6.2378      0.00000
     11       8.3880      0.00000
     12       9.1364      0.00000
     13       9.4232      0.00000
     14      11.7877      0.00000
     15      12.5746      0.00000
     16      13.8472      0.00000

 k-point     4 :       0.2308   -0.0000    0.0000
  band No.  band energies     occupation 
      1     -14.6334      2.00000
      2      -8.6336      2.00000
      3      -4.4515      2.00000
      4      -1.0356      2.00000
      5       1.7945      1.53178
      6       2.4895      0.00000
      7       3.2742      0.00000
      8       3.6208      0.00000
      9       5.0476      0.00000
     10       6.1704      0.00000
     11       7.3544      0.00000
     12       8.5001      0.00000
     13       9.4376      0.00000
     14      11.8227      0.00000
     15      12.2527      0.00000
     16      13.8858      0.00000

 k-point     5 :       0.3077    0.0000    0.0000
  band No.  band energies     occupation 
      1     -14.3737      2.00000
      2      -9.2128      2.00000
      3      -5.3763      2.00000
      4      -0.6487      2.00000
      5       0.4363      2.00000
      6       2.0718      0.00000
      7       3.7024      0.00000
      8       4.2176      0.00000
      9       6.0648      0.00000
     10       6.8767      0.00000
     11       8.9310      0.00000
     12       9.9194      0.00000
     13      10.8858      0.00000
     14      11.3149      0.00000
     15      12.5558      0.00000
     16      13.9449      0.00000

 k-point     6 :       0.3846    0.0000    0.0000
  band No.  band energies     occupation 
      1     -13.6396      2.00000
      2      -8.2115      2.00000
      3      -5.1019      2.00000
      4      -3.0549      2.00000
      5      -0.1963      2.00000
      6       2.5181      0.00000
      7       3.7796      0.00000
      8       4.8111      0.00000
      9       5.2281      0.00000
     10       6.5050      0.00000
     11       7.5649      0.00000
     12       7.9036      0.00000
     13       9.1477      0.00000
     14      10.1166      0.00000
     15      11.2218      0.00000
     16      13.0275      0.00000

 k-point     7 :       0.4615   -0.0000    0.0000
  band No.  band energies     occupation 
      1     -12.0110      2.00000
      2      -9.3036      2.00000
      3      -3.0154      2.00000
      4      -2.0368      2.00000
      5       1.6344      2.00000
      6       3.5174      0.00000
      7       4.4779      0.00000
      8       6.0782      0.00000
      9       6.4844      0.00000
     10       6.9698      0.00000
     11       7.8920      0.00000
     12       8.9925      0.00000
     13       9.9639      0.00000
     14      10.7631      0.00000
     15      11.2873      0.00000
     16      13.4919      0.00000

 k-point     8 :       0.0769    0.0769    0.0000
  band No.  band energies     occupation 
      1     -15.4800      2.00000
      2      -9.0535      2.00000
      3      -2.7615      2.00000
      4      -1.3405      2.00000
      5       1.5285      2.00000
      6       2.2014      0.00000
      7       2.5920      0.00000
      8       4.2527      0.00000
      9       4.4836      0.00000
     10       5.0835      0.00000
     11       7.9321      0.00000
     12       9.0454      0.00000
     13      10.2524      0.00000
     14      11.0404      0.00000
     15      12.8286      0.00000
     16      14.9554      0.00000

 k-point     9 :       0.1538    0.0769    0.0000
  band No.  band energies     occupation 
      1     -15.0697      2.00000
      2      -8.3393      2.00000
      3      -3.7850      2.00000
      4      -0.8485      2.00000
      5       1.5206      2.00000
      6       2.6421      0.00000
      7       3.0937      0.00000
      8       4.6733      0.00000
      9       5.5187      0.00000
     10       6.2995      0.00000
     11       8.4347      0.00000
     12       9.2147      0.00000
     13      11.2424      0.00000
     14      11.5277      0.00000
     15      12.0593      0.00000
     16      14.0909      0.00000

 k-point    10 :       0.2308    0.0769    0.0000
  band No.  band energies     occupation 
      1     -14.0701      2.00000
      2      -8.1609      2.00000
      3      -4.2699      2.00000
      4      -2.8710      2.00000
      5      -1.4087      2.00000
      6       2.5163      0.00000
      7       3.2244      0.00000
      8       4.1208      0.00000
      9       5.8614      0.00000
     10       6.2510      0.00000
     11       8.0348      0.00000
     12      10.3084      0.00000
     13      10.9298      0.00000
     14      11.6503      0.00000
     15      12.7485      0.00000
     16      14.0134      0.00000

 k-point    11 :       0.3077    0.0769    0.0000
  band No.  band energies     occupation 
      1     -13.1390      2.00000
      2      -8.1432      2.00000
      3      -5.3634      2.00000
      4      -1.5970      2.00000
      5      -0.5503      2.00000
      6       1.7330      2.00000
      7       3.0255      0.00000
      8       4.6578      0.00000
      9       4.9951      0.00000
     10       6.5870      0.00000
     11       7.7493      0.00000
     12       8.7674      0.00000
     13       9.7435      0.00000
     14      10.3299      0.00000
     15      12.2364      0.00000
     16      12.7518      0.00000

 k-point    12 :       0.3846    0.0769    0.0000
  band No.  band energies     occupation 
      1     -12.2980      2.00000
      2      -8.7559      2.00000
      3      -5.1289      2.00000
      4      -2.5299      2.00000
      5       1.2114      2.00000
      6       3.7488      0.00000
      7       5.1396      0.00000
      8       5.3183      0.00000
      9       5.9636      0.00000
     10       6.4750      0.00000
     11       7.7573      0.00000
     12       8.3312      0.00000
     13       8.9832      0.00000
     14       9.9158      0.00000
     15      11.0828      0.00000
     16      13.4577      0.00000

 k-point    13 :       0.4615    0.0769    0.0000
  band No.  band energies     occupation 
      1     -11.4289      2.00000
      2      -9.9098      2.00000
      3      -3.6874      2.00000
      4      -2.9218      2.00000
      5      -0.9428      2.00000
      6       3.5407      0.00000
      7       5.1272      0.00000
      8       5.9176      0.00000
      9       6.8398      0.00000
     10       7.2467      0.00000
     11       7.4228      0.00000
     12       8.2732      0.00000
     13       9.0865      0.00000
     14      10.1617      0.00000
     15      12.0863      0.00000
     16      13.3876      0.00000

 k-point    14 :       0.1538    0.1538    0.0000
  band No.  band energies     occupation 
      1     -14.4731      2.00000
      2      -8.5227      2.00000
      3      -4.3878      2.00000
      4      -1.8450      2.00000
      5      -0.2292      2.00000
      6       2.7487      0.00000
      7       3.3998      0.00000
      8       3.9930      0.00000
      9       5.0934      0.00000
     10       7.1799      0.00000
     11       8.2859      0.00000
     12       9.2473      0.00000
     13      10.2796      0.00000
     14      11.8113      0.00000
     15      12.5538      0.00000
     16      13.7910      0.00000

 k-point    15 :       0.2308    0.1538    0.0000
  band No.  band energies     occupation 
      1     -13.6019      2.00000
      2      -7.3392      2.00000
      3      -5.3044      2.00000
      4      -0.8098      2.00000
      5       0.1516      2.00000
      6       3.7675      0.00000
      7       3.9100      0.00000
      8       4.8182      0.00000
      9       6.4789      0.00000
     10       6.8973      0.00000
     11       7.2100      0.00000
     12       8.9325      0.00000
     13      10.5714      0.00000
     14      11.4090      0.00000
     15      12.1181      0.00000
     16      12.8930      0.00000

 k-point    16 :       0.3077    0.1538    0.0000
  band No.  band energies     occupation 
      1     -13.2642      2.00000
      2      -8.3223      2.00000
      3      -4.3950      2.00000
      4      -2.9808      2.00000
      5      -0.3674      2.00000
      6       4.2433      0.00000
      7       4.9187      0.00000
      8       5.5199      0.00000
      9       6.6113      0.00000
     10       7.4398      0.00000
     11       8.3010      0.00000
     12       9.0346      0.00000
     13       9.1763      0.00000
     14      11.5160      0.00000
     15      11.9875      0.00000
     16      12.6827      0.00000

 k-point    17 :       0.3846    0.1538    0.0000
  band No.  band energies     occupation 
      1     -12.3485      2.00000
      2     -10.0018      2.00000
      3      -4.5356      2.00000
      4      -2.5984      2.00000
      5      -0.4173      2.00000
      6       1.5390      2.00000
      7       4.1304      0.00000
      8       6.0833      0.00000
      9       6.4835      0.00000
     10       7.4254      0.00000
     11       7.7206      0.00000
     12       8.3740      0.00000
     13       9.5961      0.00000
     14       9.9838      0.00000
     15      10.7134      0.00000
     16      12.2956      0.00000

 k-point    18 :       0.2308    0.2308    0.0000
  band No.  band energies     occupation 
      1     -13.1766      2.00000
      2      -8.8052      2.00000
      3      -4.8030      2.00000
      4      -2.8350      2.00000
      5      -1.3472      2.00000
      6       3.4636      0.00000
      7       4.3268      0.00000
      8       5.0609      0.00000
      9       5.3439      0.00000
     10       6.7968      0.00000
     11       7.2557      0.00000
     12       9.2745      0.00000
     13       9.7447      0.00000
     14      10.4315      0.00000
     15      10.7350      0.00000
     16      11.6812      0.00000

 k-point    19 :       0.3077    0.2308    0.0000
  band No.  band energies     occupation 
      1     -12.2574      2.00000
      2      -8.1510      2.00000
      3      -4.9564      2.00000
      4      -3.1039      2.00000
      5       2.0538      0.00000
      6       3.2490      0.00000
      7       5.1487      0.00000
      8       5.6939      0.00000
      9       6.1245      0.00000
     10       7.0869      0.00000
     11       7.8872      0.00000
     12       8.9689      0.00000
     13      10.3582      0.00000
     14      10.7043      0.00000
     15      11.7434      0.00000
     16      13.4409      0.00000

 k-point    20 :       0.3846    0.2308    0.0000
  band No.  band energies     occupation 
      1     -11.7391      2.00000
      2      -9.2221      2.00000
      3      -5.4270      2.00000
      4      -1.6806      2.00000
      5       0.9900      2.00000
      6       2.4179      0.00000
      7       5.6591      0.00000
      8       6.2315      0.00000
      9       7.1592      0.00000
     10       7.5314      0.00000
     11       8.0356      0.00000
     12       9.0594      0.00000
     13       9.4466      0.00000
     14      10.9684      0.00000
     15      11.8758      0.00000
     16      13.5216      0.00000

 k-point    21 :       0.3077    0.3077    0.0000
  band No.  band energies     occupation 
      1     -10.8085      2.00000
      2      -9.6448      2.00000
      3      -5.7630      2.00000
      4      -2.8110      2.00000
      5       0.2690      2.00000
      6       3.1870      0.00000
      7       4.9007      0.00000
      8       6.3536      0.00000
      9       7.3235      0.00000
     10       7.8783      0.00000
     11       8.3327      0.00000
     12       8.7731      0.00000
     13       9.5167      0.00000
     14      10.0044      0.00000
     15      10.9391      0.00000
     16      12.7626      0.00000


--------------------------------------------------------------------------------------------------------


 soft charge-density along one line, spin component           1
         0         1         2         3         4         5         6         7         8         9
 total charge-density along one line
 
 pseudopotential strength for first ion, spin component:           1
 25.616 -40.880  -0.000   0.035   0.000   0.000  -0.072  -0.000
-40.880  42.460   0.000  -0.071  -0.000  -0.000   0.187   0.000
 -0.000   0.000   5.912   0.000  -0.000  -7.457  -0.000   0.000
  0.035  -0.071   0.000   5.910   0.000  -0.000  -7.454  -0.000
  0.000  -0.000  -0.000   0.000   5.912   0.000  -0.000  -7.457
  0.000  -0.000  -7.457  -0.000   0.000  11.171   0.000  -0.000
 -0.072   0.187  -0.000  -7.454  -0.000   0.000  11.165   0.000
 -0.000   0.000   0.000  -0.000  -7.457  -0.000   0.000  11.171
 -0.000   0.000   0.000  -0.000   0.002  -0.000   0.000  -0.003
  0.000  -0.000   0.011  -0.000  -0.000  -0.018   0.000   0.000
 -0.002   0.003  -0.000   0.009   0.000   0.000  -0.016   0.000
  0.000  -0.000  -0.000   0.000   0.011   0.000  -0.000  -0.018
  0.000  -0.000   0.002   0.000   0.000  -0.003  -0.000  -0.000
 total augmentation occupancy for first ion, spin component:           1
  2.000   0.000   0.000   0.000   0.000   0.000   0.000   0.000   0.000   0.000   0.000   0.000   0.000
  0.000   0.000   0.000   0.000   0.000   0.000   0.000   0.000   0.000   0.000   0.000   0.000   0.000
  0.000   0.000   1.000   0.000   0.000   0.000   0.000   0.000   0.000   0.000   0.000   0.000   0.000
  0.000   0.000   0.000   1.000   0.000   0.000   0.000   0.000   0.000   0.000   0.000   0.000   0.000
  0.000   0.000   0.000   0.000   1.000   0.000   0.000   0.000   0.000   0.000   0.000   0.000   0.000
  0.000   0.000   0.000   0.000   0.000   0.000   0.000   0.000   0.000   0.000   0.000   0.000   0.000
  0.000   0.000   0.000   0.000   0.000   0.000   0.000   0.000   0.000   0.000   0.000   0.000   0.000
  0.000   0.000   0.000   0.000   0.000   0.000   0.000   0.000   0.000   0.000   0.000   0.000   0.000
  0.000   0.000   0.000   0.000   0.000   0.000   0.000   0.000   0.000   0.000   0.000   0.000   0.000
  0.000   0.000   0.000   0.000   0.000   0.000   0.000   0.000   0.000   0.000   0.000   0.000   0.000
  0.000   0.000   0.000   0.000   0.000   0.000   0.000   0.000   0.000   0.000   0.000   0.000   0.000
  0.000   0.000   0.000   0.000   0.000   0.000   0.000   0.000   0.000   0.000   0.000   0.000   0.000
  0.000   0.000   0.000   0.000   0.000   0.000   0.000   0.000   0.000   0.000   0.000   0.000   0.000


--------------------------------------- Iteration      1(   2)  ---------------------------------------


     EDDAV:  cpu time      0.1266: real time      0.1286
       DOS:  cpu time      0.0003: real time      0.0003
    --------------------------------------------
      LOOP:  cpu time      0.1269: real time      0.1289

 eigenvalue-minimisations  :   944
 total energy-change (2. order) :-0.3094891E+02  (-0.3007956E+02)
 number of electron      10.0000000 magnetization 
 augmentation part       10.0000000 magnetization 

 Free energy of the ion-electron system (eV)
  ---------------------------------------------------
  alpha Z        PSCENC =         5.26383816
  Ewald energy   TEWEN  =       378.22030483
  -Hartree energ DENC   =      -664.27977220
  -exchange      EXHF   =         0.00000000
  -V(xc)+E(xc)   XCENC  =       -23.94414315
  PAW double counting   =       294.12882363     -251.25503797
  entropy T*S    EENTRO =        -0.00000000
  eigenvalues    EBANDS =       -87.00638850
  atomic energy  EATOM  =       340.36393574
  Solvation  Ediel_sol  =         0.00000000
  ---------------------------------------------------
  free energy    TOTEN  =        -8.50843945 eV

  energy without entropy =       -8.50843945  energy(sigma->0) =       -8.50843945


--------------------------------------------------------------------------------------------------------




 average (electrostatic) potential at core
  the test charge radii are     1.0621
  (the norm of the test charge is              1.0000)
       1 -57.9272       2 -57.9272
 
 
 
 E-fermi :  -3.3681     XC(G=0):  -3.3462     alpha+bet : -2.4472

 Fermi energy:        -3.3681448108

 k-point     1 :       0.0000    0.0000    0.0000
  band No.  band energies     occupation 
      1     -17.0191      2.00000
      2     -10.6839      2.00000
      3      -3.9995      2.00000
      4      -3.4748      2.00000
      5      -3.4115      2.00000
      6      -1.5215      0.00000
      7       0.1701      0.00000
      8       0.2986      0.00000
      9       1.8522      0.00000
     10       2.0127      0.00000
     11       3.3860      0.00000
     12       4.3048      0.00000
     13       5.6215      0.00000
     14       6.6708      0.00000
     15       6.7937      0.00000
     16       7.4066      0.00000

 k-point     2 :       0.0769    0.0000    0.0000
  band No.  band energies     occupation 
      1     -16.8791      2.00000
      2     -10.5993      2.00000
      3      -4.1041      2.00000
      4      -3.9052      2.00000
      5      -3.4421      2.00000
      6      -0.3847      0.00000
      7       0.3633      0.00000
      8       0.6403      0.00000
      9       2.0244      0.00000
     10       2.1367      0.00000
     11       3.5159      0.00000
     12       4.4357      0.00000
     13       6.1415      0.00000
     14       7.1074      0.00000
     15       7.4897      0.00000
     16       7.9276      0.00000

 k-point     3 :       0.1538    0.0000    0.0000
  band No.  band energies     occupation 
      1     -16.6350      2.00000
      2     -10.4595      2.00000
      3      -5.4466      2.00000
      4      -3.8914      2.00000
      5      -3.7855      2.00000
      6      -0.8699      0.00000
      7       0.8670      0.00000
      8       1.4268      0.00000
      9       2.2847      0.00000
     10       2.4386      0.00000
     11       3.7476      0.00000
     12       4.6945      0.00000
     13       5.3827      0.00000
     14       6.4196      0.00000
     15       7.5840      0.00000
     16       8.1969      0.00000

 k-point     4 :       0.2308   -0.0000    0.0000
  band No.  band energies     occupation 
      1     -16.2980      2.00000
      2     -10.8248      2.00000
      3      -6.5390      2.00000
      4      -4.4346      2.00000
      5      -3.8826      2.00000
      6      -1.5855      0.00000
      7       1.0434      0.00000
      8       1.1134      0.00000
      9       2.5310      0.00000
     10       2.8559      0.00000
     11       3.9642      0.00000
     12       4.7831      0.00000
     13       5.3545      0.00000
     14       5.8487      0.00000
     15       7.4606      0.00000
     16       8.2724      0.00000

 k-point     5 :       0.3077    0.0000    0.0000
  band No.  band energies     occupation 
      1     -15.7971      2.00000
      2     -11.2580      2.00000
      3      -7.0589      2.00000
      4      -4.8934      2.00000
      5      -4.0890      2.00000
      6      -1.7079      0.00000
      7       0.6804      0.00000
      8       1.4871      0.00000
      9       3.0776      0.00000
     10       3.2932      0.00000
     11       4.1824      0.00000
     12       5.3253      0.00000
     13       5.5930      0.00000
     14       6.8162      0.00000
     15       7.6395      0.00000
     16       8.4379      0.00000

 k-point     6 :       0.3846    0.0000    0.0000
  band No.  band energies     occupation 
      1     -15.2047      2.00000
      2     -11.8959      2.00000
      3      -7.0955      2.00000
      4      -5.2283      2.00000
      5      -4.5764      2.00000
      6      -1.6999      0.00000
      7       0.1605      0.00000
      8       1.4006      0.00000
      9       3.2824      0.00000
     10       3.8609      0.00000
     11       4.5621      0.00000
     12       5.7386      0.00000
     13       6.3884      0.00000
     14       6.8166      0.00000
     15       7.4688      0.00000
     16       7.9899      0.00000

 k-point     7 :       0.4615   -0.0000    0.0000
  band No.  band energies     occupation 
      1     -14.4608      2.00000
      2     -12.3121      2.00000
      3      -6.7295      2.00000
      4      -5.1105      2.00000
      5      -4.8746      2.00000
      6      -1.3085      0.00000
      7       0.0225      0.00000
      8       1.8420      0.00000
      9       3.1128      0.00000
     10       4.9159      0.00000
     11       5.4167      0.00000
     12       6.0744      0.00000
     13       6.5246      0.00000
     14       6.9375      0.00000
     15       7.4864      0.00000
     16       7.8466      0.00000

 k-point     8 :       0.0769    0.0769    0.0000
  band No.  band energies     occupation 
      1     -16.7940      2.00000
      2     -10.6970      2.00000
      3      -5.1594      2.00000
      4      -4.0319      2.00000
      5      -3.9142      2.00000
      6      -0.3380      0.00000
      7      -0.3159      0.00000
      8       0.9856      0.00000
      9       2.1682      0.00000
     10       2.2709      0.00000
     11       3.5854      0.00000
     12       4.5601      0.00000
     13       5.2366      0.00000
     14       6.3121      0.00000
     15       6.5736      0.00000
     16       7.6364      0.00000

 k-point     9 :       0.1538    0.0769    0.0000
  band No.  band energies     occupation 
      1     -16.4694      2.00000
      2     -10.7250      2.00000
      3      -6.1483      2.00000
      4      -4.5629      2.00000
      5      -3.8027      2.00000
      6      -0.9048      0.00000
      7       0.3556      0.00000
      8       1.4493      0.00000
      9       2.4630      0.00000
     10       2.6522      0.00000
     11       3.7565      0.00000
     12       4.7520      0.00000
     13       4.9530      0.00000
     14       6.1801      0.00000
     15       7.0256      0.00000
     16       7.3612      0.00000

 k-point    10 :       0.2308    0.0769    0.0000
  band No.  band energies     occupation 
      1     -15.9947      2.00000
      2     -11.0279      2.00000
      3      -6.8166      2.00000
      4      -5.1834      2.00000
      5      -3.9511      2.00000
      6      -1.2778      0.00000
      7       0.9487      0.00000
      8       1.2723      0.00000
      9       2.8459      0.00000
     10       3.1721      0.00000
     11       4.1600      0.00000
     12       5.1235      0.00000
     13       5.4680      0.00000
     14       6.1150      0.00000
     15       7.5718      0.00000
     16       8.1563      0.00000

 k-point    11 :       0.3077    0.0769    0.0000
  band No.  band energies     occupation 
      1     -15.4301      2.00000
      2     -11.5644      2.00000
      3      -7.0643      2.00000
      4      -5.5388      2.00000
      5      -4.2513      2.00000
      6      -1.4400      0.00000
      7       0.4648      0.00000
      8       1.1835      0.00000
      9       3.4302      0.00000
     10       3.5589      0.00000
     11       4.3542      0.00000
     12       5.6099      0.00000
     13       6.0565      0.00000
     14       6.7419      0.00000
     15       7.6048      0.00000
     16       8.2134      0.00000

 k-point    12 :       0.3846    0.0769    0.0000
  band No.  band energies     occupation 
      1     -14.8169      2.00000
      2     -12.2513      2.00000
      3      -7.0096      2.00000
      4      -5.6862      2.00000
      5      -4.6674      2.00000
      6      -1.1279      0.00000
      7       0.1032      0.00000
      8       0.9981      0.00000
      9       3.2341      0.00000
     10       4.3940      0.00000
     11       4.9976      0.00000
     12       6.0391      0.00000
     13       6.6112      0.00000
     14       6.9569      0.00000
     15       6.9886      0.00000
     16       7.6782      0.00000

 k-point    13 :       0.4615    0.0769    0.0000
  band No.  band energies     occupation 
      1     -14.5205      2.00000
      2     -12.6318      2.00000
      3      -6.9114      2.00000
      4      -5.6337      2.00000
      5      -5.0158      2.00000
      6      -0.8596      0.00000
      7      -0.2289      0.00000
      8       1.2187      0.00000
      9       3.0613      0.00000
     10       5.4198      0.00000
     11       5.4534      0.00000
     12       5.7853      0.00000
     13       6.1385      0.00000
     14       6.7647      0.00000
     15       7.2924      0.00000
     16       7.9860      0.00000

 k-point    14 :       0.1538    0.1538    0.0000
  band No.  band energies     occupation 
      1     -16.0886      2.00000
      2     -10.9519      2.00000
      3      -6.6155      2.00000
      4      -5.4733      2.00000
      5      -3.8837      2.00000
      6      -0.5719      0.00000
      7       0.3193      0.00000
      8       1.4961      0.00000
      9       2.8981      0.00000
     10       2.9197      0.00000
     11       3.7816      0.00000
     12       4.9176      0.00000
     13       5.3101      0.00000
     14       6.0762      0.00000
     15       7.4110      0.00000
     16       8.4884      0.00000

 k-point    15 :       0.2308    0.1538    0.0000
  band No.  band energies     occupation 
      1     -15.5603      2.00000
      2     -11.3533      2.00000
      3      -6.8604      2.00000
      4      -6.0554      2.00000
      5      -4.0434      2.00000
      6      -0.5744      0.00000
      7       0.2348      0.00000
      8       1.2057      0.00000
      9       3.3505      0.00000
     10       3.4934      0.00000
     11       4.1865      0.00000
     12       5.3716      0.00000
     13       5.6148      0.00000
     14       5.9321      0.00000
     15       7.4690      0.00000
     16       8.3612      0.00000

 k-point    16 :       0.3077    0.1538    0.0000
  band No.  band energies     occupation 
      1     -14.9732      2.00000
      2     -12.0266      2.00000
      3      -7.0093      2.00000
      4      -6.2389      2.00000
      5      -4.4118      2.00000
      6      -0.5477      0.00000
      7       0.4711      0.00000
      8       1.0174      0.00000
      9       3.7324      0.00000
     10       4.2028      0.00000
     11       4.7699      0.00000
     12       5.9062      0.00000
     13       5.9910      0.00000
     14       6.7388      0.00000
     15       7.4901      0.00000
     16       7.7980      0.00000

 k-point    17 :       0.3846    0.1538    0.0000
  band No.  band energies     occupation 
      1     -14.4370      2.00000
      2     -12.6391      2.00000
      3      -7.1216      2.00000
      4      -6.0411      2.00000
      5      -4.9410      2.00000
      6      -0.7115      0.00000
      7       0.1342      0.00000
      8       0.8494      0.00000
      9       3.4228      0.00000
     10       5.1413      0.00000
     11       5.6165      0.00000
     12       6.0418      0.00000
     13       6.3580      0.00000
     14       6.7590      0.00000
     15       7.3219      0.00000
     16       7.7504      0.00000

 k-point    18 :       0.2308    0.2308    0.0000
  band No.  band energies     occupation 
      1     -15.0189      2.00000
      2     -11.9462      2.00000
      3      -6.8868      2.00000
      4      -6.5796      2.00000
      5      -4.3679      2.00000
      6      -0.4109      0.00000
      7      -0.1107      0.00000
      8       1.5204      0.00000
      9       3.8707      0.00000
     10       4.1422      0.00000
     11       4.7246      0.00000
     12       5.2747      0.00000
     13       5.7771      0.00000
     14       6.6451      0.00000
     15       6.9622      0.00000
     16       8.6365      0.00000

 k-point    19 :       0.3077    0.2308    0.0000
  band No.  band energies     occupation 
      1     -14.4010      2.00000
      2     -12.5640      2.00000
      3      -7.3817      2.00000
      4      -6.1710      2.00000
      5      -4.6817      2.00000
      6      -0.8934      0.00000
      7       0.4753      0.00000
      8       1.4899      0.00000
      9       4.1543      0.00000
     10       4.9598      0.00000
     11       5.2613      0.00000
     12       5.7650      0.00000
     13       6.3771      0.00000
     14       7.3133      0.00000
     15       7.4253      0.00000
     16       7.6438      0.00000

 k-point    20 :       0.3846    0.2308    0.0000
  band No.  band energies     occupation 
      1     -14.0198      2.00000
      2     -12.9133      2.00000
      3      -7.5657      2.00000
      4      -5.8464      2.00000
      5      -5.0896      2.00000
      6      -1.0788      0.00000
      7       1.0225      0.00000
      8       1.2326      0.00000
      9       4.3077      0.00000
     10       5.3192      0.00000
     11       6.0269      0.00000
     12       6.1107      0.00000
     13       6.3661      0.00000
     14       6.9785      0.00000
     15       7.2102      0.00000
     16       8.1797      0.00000

 k-point    21 :       0.3077    0.3077    0.0000
  band No.  band energies     occupation 
      1     -13.6026      2.00000
      2     -12.8895      2.00000
      3      -7.7024      2.00000
      4      -5.6810      2.00000
      5      -5.0167      2.00000
      6      -0.9647      0.00000
      7       1.2272      0.00000
      8       2.0274      0.00000
      9       5.0375      0.00000
     10       5.8021      0.00000
     11       6.2046      0.00000
     12       6.7436      0.00000
     13       6.8561      0.00000
     14       7.3759      0.00000
     15       7.6133      0.00000
     16       7.8157      0.00000


--------------------------------------------------------------------------------------------------------


 soft charge-density along one line, spin component           1
         0         1         2         3         4         5         6         7         8         9
 total charge-density along one line
 
 pseudopotential strength for first ion, spin component:           1
 25.616 -40.880  -0.000   0.035   0.000   0.000  -0.072  -0.000
-40.880  42.460   0.000  -0.071  -0.000  -0.000   0.187   0.000
 -0.000   0.000   5.912   0.000  -0.000  -7.457  -0.000   0.000
  0.035  -0.071   0.000   5.910   0.000  -0.000  -7.454  -0.000
  0.000  -0.000  -0.000   0.000   5.912   0.000  -0.000  -7.457
  0.000  -0.000  -7.457  -0.000   0.000  11.171   0.000  -0.000
 -0.072   0.187  -0.000  -7.454  -0.000   0.000  11.165   0.000
 -0.000   0.000   0.000  -0.000  -7.457  -0.000   0.000  11.171
 -0.000   0.000   0.000  -0.000   0.002  -0.000   0.000  -0.003
  0.000  -0.000   0.011  -0.000  -0.000  -0.018   0.000   0.000
 -0.002   0.003  -0.000   0.009   0.000   0.000  -0.016   0.000
  0.000  -0.000  -0.000   0.000   0.011   0.000  -0.000  -0.018
  0.000  -0.000   0.002   0.000   0.000  -0.003  -0.000  -0.000
 total augmentation occupancy for first ion, spin component:           1
  2.000   0.000   0.000   0.000   0.000   0.000   0.000   0.000   0.000   0.000   0.000   0.000   0.000
  0.000   0.000   0.000   0.000   0.000   0.000   0.000   0.000   0.000   0.000   0.000   0.000   0.000
  0.000   0.000   1.000   0.000   0.000   0.000   0.000   0.000   0.000   0.000   0.000   0.000   0.000
  0.000   0.000   0.000   1.000   0.000   0.000   0.000   0.000   0.000   0.000   0.000   0.000   0.000
  0.000   0.000   0.000   0.000   1.000   0.000   0.000   0.000   0.000   0.000   0.000   0.000   0.000
  0.000   0.000   0.000   0.000   0.000   0.000   0.000   0.000   0.000   0.000   0.000   0.000   0.000
  0.000   0.000   0.000   0.000   0.000   0.000   0.000   0.000   0.000   0.000   0.000   0.000   0.000
  0.000   0.000   0.000   0.000   0.000   0.000   0.000   0.000   0.000   0.000   0.000   0.000   0.000
  0.000   0.000   0.000   0.000   0.000   0.000   0.000   0.000   0.000   0.000   0.000   0.000   0.000
  0.000   0.000   0.000   0.000   0.000   0.000   0.000   0.000   0.000   0.000   0.000   0.000   0.000
  0.000   0.000   0.000   0.000   0.000   0.000   0.000   0.000   0.000   0.000   0.000   0.000   0.000
  0.000   0.000   0.000   0.000   0.000   0.000   0.000   0.000   0.000   0.000   0.000   0.000   0.000
  0.000   0.000   0.000   0.000   0.000   0.000   0.000   0.000   0.000   0.000   0.000   0.000   0.000


--------------------------------------- Iteration      1(   3)  ---------------------------------------


     EDDAV:  cpu time      0.1080: real time      0.1081
       DOS:  cpu time      0.0003: real time      0.0003
    --------------------------------------------
      LOOP:  cpu time      0.1083: real time      0.1084

 eigenvalue-minimisations  :   800
 total energy-change (2. order) :-0.8669882E+00  (-0.8669882E+00)
 number of electron      10.0000000 magnetization 
 augmentation part       10.0000000 magnetization 

 Free energy of the ion-electron system (eV)
  ---------------------------------------------------
  alpha Z        PSCENC =         5.26383816
  Ewald energy   TEWEN  =       378.22030483
  -Hartree energ DENC   =      -664.27977220
  -exchange      EXHF   =         0.00000000
  -V(xc)+E(xc)   XCENC  =       -23.94414315
  PAW double counting   =       294.12882363     -251.25503797
  entropy T*S    EENTRO =        -0.00000000
  eigenvalues    EBANDS =       -87.87337673
  atomic energy  EATOM  =       340.36393574
  Solvation  Ediel_sol  =         0.00000000
  ---------------------------------------------------
  free energy    TOTEN  =        -9.37542768 eV

  energy without entropy =       -9.37542768  energy(sigma->0) =       -9.37542768


--------------------------------------------------------------------------------------------------------




 average (electrostatic) potential at core
  the test charge radii are     1.0621
[...]
      6      -2.5614      0.00000
      7       2.5581      0.00000
      8       2.1381      0.00000
      9       0.5559      0.00000
     10       0.4391      0.00000
     11       0.6876      0.00000
     12       0.5860      0.00000
     13       0.8164      0.00000
     14       0.0851      0.00000
     15       1.2120      0.00000
     16       0.7227      0.00000

 k-point  14 :       0.1538    0.1538    0.0000
  band No.  band energies     occupation 
      1      -4.5514      0.00000
      2       0.0466      0.00000
      3      -3.7159      0.00000
      4      -4.6074      0.00000
      5       1.1128      0.00000
      6       0.3707      0.00000
      7      -0.6556      0.00000
      8       0.5303      0.00000
      9      -0.3308      0.00000
     10      -0.2728      0.00000
     11      -1.5053      0.00000
     12      -0.1685      0.00000
     13       0.1811      0.00000
     14       0.7414      0.00000
     15       0.2038      0.00000
     16      -2.1901      0.00000

 k-point  15 :       0.2308    0.1538    0.0000
  band No.  band energies     occupation 
      1      -4.4469      0.00000
      2      -1.2659      0.00000
      3      -2.6039      0.00000
      4      -4.4585      0.00000
      5       0.6122      0.00000
      6       0.7725      0.00000
      7       1.2047      0.00000
      8      -0.4426      0.00000
      9      -0.1003      0.00000
     10      -0.2311      0.00000
     11      -1.0036      0.00000
     12       0.3166      0.00000
     13      -0.6212      0.00000
     14       0.0813      0.00000
     15       0.7049      0.00000
     16      -0.1536      0.00000

 k-point  16 :       0.3077    0.1538    0.0000
  band No.  band energies     occupation 
      1      -4.2964      0.00000
      2      -2.4304      0.00000
      3      -2.5976      0.00000
      4      -3.3937      0.00000
      5       0.1998      0.00000
      6       1.2445      0.00000
      7       1.1292      0.00000
      8       0.0992      0.00000
      9      -0.1388      0.00000
     10       0.4986      0.00000
     11       0.5444      0.00000
     12       0.2606      0.00000
     13      -2.1266      0.00000
     14       0.1813      0.00000
     15       0.5076      0.00000
     16       0.5347      0.00000

 k-point  17 :       0.3846    0.1538    0.0000
  band No.  band energies     occupation 
      1      -4.1244      0.00000
      2      -3.1104      0.00000
      3      -3.0268      0.00000
      4      -2.5032      0.00000
      5       0.0989      0.00000
      6       1.8972      0.00000
      7      -0.8935      0.00000
      8       2.1949      0.00000
      9      -0.2860      0.00000
     10       0.6294      0.00000
     11       0.6064      0.00000
     12       0.5135      0.00000
     13       0.3763      0.00000
     14       0.2465      0.00000
     15      -0.2583      0.00000
     16       0.4527      0.00000

 k-point  18 :       0.2308    0.2308    0.0000
  band No.  band energies     occupation 
      1      -4.3091      0.00000
      2      -2.2678      0.00000
      3      -4.5157      0.00000
      4      -1.6354      0.00000
      5       0.2542      0.00000
      6       1.5709      0.00000
      7       1.8639      0.00000
      8       0.2768      0.00000
      9      -2.0444      0.00000
     10       0.4387      0.00000
     11      -0.9035      0.00000
     12      -1.4096      0.00000
     13       0.4989      0.00000
     14       0.3622      0.00000
     15       0.7873      0.00000
     16       0.5132      0.00000

 k-point  19 :       0.3077    0.2308    0.0000
  band No.  band energies     occupation 
      1      -4.1168      0.00000
      2      -3.0155      0.00000
      3      -4.3866      0.00000
      4      -1.1611      0.00000
      5      -0.0097      0.00000
      6       1.7575      0.00000
      7       2.2107      0.00000
      8       1.2149      0.00000
      9      -1.9285      0.00000
     10       0.2957      0.00000
     11       0.3509      0.00000
     12      -2.0292      0.00000
     13      -0.5126      0.00000
     14       0.4857      0.00000
     15       0.4689      0.00000
     16       0.3972      0.00000

 k-point  20 :       0.3846    0.2308    0.0000
  band No.  band energies     occupation 
      1      -3.9651      0.00000
      2      -3.3540      0.00000
      3      -4.3418      0.00000
      4      -1.0421      0.00000
      5      -0.0570      0.00000
      6       1.8071      0.00000
      7       2.9431      0.00000
      8       0.9290      0.00000
      9      -2.1150      0.00000
     10       0.3181      0.00000
     11       0.4473      0.00000
     12       0.5205      0.00000
     13      -0.2656      0.00000
     14       0.3693      0.00000
     15      -1.1656      0.00000
     16      -2.5538      0.00000

 k-point  21 :       0.3077    0.3077    0.0000
  band No.  band energies     occupation 
      1      -3.8683      0.00000
      2      -3.4675      0.00000
      3      -4.6233      0.00000
      4      -0.6102      0.00000
      5      -0.2465      0.00000
      6       1.7838      0.00000
      7       2.8092      0.00000
      8       2.5033      0.00000
      9      -0.1715      0.00000
     10      -2.0034      0.00000
     11      -2.7274      0.00000
     12      -0.7634      0.00000
     13       0.3557      0.00000
     14      -0.3927      0.00000
     15       0.6099      0.00000
     16      -1.0601      0.00000


------------------------ aborting loop because EDIFF is reached ----------------------------------------


    FORLOC:  cpu time      0.0004: real time      0.0004
    FORNL :  cpu time      0.0288: real time      0.0288
    STRESS:  cpu time      0.1738: real time      0.1740
    FORCOR:  cpu time      0.0080: real time      0.0080
    OFIELD:  cpu time      0.0001: real time      0.0001
    FORLOC:  cpu time      0.0004: real time      0.0004
    FORNL :  cpu time      0.0289: real time      0.0290
    STRESS:  cpu time      0.1753: real time      0.1754
    FORCOR:  cpu time      0.0081: real time      0.0081
    OFIELD:  cpu time      0.0001: real time      0.0001
    FORLOC:  cpu time      0.0004: real time      0.0004
    FORNL :  cpu time      0.0292: real time      0.0292
    STRESS:  cpu time      0.1750: real time      0.1751
    FORCOR:  cpu time      0.0081: real time      0.0081
    OFIELD:  cpu time      0.0001: real time      0.0001
    FORLOC:  cpu time      0.0004: real time      0.0004
    FORNL :  cpu time      0.0292: real time      0.0292
    STRESS:  cpu time      0.1750: real time      0.1752
    FORCOR:  cpu time      0.0081: real time      0.0081
    OFIELD:  cpu time      0.0001: real time      0.0001

 INTERNAL STRAIN TENSOR  FOR ION    1  DIRECTION 3   (eV/Angst):
 -----------------------------------------------------------------------------
     6.27837 -0.00000 -0.00000
    -0.00000  6.27837 -0.00000
    -0.00000  0.00000 17.81949


 POSITION                   FORCE-CONSTANT FOR ION    1 DIRECTION 3 (eV/Angst/Angst)
 -----------------------------------------------------------------------------------
      1.80345      1.04122      7.30149         0.000000     -0.000000    -12.806906
      0.00000      2.08244      8.69851        -0.000000      0.000000     12.806906
 -----------------------------------------------------------------------------------
    total drift:                                0.000000      0.000000      0.000000




--------------------------------------------------------------------------------------------------------


  LATTYP: Found a hexagonal cell.
 ALAT       =     3.6068925390
 C/A-ratio  =     4.4359513978
  
  Lattice vectors:
  
 A1 = (   3.6068925390,   0.0000000000,   0.0000000000)
 A2 = (  -1.8034462695,   3.1236605675,   0.0000000000)
 A3 = (   0.0000000000,   0.0000000000,  16.0000000000)


Analysis of symmetry for initial positions (statically):
=====================================================================
 Subroutine PRICEL returns:
 Original cell was already a primitive cell.
 

 Routine SETGRP: Setting up the symmetry group for a 
 hexagonal supercell.


 Subroutine GETGRP returns: Found 12 space group operations
 (whereof 12 operations were pure point group operations)
 out of a pool of 24 trial point group operations.


The static configuration has the point symmetry D_3d.


Analysis of symmetry for dynamics (positions and initial velocities):
=====================================================================
 Subroutine PRICEL returns:
 Original cell was already a primitive cell.
 

 Routine SETGRP: Setting up the symmetry group for a 
 hexagonal supercell.


 Subroutine GETGRP returns: Found 12 space group operations
 (whereof 12 operations were pure point group operations)
 out of a pool of 24 trial point group operations.


The dynamic configuration has the point symmetry D_3d.


 Subroutine INISYM returns: Found 12 space group operations
 (whereof 12 operations are pure point group operations),
 and found     1 'primitive' translations

 
 KPOINTS: kpoints                                 

Automatic generation of k-mesh.
 Grid dimensions read from file:
 generate k-points for:   13   13    1

 Generating k-lattice:

  Cartesian coordinates                     Fractional coordinates (reciprocal lattice)
     0.021326689  0.012312970  0.000000000     0.076923077  0.000000000  0.000000000
     0.000000000  0.024625940  0.000000000     0.000000000  0.076923077  0.000000000
     0.000000000  0.000000000  0.062500000     0.000000000  0.000000000  1.000000000

  Length of vectors
     0.024625940  0.024625940  0.062500000

  Shift w.r.t. Gamma in fractional coordinates (k-lattice)
     0.000000000  0.000000000  0.000000000

 
 Subroutine IBZKPT returns following result:
 ===========================================
 
 Found     21 irreducible k-points:
 
 Following reciprocal coordinates:
            Coordinates               Weight
  0.000000  0.000000  0.000000      1.000000
  0.076923  0.000000  0.000000      6.000000
  0.153846  0.000000  0.000000      6.000000
  0.230769 -0.000000  0.000000      6.000000
  0.307692  0.000000  0.000000      6.000000
  0.384615  0.000000  0.000000      6.000000
  0.461538 -0.000000  0.000000      6.000000
  0.076923  0.076923  0.000000      6.000000
  0.153846  0.076923  0.000000     12.000000
  0.230769  0.076923  0.000000     12.000000
  0.307692  0.076923  0.000000     12.000000
  0.384615  0.076923  0.000000     12.000000
  0.461538  0.076923  0.000000      6.000000
  0.153846  0.153846  0.000000      6.000000
  0.230769  0.153846  0.000000     12.000000
  0.307692  0.153846  0.000000     12.000000
  0.384615  0.153846  0.000000     12.000000
  0.230769  0.230769  0.000000      6.000000
  0.307692  0.230769  0.000000     12.000000
  0.384615  0.230769  0.000000      6.000000
  0.307692  0.307692  0.000000      6.000000
 
 Following cartesian coordinates:
            Coordinates               Weight
  0.000000  0.000000  0.000000      1.000000
  0.021327  0.012313  0.000000      6.000000
  0.042653  0.024626  0.000000      6.000000
  0.063980  0.036939  0.000000      6.000000
  0.085307  0.049252  0.000000      6.000000
  0.106633  0.061565  0.000000      6.000000
  0.127960  0.073878  0.000000      6.000000
  0.021327  0.036939  0.000000      6.000000
  0.042653  0.049252  0.000000     12.000000
  0.063980  0.061565  0.000000     12.000000
  0.085307  0.073878  0.000000     12.000000
  0.106633  0.086191  0.000000     12.000000
  0.127960  0.098504  0.000000      6.000000
  0.042653  0.073878  0.000000      6.000000
  0.063980  0.086191  0.000000     12.000000
  0.085307  0.098504  0.000000     12.000000
  0.106633  0.110817  0.000000     12.000000
  0.063980  0.110817  0.000000      6.000000
  0.085307  0.123130  0.000000     12.000000
  0.106633  0.135443  0.000000      6.000000
  0.085307  0.147756  0.000000      6.000000
 


--------------------------------------------------------------------------------------------------------



 INTERNAL STRAIN TENSOR FOR ION    1 for displacements in x,y,z  (eV/Angst):
          X           Y           Z          XY          YZ          ZX
  --------------------------------------------------------------------------------
  x     0.00000    -0.00000    -0.00000     3.02359     0.00000    10.44908
  y     3.02359    -3.02359    -0.00000    -0.00000    10.21372     0.00000
  z     6.27837     6.27837    17.81949     0.00000    -0.00000    -0.00000

 INTERNAL STRAIN TENSOR FOR ION    2 for displacements in x,y,z  (eV/Angst):
          X           Y           Z          XY          YZ          ZX
  --------------------------------------------------------------------------------
  x    -0.00000     0.00000     0.00000    -3.02359    -0.00000   -10.44908
  y    -3.02359     3.02359     0.00000     0.00000   -10.21372    -0.00000
  z    -6.27837    -6.27837   -17.81949    -0.00000     0.00000     0.00000


--------------------------------------------------------------------------------------------------------


 
 SECOND DERIVATIVES (NOT SYMMETRIZED)
 ------------------------------------
               1X          1Y          1Z          2X          2Y          2Z 
  1X    -7.690888   -0.000000    0.000000    7.690888    0.000000   -0.000000
  1Y    -0.000000   -7.690888    0.000000    0.000000    7.690888    0.000000
  1Z    -0.000000    0.000000  -12.806906    0.000000    0.000000   12.806906
  2X     7.690888    0.000000   -0.000000   -7.690888   -0.000000    0.000000
  2Y     0.000000    7.690888    0.000000   -0.000000   -7.690888    0.000000
  2Z     0.000000    0.000000   12.806906   -0.000000    0.000000  -12.806906
 
 
 Eigenvectors and eigenvalues of the dynamical matrix
 ----------------------------------------------------
 
 
   1 f  =    9.140778 THz    57.433202 2PiTHz  304.903534 cm-1    37.803203 meV
             X         Y         Z           dx          dy          dz
      1.803446  1.041220  7.301490     0.000000    0.000000   -0.707107  
      0.000000  2.082440  8.698510    -0.000000    0.000000    0.707107  
 
   2 f  =    7.083523 THz    44.507085 2PiTHz  236.280878 cm-1    29.295082 meV
             X         Y         Z           dx          dy          dz
      1.803446  1.041220  7.301490    -0.000000   -0.707107    0.000000  
      0.000000  2.082440  8.698510    -0.000000    0.707107    0.000000  
 
   3 f  =    7.083523 THz    44.507085 2PiTHz  236.280878 cm-1    29.295082 meV
             X         Y         Z           dx          dy          dz
      1.803446  1.041220  7.301490     0.707107    0.000000    0.000000  
      0.000000  2.082440  8.698510    -0.707107   -0.000000    0.000000  
 
   4 f  =    0.000000 THz     0.000000 2PiTHz    0.000002 cm-1     0.000000 meV
             X         Y         Z           dx          dy          dz
      1.803446  1.041220  7.301490    -0.052377   -0.705164    0.000000  
      0.000000  2.082440  8.698510    -0.052377   -0.705164    0.000000  
 
   5 f  =    0.000000 THz     0.000000 2PiTHz    0.000000 cm-1     0.000000 meV
             X         Y         Z           dx          dy          dz
      1.803446  1.041220  7.301490    -0.000000    0.000000    0.707107  
      0.000000  2.082440  8.698510     0.000000    0.000000    0.707107  
 
   6 f/i=    0.000000 THz     0.000001 2PiTHz    0.000004 cm-1     0.000000 meV
             X         Y         Z           dx          dy          dz
      1.803446  1.041220  7.301490     0.705164   -0.052377   -0.000000  
      0.000000  2.082440  8.698510     0.705164   -0.052377    0.000000  
 
 Eigenvectors after division by SQRT(mass)
 
 Eigenvectors and eigenvalues of the dynamical matrix
 ----------------------------------------------------
 
 
   1 f  =    9.140778 THz    57.433202 2PiTHz  304.903534 cm-1    37.803203 meV
             X         Y         Z           dx          dy          dz
      1.803446  1.041220  7.301490     0.000000    0.000000   -0.081692  
      0.000000  2.082440  8.698510    -0.000000    0.000000    0.081692  
 
   2 f  =    7.083523 THz    44.507085 2PiTHz  236.280878 cm-1    29.295082 meV
             X         Y         Z           dx          dy          dz
      1.803446  1.041220  7.301490    -0.000000   -0.081692    0.000000  
      0.000000  2.082440  8.698510    -0.000000    0.081692    0.000000  
 
   3 f  =    7.083523 THz    44.507085 2PiTHz  236.280878 cm-1    29.295082 meV
             X         Y         Z           dx          dy          dz
      1.803446  1.041220  7.301490     0.081692    0.000000    0.000000  
      0.000000  2.082440  8.698510    -0.081692   -0.000000    0.000000  
 
   4 f  =    0.000000 THz     0.000000 2PiTHz    0.000002 cm-1     0.000000 meV
             X         Y         Z           dx          dy          dz
      1.803446  1.041220  7.301490    -0.006051   -0.081468    0.000000  
      0.000000  2.082440  8.698510    -0.006051   -0.081468    0.000000  
 
   5 f  =    0.000000 THz     0.000000 2PiTHz    0.000000 cm-1     0.000000 meV
             X         Y         Z           dx          dy          dz
      1.803446  1.041220  7.301490    -0.000000    0.000000    0.081692  
      0.000000  2.082440  8.698510     0.000000    0.000000    0.081692  
 
   6 f/i=    0.000000 THz     0.000001 2PiTHz    0.000004 cm-1     0.000000 meV
             X         Y         Z           dx          dy          dz
      1.803446  1.041220  7.301490     0.081468   -0.006051   -0.000000  
      0.000000  2.082440  8.698510     0.081468   -0.006051    0.000000  
 


--------------------------------------------------------------------------------------------------------



 ELASTIC MODULI CONTR FROM IONIC RELAXATION (kBar)
 Direction    XX          YY          ZZ          XY          YZ          ZX
 --------------------------------------------------------------------------------
 XX         -37.9202    -16.7906    -77.6411     -0.0000    -35.6881     -0.0000
 YY         -16.7906    -37.9202    -77.6411     -0.0000     35.6881      0.0000
 ZZ         -77.6411    -77.6411   -220.3637     -0.0000      0.0000      0.0000
 XY          -0.0000     -0.0000     -0.0000    -10.5648      0.0000    -36.5105
 YZ         -35.6881     35.6881      0.0000      0.0000   -120.5548     -0.0000
 ZX          -0.0000      0.0000      0.0000    -36.5105     -0.0000   -126.1750
 --------------------------------------------------------------------------------



--------------------------------------------------------------------------------------------------------


     LOOP+:  cpu time     30.2192: real time     31.2512
    4ORBIT:  cpu time      0.0000: real time      0.0000



 total charge

# of ion       s       p       d       tot
------------------------------------------
    1        1.291   1.352   0.041   2.684
    2        1.291   1.352   0.041   2.684
--------------------------------------------------
tot          2.582   2.703   0.082   5.368
 

 total amount of memory used by VASP MPI-rank0    37959. kBytes
=======================================================================

   base      :      30000. kBytes
   nonl-proj :       3332. kBytes
   fftplans  :       2217. kBytes
   grid      :       1878. kBytes
   one-center:         16. kBytes
   wavefun   :        516. kBytes
 
  
  
 General timing and accounting informations for this job:
 ========================================================
  
                  Total CPU time used (sec):       30.760
                            User time (sec):       30.520
                          System time (sec):        0.240
                         Elapsed time (sec):       33.555
  
                   Maximum memory used (kb):      179804.
                   Average memory used (kb):          N/A
  
                          Minor page faults:        26705
                          Major page faults:         3575
                 Voluntary context switches:         1234
