PROCAR new format
# of k-points:   85         # of bands:   16         # of ions:    2

 k-point     1 :    0.00000000 0.00000000 0.00000000     weight = 0.00591716

band     1 # energy  -16.47511016 # occ.  2.00000000
 
ion      s      p      d    tot
    1  0.268  0.011  0.000  0.279
    2  0.268  0.011  0.000  0.279
tot    0.536  0.021  0.000  0.557
 
band     2 # energy  -10.18701399 # occ.  2.00000000
 
ion      s      p      d    tot
    1  0.284  0.025  0.001  0.310
    2  0.284  0.025  0.001  0.310
tot    0.568  0.050  0.001  0.619
 
band     3 # energy   -3.56353150 # occ.  2.00000000
 
ion      s      p      d    tot
    1  0.006  0.194  0.002  0.201
    2  0.006  0.194  0.002  0.201
tot    0.011  0.387  0.003  0.402
 
band     4 # energy   -3.05869260 # occ.  2.00000000
 
ion      s      p      d    tot
    1  0.000  0.284  0.014  0.298
    2  0.000  0.284  0.014  0.298
tot    0.000  0.568  0.029  0.596
 
band     5 # energy   -2.96782332 # occ.  1.99999999
 
ion      s      p      d    tot
    1  0.000  0.283  0.014  0.297
    2  0.000  0.283  0.014  0.297
tot    0.000  0.566  0.028  0.594
 
band     6 # energy   -1.09222058 # occ.  0.00000000
 
ion      s      p      d    tot
    1  0.144  0.119  0.011  0.273
    2  0.144  0.119  0.011  0.273
tot    0.288  0.237  0.021  0.547
 
band     7 # energy    0.42517594 # occ.  0.00000000
 
ion      s      p      d    tot
    1  0.000  0.261  0.019  0.279
    2  0.000  0.261  0.019  0.279
tot    0.000  0.521  0.037  0.558
 
band     8 # energy    0.52938660 # occ.  0.00000000
 
ion      s      p      d    tot
    1  0.000  0.260  0.019  0.279
    2  0.000  0.260  0.019  0.279
tot    0.000  0.520  0.038  0.558
 
band     9 # energy    1.90337416 # occ.  0.00000000
 
ion      s      p      d    tot
    1  0.000  0.014  0.012  0.026
    2  0.000  0.014  0.012  0.026
tot    0.000  0.028  0.025  0.053
 
band    10 # energy    1.99648076 # occ.  0.00000000
 
ion      s      p      d    tot
    1  0.005  0.017  0.000  0.022
    2  0.005  0.017  0.000  0.022
tot    0.010  0.034  0.000  0.044
 
band    11 # energy    3.37604033 # occ.  0.00000000
 
ion      s      p      d    tot
    1  0.012  0.026  0.000  0.037
    2  0.012  0.026  0.000  0.037
tot    0.024  0.051  0.000  0.075
 
band    12 # energy    4.30401419 # occ.  0.00000000
 
ion      s      p      d    tot
    1  0.002  0.002  0.017  0.021
    2  0.002  0.002  0.017  0.021
tot    0.003  0.004  0.034  0.042
 
band    13 # energy    5.86404731 # occ.  0.00000000
 
ion      s      p      d    tot
    1  0.083  0.009  0.007  0.099
    2  0.083  0.009  0.007  0.099
tot    0.166  0.018  0.014  0.197
 
band    14 # energy    6.88487874 # occ.  0.00000000
 
ion      s      p      d    tot
    1  0.005  0.027  0.014  0.047
    2  0.005  0.027  0.014  0.047
tot    0.010  0.055  0.029  0.093
 
band    15 # energy    7.03850646 # occ.  0.00000000
 
ion      s      p      d    tot
    1  0.000  0.033  0.133  0.166
    2  0.000  0.033  0.133  0.166
tot    0.000  0.066  0.266  0.332
 
band    16 # energy    7.10018974 # occ.  0.00000000
 
ion      s      p      d    tot
    1  0.000  0.033  0.134  0.166
    2  0.000  0.033  0.134  0.166
tot    0.000  0.066  0.267  0.333
 

 k-point     2 :    0.07692308 0.00000000 0.00000000     weight = 0.01183432

band     1 # energy  -16.39642341 # occ.  2.00000000
 
ion      s      p      d    tot
    1  0.268  0.011  0.000  0.279
    2  0.268  0.011  0.000  0.279
tot    0.536  0.023  0.000  0.559
 
band     2 # energy  -10.17715443 # occ.  2.00000000
 
ion      s      p      d    tot
    1  0.289  0.024  0.001  0.314
    2  0.289  0.024  0.001  0.314
tot    0.579  0.047  0.002  0.628
 
band     3 # energy   -3.83565369 # occ.  2.00000000
 
ion      s      p      d    tot
    1  0.020  0.242  0.013  0.275
    2  0.020  0.242  0.013  0.275
tot    0.040  0.483  0.027  0.550
 
band     4 # energy   -3.52458949 # occ.  2.00000000
 
ion      s      p      d    tot
    1  0.007  0.196  0.002  0.204
    2  0.007  0.196  0.002  0.204
tot    0.013  0.392  0.003  0.408
 
band     5 # energy   -3.15540288 # occ.  2.00000000
 
ion      s      p      d    tot
    1  0.000  0.278  0.014  0.291
    2  0.000  0.278  0.014  0.291
tot    0.000  0.555  0.028  0.583
 
band     6 # energy   -0.51306643 # occ.  0.00000000
 
ion      s      p      d    tot
    1  0.107  0.160  0.011  0.278
    2  0.107  0.160  0.011  0.278
tot    0.213  0.321  0.021  0.556
 
band     7 # energy    0.39452912 # occ.  0.00000000
 
ion      s      p      d    tot
    1  0.021  0.237  0.015  0.273
    2  0.021  0.237  0.015  0.273
tot    0.042  0.474  0.030  0.545
 
band     8 # energy    0.62074176 # occ.  0.00000000
 
ion      s      p      d    tot
    1  0.000  0.269  0.017  0.286
    2  0.000  0.269  0.017  0.286
tot    0.000  0.538  0.034  0.572
 
band     9 # energy    2.01686585 # occ.  0.00000000
 
ion      s      p      d    tot
    1  0.001  0.019  0.013  0.032
    2  0.001  0.019  0.013  0.032
tot    0.001  0.039  0.025  0.065
 
band    10 # energy    2.09297515 # occ.  0.00000000
 
ion      s      p      d    tot
    1  0.003  0.019  0.001  0.023
    2  0.003  0.019  0.001  0.023
tot    0.006  0.039  0.002  0.047
 
band    11 # energy    3.46240630 # occ.  0.00000000
 
ion      s      p      d    tot
    1  0.009  0.027  0.001  0.037
    2  0.009  0.027  0.001  0.037
tot    0.018  0.054  0.003  0.075
 
band    12 # energy    4.39797593 # occ.  0.00000000
 
ion      s      p      d    tot
    1  0.001  0.003  0.017  0.021
    2  0.001  0.003  0.017  0.021
tot    0.003  0.005  0.035  0.043
 
band    13 # energy    6.02713699 # occ.  0.00000000
 
ion      s      p      d    tot
    1  0.010  0.022  0.063  0.095
    2  0.010  0.022  0.063  0.095
tot    0.020  0.043  0.126  0.189
 
band    14 # energy    6.22830772 # occ.  0.00000000
 
ion      s      p      d    tot
    1  0.060  0.039  0.025  0.124
    2  0.060  0.039  0.025  0.124
tot    0.120  0.078  0.051  0.249
 
band    15 # energy    7.01277429 # occ.  0.00000000
 
ion      s      p      d    tot
    1  0.000  0.023  0.135  0.158
    2  0.000  0.023  0.135  0.158
tot    0.000  0.045  0.270  0.315
 
band    16 # energy    7.43650986 # occ.  0.00000000
 
ion      s      p      d    tot
    1  0.003  0.054  0.069  0.126
    2  0.003  0.054  0.069  0.126
tot    0.005  0.108  0.139  0.252
 

 k-point     3 :    0.00000000 0.07692308 0.00000000     weight = 0.01183432

band     1 # energy  -16.39672343 # occ.  2.00000000
 
ion      s      p      d    tot
    1  0.268  0.011  0.000  0.279
    2  0.268  0.011  0.000  0.279
tot    0.536  0.023  0.000  0.559
 
band     2 # energy  -10.17652982 # occ.  2.00000000
 
ion      s      p      d    tot
    1  0.289  0.024  0.001  0.314
    2  0.289  0.024  0.001  0.314
tot    0.579  0.047  0.002  0.628
 
band     3 # energy   -3.80674283 # occ.  2.00000000
 
ion      s      p      d    tot
    1  0.020  0.241  0.013  0.275
    2  0.020  0.241  0.013  0.275
tot    0.040  0.482  0.027  0.549
 
band     4 # energy   -3.52600492 # occ.  2.00000000
 
ion      s      p      d    tot
    1  0.007  0.196  0.002  0.204
    2  0.007  0.196  0.002  0.204
tot    0.013  0.392  0.003  0.409
 
band     5 # energy   -3.18703135 # occ.  2.00000000
 
ion      s      p      d    tot
    1  0.000  0.278  0.014  0.292
    2  0.000  0.278  0.014  0.292
tot    0.000  0.555  0.028  0.583
 
band     6 # energy   -0.50877877 # occ.  0.00000000
 
ion      s      p      d    tot
    1  0.106  0.160  0.011  0.277
    2  0.106  0.160  0.011  0.277
tot    0.213  0.320  0.022  0.555
 
band     7 # energy    0.35004591 # occ.  0.00000000
 
ion      s      p      d    tot
    1  0.020  0.239  0.015  0.274
    2  0.020  0.239  0.015  0.274
tot    0.041  0.478  0.030  0.548
 
band     8 # energy    0.66437771 # occ.  0.00000000
 
ion      s      p      d    tot
    1  0.000  0.268  0.017  0.286
    2  0.000  0.268  0.017  0.286
tot    0.000  0.537  0.034  0.572
 
band     9 # energy    2.01582825 # occ.  0.00000000
 
ion      s      p      d    tot
    1  0.001  0.019  0.013  0.032
    2  0.001  0.019  0.013  0.032
tot    0.001  0.038  0.025  0.065
 
band    10 # energy    2.09240233 # occ.  0.00000000
 
ion      s      p      d    tot
    1  0.003  0.019  0.001  0.023
    2  0.003  0.019  0.001  0.023
tot    0.006  0.039  0.001  0.046
 
band    11 # energy    3.46200627 # occ.  0.00000000
 
ion      s      p      d    tot
    1  0.009  0.027  0.001  0.037
    2  0.009  0.027  0.001  0.037
tot    0.018  0.054  0.003  0.075
 
band    12 # energy    4.39753203 # occ.  0.00000000
 
ion      s      p      d    tot
    1  0.001  0.003  0.017  0.021
    2  0.001  0.003  0.017  0.021
tot    0.003  0.005  0.035  0.043
 
band    13 # energy    6.03885336 # occ.  0.00000000
 
ion      s      p      d    tot
    1  0.014  0.021  0.058  0.093
    2  0.014  0.021  0.058  0.093
tot    0.027  0.042  0.116  0.185
 
band    14 # energy    6.24038409 # occ.  0.00000000
 
ion      s      p      d    tot
    1  0.057  0.040  0.030  0.126
    2  0.057  0.040  0.030  0.126
tot    0.113  0.079  0.059  0.252
 
band    15 # energy    6.99377641 # occ.  0.00000000
 
ion      s      p      d    tot
    1  0.000  0.023  0.135  0.158
    2  0.000  0.023  0.135  0.158
tot    0.000  0.045  0.270  0.315
 
band    16 # energy    7.42678005 # occ.  0.00000000
 
ion      s      p      d    tot
    1  0.003  0.053  0.069  0.125
    2  0.003  0.053  0.069  0.125
tot    0.006  0.106  0.139  0.251
 

 k-point     4 :   -0.07692308 0.07692308 0.00000000     weight = 0.01183432

band     1 # energy  -16.39702839 # occ.  2.00000000
 
ion      s      p      d    tot
    1  0.268  0.011  0.000  0.279
    2  0.268  0.011  0.000  0.279
tot    0.536  0.023  0.000  0.559
 
band     2 # energy  -10.17589412 # occ.  2.00000000
 
ion      s      p      d    tot
    1  0.289  0.024  0.001  0.314
    2  0.289  0.024  0.001  0.314
tot    0.579  0.047  0.002  0.628
 
band     3 # energy   -3.77487858 # occ.  2.00000000
 
ion      s      p      d    tot
    1  0.021  0.240  0.013  0.274
    2  0.021  0.240  0.013  0.274
tot    0.041  0.480  0.027  0.548
 
band     4 # energy   -3.52467615 # occ.  2.00000000
 
ion      s      p      d    tot
    1  0.007  0.196  0.002  0.204
    2  0.007  0.196  0.002  0.204
tot    0.013  0.392  0.003  0.409
 
band     5 # energy   -3.22471770 # occ.  2.00000000
 
ion      s      p      d    tot
    1  0.000  0.278  0.014  0.293
    2  0.000  0.278  0.014  0.293
tot    0.000  0.557  0.028  0.585
 
band     6 # energy   -0.50337520 # occ.  0.00000000
 
ion      s      p      d    tot
    1  0.107  0.159  0.011  0.277
    2  0.107  0.159  0.011  0.277
tot    0.213  0.318  0.022  0.554
 
band     7 # energy    0.31396826 # occ.  0.00000000
 
ion      s      p      d    tot
    1  0.020  0.241  0.014  0.275
    2  0.020  0.241  0.014  0.275
tot    0.040  0.481  0.029  0.550
 
band     8 # energy    0.69884194 # occ.  0.00000000
 
ion      s      p      d    tot
    1  0.000  0.269  0.017  0.286
    2  0.000  0.269  0.017  0.286
tot    0.000  0.537  0.035  0.572
 
band     9 # energy    2.01478730 # occ.  0.00000000
 
ion      s      p      d    tot
    1  0.001  0.019  0.013  0.032
    2  0.001  0.019  0.013  0.032
tot    0.001  0.038  0.025  0.064
 
band    10 # energy    2.09185230 # occ.  0.00000000
 
ion      s      p      d    tot
    1  0.003  0.019  0.001  0.023
    2  0.003  0.019  0.001  0.023
tot    0.007  0.038  0.001  0.046
 
band    11 # energy    3.46160298 # occ.  0.00000000
 
ion      s      p      d    tot
    1  0.009  0.027  0.001  0.037
    2  0.009  0.027  0.001  0.037
tot    0.018  0.054  0.003  0.075
 
band    12 # energy    4.39708680 # occ.  0.00000000
 
ion      s      p      d    tot
    1  0.002  0.003  0.017  0.021
    2  0.002  0.003  0.017  0.021
tot    0.003  0.005  0.035  0.043
 
band    13 # energy    6.04932581 # occ.  0.00000000
 
ion      s      p      d    tot
    1  0.018  0.020  0.053  0.091
    2  0.018  0.020  0.053  0.091
tot    0.035  0.041  0.106  0.182
 
band    14 # energy    6.25563387 # occ.  0.00000000
 
ion      s      p      d    tot
    1  0.053  0.040  0.034  0.127
    2  0.053  0.040  0.034  0.127
tot    0.106  0.080  0.068  0.254
 
band    15 # energy    6.97236517 # occ.  0.00000000
 
ion      s      p      d    tot
    1  0.000  0.023  0.135  0.157
    2  0.000  0.023  0.135  0.157
tot    0.000  0.046  0.269  0.315
 
band    16 # energy    7.41591366 # occ.  0.00000000
 
ion      s      p      d    tot
    1  0.003  0.052  0.069  0.125
    2  0.003  0.052  0.069  0.125
tot    0.007  0.104  0.139  0.250
 

 k-point     5 :    0.15384615 0.00000000 0.00000000     weight = 0.01183432

band     1 # energy  -16.16219775 # occ.  2.00000000
 
ion      s      p      d    tot
    1  0.268  0.013  0.000  0.282
    2  0.268  0.013  0.000  0.282
tot    0.537  0.026  0.001  0.563
 
band     2 # energy  -10.18208714 # occ.  2.00000000
 
ion      s      p      d    tot
    1  0.306  0.020  0.001  0.326
    2  0.306  0.020  0.001  0.326
tot    0.611  0.039  0.003  0.653
 
band     3 # energy   -5.04888370 # occ.  2.00000000
 
ion      s      p      d    tot
    1  0.016  0.217  0.011  0.244
    2  0.016  0.217  0.011  0.244
tot    0.033  0.433  0.023  0.489
 
band     4 # energy   -3.57238014 # occ.  2.00000000
 
ion      s      p      d    tot
    1  0.000  0.268  0.013  0.281
    2  0.000  0.268  0.013  0.281
tot    0.000  0.536  0.026  0.561
 
band     5 # energy   -3.43812332 # occ.  2.00000000
 
ion      s      p      d    tot
    1  0.010  0.204  0.002  0.215
    2  0.010  0.204  0.002  0.215
tot    0.020  0.408  0.003  0.431
 
band     6 # energy   -0.65800651 # occ.  0.00000000
 
ion      s      p      d    tot
    1  0.053  0.176  0.015  0.245
    2  0.053  0.176  0.015  0.245
tot    0.107  0.353  0.030  0.489
 
band     7 # energy    0.94134326 # occ.  0.00000000
 
ion      s      p      d    tot
    1  0.067  0.194  0.004  0.266
    2  0.067  0.194  0.004  0.266
tot    0.134  0.389  0.009  0.532
 
band     8 # energy    1.00734858 # occ.  0.00000000
 
ion      s      p      d    tot
    1  0.000  0.284  0.014  0.298
    2  0.000  0.284  0.014  0.298
tot    0.000  0.569  0.027  0.596
 
band     9 # energy    2.29016938 # occ.  0.00000000
 
ion      s      p      d    tot
    1  0.002  0.023  0.009  0.034
    2  0.002  0.023  0.009  0.034
tot    0.003  0.046  0.019  0.068
 
band    10 # energy    2.40766192 # occ.  0.00000000
 
ion      s      p      d    tot
    1  0.002  0.039  0.005  0.047
    2  0.002  0.039  0.005  0.047
tot    0.004  0.078  0.011  0.093
 
band    11 # energy    3.67724758 # occ.  0.00000000
 
ion      s      p      d    tot
    1  0.005  0.030  0.007  0.042
    2  0.005  0.030  0.007  0.042
tot    0.010  0.060  0.014  0.084
 
band    12 # energy    4.64572413 # occ.  0.00000000
 
ion      s      p      d    tot
    1  0.003  0.004  0.018  0.025
    2  0.003  0.004  0.018  0.025
tot    0.005  0.009  0.036  0.050
 
band    13 # energy    5.29176414 # occ.  0.00000000
 
ion      s      p      d    tot
    1  0.003  0.020  0.075  0.098
    2  0.003  0.020  0.075  0.098
tot    0.005  0.041  0.150  0.197
 
band    14 # energy    6.48086246 # occ.  0.00000000
 
ion      s      p      d    tot
    1  0.029  0.046  0.045  0.120
    2  0.029  0.046  0.045  0.120
tot    0.058  0.091  0.090  0.239
 
band    15 # energy    7.02982383 # occ.  0.00000000
 
ion      s      p      d    tot
    1  0.000  0.008  0.139  0.147
    2  0.000  0.008  0.139  0.147
tot    0.000  0.015  0.278  0.294
 
band    16 # energy    7.22687395 # occ.  0.00000000
 
ion      s      p      d    tot
    1  0.013  0.082  0.048  0.143
    2  0.013  0.082  0.048  0.143
tot    0.027  0.163  0.096  0.286
 

 k-point     6 :    0.00000000 0.15384615 0.00000000     weight = 0.01183432

band     1 # energy  -16.16348876 # occ.  2.00000000
 
ion      s      p      d    tot
    1  0.268  0.013  0.000  0.282
    2  0.268  0.013  0.000  0.282
tot    0.537  0.026  0.001  0.563
 
band     2 # energy  -10.17899835 # occ.  2.00000000
 
ion      s      p      d    tot
    1  0.305  0.020  0.001  0.326
    2  0.305  0.020  0.001  0.326
tot    0.611  0.039  0.003  0.653
 
band     3 # energy   -5.02623997 # occ.  2.00000000
 
ion      s      p      d    tot
    1  0.017  0.216  0.011  0.244
    2  0.017  0.216  0.011  0.244
tot    0.033  0.432  0.023  0.488
 
band     4 # energy   -3.59941788 # occ.  2.00000000
 
ion      s      p      d    tot
    1  0.000  0.268  0.013  0.281
    2  0.000  0.268  0.013  0.281
tot    0.000  0.536  0.026  0.562
 
band     5 # energy   -3.43587580 # occ.  2.00000000
 
ion      s      p      d    tot
    1  0.010  0.204  0.002  0.216
    2  0.010  0.204  0.002  0.216
tot    0.020  0.409  0.003  0.432
 
band     6 # energy   -0.67576365 # occ.  0.00000000
 
ion      s      p      d    tot
    1  0.053  0.176  0.015  0.244
    2  0.053  0.176  0.015  0.244
tot    0.106  0.352  0.030  0.489
 
band     7 # energy    0.92430981 # occ.  0.00000000
 
ion      s      p      d    tot
    1  0.067  0.197  0.004  0.268
    2  0.067  0.197  0.004  0.268
tot    0.133  0.394  0.009  0.536
 
band     8 # energy    1.03662046 # occ.  0.00000000
 
ion      s      p      d    tot
    1  0.000  0.284  0.014  0.298
    2  0.000  0.284  0.014  0.298
tot    0.000  0.567  0.028  0.595
 
band     9 # energy    2.28767807 # occ.  0.00000000
 
ion      s      p      d    tot
    1  0.002  0.023  0.010  0.034
    2  0.002  0.023  0.010  0.034
tot    0.003  0.046  0.020  0.068
 
band    10 # energy    2.40416550 # occ.  0.00000000
 
ion      s      p      d    tot
    1  0.002  0.038  0.005  0.045
    2  0.002  0.038  0.005  0.045
tot    0.004  0.076  0.010  0.090
 
band    11 # energy    3.67768648 # occ.  0.00000000
 
ion      s      p      d    tot
    1  0.005  0.030  0.007  0.042
    2  0.005  0.030  0.007  0.042
tot    0.011  0.060  0.013  0.084
 
band    12 # energy    4.64338053 # occ.  0.00000000
 
ion      s      p      d    tot
    1  0.003  0.004  0.018  0.025
    2  0.003  0.004  0.018  0.025
tot    0.005  0.009  0.036  0.050
 
band    13 # energy    5.31879507 # occ.  0.00000000
 
ion      s      p      d    tot
    1  0.003  0.020  0.075  0.098
    2  0.003  0.020  0.075  0.098
tot    0.006  0.040  0.150  0.196
 
band    14 # energy    6.48125306 # occ.  0.00000000
 
ion      s      p      d    tot
    1  0.029  0.045  0.045  0.119
    2  0.029  0.045  0.045  0.119
tot    0.058  0.090  0.091  0.238
 
band    15 # energy    7.01951925 # occ.  0.00000000
 
ion      s      p      d    tot
    1  0.000  0.008  0.139  0.147
    2  0.000  0.008  0.139  0.147
tot    0.000  0.016  0.278  0.294
 
band    16 # energy    7.23179004 # occ.  0.00000000
 
ion      s      p      d    tot
    1  0.014  0.082  0.048  0.144
    2  0.014  0.082  0.048  0.144
tot    0.027  0.164  0.097  0.288
 

 k-point     7 :   -0.15384615 0.15384615 0.00000000     weight = 0.01183432

band     1 # energy  -16.16480018 # occ.  2.00000000
 
ion      s      p      d    tot
    1  0.268  0.013  0.000  0.282
    2  0.268  0.013  0.000  0.282
tot    0.537  0.026  0.001  0.564
 
band     2 # energy  -10.17585736 # occ.  2.00000000
 
ion      s      p      d    tot
    1  0.305  0.020  0.001  0.326
    2  0.305  0.020  0.001  0.326
tot    0.610  0.039  0.003  0.652
 
band     3 # energy   -5.00215236 # occ.  2.00000000
 
ion      s      p      d    tot
    1  0.017  0.215  0.011  0.244
    2  0.017  0.215  0.011  0.244
tot    0.034  0.431  0.023  0.487
 
band     4 # energy   -3.62574377 # occ.  2.00000000
 
ion      s      p      d    tot
    1  0.000  0.269  0.013  0.282
    2  0.000  0.269  0.013  0.282
tot    0.000  0.538  0.026  0.564
 
band     5 # energy   -3.43643914 # occ.  2.00000000
 
ion      s      p      d    tot
    1  0.010  0.204  0.002  0.215
    2  0.010  0.204  0.002  0.215
tot    0.020  0.407  0.003  0.431
 
band     6 # energy   -0.69186101 # occ.  0.00000000
 
ion      s      p      d    tot
    1  0.053  0.176  0.015  0.244
    2  0.053  0.176  0.015  0.244
tot    0.106  0.351  0.031  0.488
 
band     7 # energy    0.90830967 # occ.  0.00000000
 
ion      s      p      d    tot
    1  0.066  0.199  0.004  0.270
    2  0.066  0.199  0.004  0.270
tot    0.133  0.398  0.009  0.539
 
band     8 # energy    1.06401704 # occ.  0.00000000
 
ion      s      p      d    tot
    1  0.000  0.283  0.014  0.297
    2  0.000  0.283  0.014  0.297
tot    0.000  0.567  0.028  0.595
 
band     9 # energy    2.28481997 # occ.  0.00000000
 
ion      s      p      d    tot
    1  0.002  0.023  0.010  0.034
    2  0.002  0.023  0.010  0.034
tot    0.003  0.045  0.020  0.068
 
band    10 # energy    2.40095091 # occ.  0.00000000
 
ion      s      p      d    tot
    1  0.002  0.037  0.005  0.044
    2  0.002  0.037  0.005  0.044
tot    0.004  0.074  0.009  0.088
 
band    11 # energy    3.67800795 # occ.  0.00000000
 
ion      s      p      d    tot
    1  0.005  0.030  0.006  0.042
    2  0.005  0.030  0.006  0.042
tot    0.011  0.060  0.013  0.084
 
band    12 # energy    4.64110991 # occ.  0.00000000
 
ion      s      p      d    tot
    1  0.003  0.004  0.018  0.025
    2  0.003  0.004  0.018  0.025
tot    0.005  0.008  0.036  0.050
 
band    13 # energy    5.34570039 # occ.  0.00000000
 
ion      s      p      d    tot
    1  0.003  0.020  0.075  0.098
    2  0.003  0.020  0.075  0.098
tot    0.006  0.040  0.150  0.195
 
band    14 # energy    6.48191758 # occ.  0.00000000
 
ion      s      p      d    tot
    1  0.029  0.044  0.045  0.119
    2  0.029  0.044  0.045  0.119
tot    0.057  0.089  0.091  0.237
 
band    15 # energy    7.00957310 # occ.  0.00000000
 
ion      s      p      d    tot
    1  0.000  0.008  0.139  0.147
    2  0.000  0.008  0.139  0.147
tot    0.000  0.016  0.278  0.293
 
band    16 # energy    7.23560552 # occ.  0.00000000
 
ion      s      p      d    tot
    1  0.014  0.082  0.048  0.145
    2  0.014  0.082  0.048  0.145
tot    0.028  0.165  0.097  0.289
 

 k-point     8 :    0.23076923-0.00000000 0.00000000     weight = 0.01183432

band     1 # energy  -15.77907871 # occ.  2.00000000
 
ion      s      p      d    tot
    1  0.269  0.016  0.001  0.286
    2  0.269  0.016  0.001  0.286
tot    0.539  0.031  0.001  0.571
 
band     2 # energy  -10.31736256 # occ.  2.00000000
 
ion      s      p      d    tot
    1  0.325  0.016  0.002  0.343
    2  0.325  0.016  0.002  0.343
tot    0.649  0.032  0.005  0.686
 
band     3 # energy   -6.04329496 # occ.  2.00000000
 
ion      s      p      d    tot
    1  0.003  0.204  0.008  0.216
    2  0.003  0.204  0.008  0.216
tot    0.007  0.408  0.017  0.432
 
band     4 # energy   -4.03081370 # occ.  2.00000000
 
ion      s      p      d    tot
    1  0.000  0.260  0.012  0.272
    2  0.000  0.260  0.012  0.272
tot    0.000  0.521  0.023  0.544
 
band     5 # energy   -3.41204266 # occ.  2.00000000
 
ion      s      p      d    tot
    1  0.020  0.215  0.001  0.236
    2  0.020  0.215  0.001  0.236
tot    0.040  0.429  0.002  0.471
 
band     6 # energy   -1.18098296 # occ.  0.00000000
 
ion      s      p      d    tot
    1  0.048  0.153  0.016  0.217
    2  0.048  0.153  0.016  0.217
tot    0.097  0.306  0.031  0.434
 
band     7 # energy    1.31604753 # occ.  0.00000000
 
ion      s      p      d    tot
    1  0.021  0.238  0.012  0.271
    2  0.021  0.238  0.012  0.271
tot    0.042  0.475  0.024  0.542
 
band     8 # energy    1.34423208 # occ.  0.00000000
 
ion      s      p      d    tot
    1  0.027  0.225  0.012  0.264
    2  0.027  0.225  0.012  0.264
tot    0.054  0.450  0.024  0.528
 
band     9 # energy    2.59856168 # occ.  0.00000000
 
ion      s      p      d    tot
    1  0.001  0.012  0.014  0.027
    2  0.001  0.012  0.014  0.027
tot    0.003  0.023  0.027  0.053
 
band    10 # energy    2.86364675 # occ.  0.00000000
 
ion      s      p      d    tot
    1  0.001  0.041  0.003  0.044
    2  0.001  0.041  0.003  0.044
tot    0.002  0.081  0.005  0.089
 
band    11 # energy    4.02685912 # occ.  0.00000000
 
ion      s      p      d    tot
    1  0.005  0.049  0.012  0.066
    2  0.005  0.049  0.012  0.066
tot    0.009  0.099  0.023  0.131
 
band    12 # energy    4.89088792 # occ.  0.00000000
 
ion      s      p      d    tot
    1  0.012  0.012  0.026  0.050
    2  0.012  0.012  0.026  0.050
tot    0.024  0.024  0.051  0.099
 
band    13 # energy    5.43964285 # occ.  0.00000000
 
ion      s      p      d    tot
    1  0.001  0.049  0.036  0.086
    2  0.001  0.049  0.036  0.086
tot    0.002  0.098  0.073  0.172
 
band    14 # energy    6.14234546 # occ.  0.00000000
 
ion      s      p      d    tot
    1  0.023  0.029  0.085  0.136
    2  0.023  0.029  0.085  0.136
tot    0.045  0.058  0.169  0.272
 
band    15 # energy    7.46596397 # occ.  0.00000000
 
ion      s      p      d    tot
    1  0.000  0.004  0.143  0.148
    2  0.000  0.004  0.143  0.148
tot    0.000  0.008  0.287  0.295
 
band    16 # energy    7.52681878 # occ.  0.00000000
 
ion      s      p      d    tot
    1  0.014  0.063  0.023  0.100
    2  0.014  0.063  0.023  0.100
tot    0.029  0.125  0.047  0.200
 

 k-point     9 :    0.00000000 0.23076923 0.00000000     weight = 0.01183432

band     1 # energy  -15.78239291 # occ.  2.00000000
 
ion      s      p      d    tot
    1  0.270  0.016  0.001  0.286
    2  0.270  0.016  0.001  0.286
tot    0.539  0.031  0.001  0.572
 
band     2 # energy  -10.30819754 # occ.  2.00000000
 
ion      s      p      d    tot
    1  0.324  0.016  0.002  0.343
    2  0.324  0.016  0.002  0.343
tot    0.649  0.032  0.004  0.686
 
band     3 # energy   -6.02844556 # occ.  2.00000000
 
ion      s      p      d    tot
    1  0.004  0.204  0.008  0.216
    2  0.004  0.204  0.008  0.216
tot    0.007  0.408  0.017  0.431
 
band     4 # energy   -4.05094088 # occ.  2.00000000
 
ion      s      p      d    tot
    1  0.000  0.261  0.012  0.272
    2  0.000  0.261  0.012  0.272
tot    0.000  0.521  0.023  0.545
 
band     5 # energy   -3.40848522 # occ.  2.00000000
 
ion      s      p      d    tot
    1  0.020  0.214  0.001  0.235
    2  0.020  0.214  0.001  0.235
tot    0.039  0.429  0.002  0.471
 
band     6 # energy   -1.19894758 # occ.  0.00000000
 
ion      s      p      d    tot
    1  0.049  0.153  0.016  0.217
    2  0.049  0.153  0.016  0.217
tot    0.097  0.306  0.031  0.435
 
band     7 # energy    1.29473643 # occ.  0.00000000
 
ion      s      p      d    tot
    1  0.036  0.202  0.012  0.250
    2  0.036  0.202  0.012  0.250
tot    0.072  0.404  0.024  0.500
 
band     8 # energy    1.36267426 # occ.  0.00000000
 
ion      s      p      d    tot
    1  0.012  0.262  0.012  0.286
    2  0.012  0.262  0.012  0.286
tot    0.024  0.524  0.024  0.572
 
band     9 # energy    2.59695629 # occ.  0.00000000
 
ion      s      p      d    tot
    1  0.002  0.011  0.014  0.027
    2  0.002  0.011  0.014  0.027
tot    0.003  0.023  0.027  0.053
 
band    10 # energy    2.85849107 # occ.  0.00000000
 
ion      s      p      d    tot
    1  0.001  0.040  0.002  0.044
    2  0.001  0.040  0.002  0.044
tot    0.002  0.080  0.005  0.087
 
band    11 # energy    4.02756069 # occ.  0.00000000
 
ion      s      p      d    tot
    1  0.005  0.049  0.011  0.064
    2  0.005  0.049  0.011  0.064
tot    0.009  0.097  0.022  0.129
 
band    12 # energy    4.89561020 # occ.  0.00000000
 
ion      s      p      d    tot
    1  0.012  0.011  0.025  0.048
    2  0.012  0.011  0.025  0.048
tot    0.024  0.022  0.050  0.096
 
band    13 # energy    5.46050259 # occ.  0.00000000
 
ion      s      p      d    tot
    1  0.001  0.049  0.037  0.087
    2  0.001  0.049  0.037  0.087
tot    0.002  0.099  0.074  0.175
 
band    14 # energy    6.14964321 # occ.  0.00000000
 
ion      s      p      d    tot
    1  0.023  0.029  0.085  0.136
    2  0.023  0.029  0.085  0.136
tot    0.045  0.057  0.169  0.272
 
band    15 # energy    7.46370966 # occ.  0.00000000
 
ion      s      p      d    tot
    1  0.000  0.005  0.142  0.147
    2  0.000  0.005  0.142  0.147
tot    0.001  0.009  0.285  0.295
 
band    16 # energy    7.53260947 # occ.  0.00000000
 
ion      s      p      d    tot
    1  0.014  0.062  0.025  0.101
    2  0.014  0.062  0.025  0.101
tot    0.029  0.124  0.049  0.202
 

 k-point    10 :   -0.23076923 0.23076923 0.00000000     weight = 0.01183432

band     1 # energy  -15.78575440 # occ.  2.00000000
 
ion      s      p      d    tot
    1  0.270  0.016  0.001  0.286
    2  0.270  0.016  0.001  0.286
tot    0.539  0.031  0.001  0.572
 
band     2 # energy  -10.29887634 # occ.  2.00000000
 
ion      s      p      d    tot
    1  0.324  0.016  0.002  0.343
    2  0.324  0.016  0.002  0.343
tot    0.648  0.032  0.004  0.685
 
band     3 # energy   -6.01275411 # occ.  2.00000000
 
ion      s      p      d    tot
    1  0.004  0.203  0.008  0.215
    2  0.004  0.203  0.008  0.215
tot    0.007  0.407  0.016  0.430
 
band     4 # energy   -4.07215089 # occ.  2.00000000
 
ion      s      p      d    tot
    1  0.000  0.261  0.012  0.273
    2  0.000  0.261  0.012  0.273
tot    0.000  0.523  0.023  0.546
 
band     5 # energy   -3.40548320 # occ.  2.00000000
 
ion      s      p      d    tot
    1  0.020  0.214  0.001  0.235
    2  0.020  0.214  0.001  0.235
tot    0.039  0.429  0.002  0.471
 
band     6 # energy   -1.21575506 # occ.  0.00000000
 
ion      s      p      d    tot
    1  0.049  0.153  0.016  0.218
    2  0.049  0.153  0.016  0.218
tot    0.098  0.306  0.031  0.435
 
band     7 # energy    1.28686776 # occ.  0.00000000
 
ion      s      p      d    tot
    1  0.045  0.181  0.012  0.239
    2  0.045  0.181  0.012  0.239
tot    0.091  0.362  0.025  0.477
 
band     8 # energy    1.36738903 # occ.  0.00000000
 
ion      s      p      d    tot
    1  0.002  0.285  0.012  0.299
    2  0.002  0.285  0.012  0.299
tot    0.004  0.570  0.024  0.597
 
band     9 # energy    2.59469922 # occ.  0.00000000
 
ion      s      p      d    tot