<?xml version="1.0" encoding="ISO-8859-1"?>
<modeling>
 <generator>
  <i name="program" type="string">vasp </i>
  <i name="version" type="string">6.4.2  </i>
  <i name="subversion" type="string">20Jul23 (build Nov 14 2023 12:59:38) complex                          parallel </i>
  <i name="platform" type="string">LinuxIFC </i>
  <i name="date" type="string">2023 12 29 </i>
  <i name="time" type="string">15:52:44 </i>
 </generator>
 <incar>
  <i type="string" name="PREC">Accurate</i>
  <i type="string" name="ALGO">Normal</i>
  <i type="logical" name="ADDGRID"> T  </i>
  <i type="int" name="ISPIN">     1</i>
  <i name="AMIX">      0.10000000</i>
  <i name="BMIX">      0.00010000</i>
  <i type="int" name="ICHARG">     2</i>
  <i type="int" name="NELM">   200</i>
  <i type="int" name="NELMDL">   -12</i>
  <i type="int" name="NELMIN">     6</i>
  <i name="EDIFF">      0.00000100</i>
  <i name="ENCUT">    234.78975000</i>
  <i type="int" name="NEDOS">  6001</i>
  <i type="logical" name="LREAL"> F  </i>
  <i type="logical" name="LPLANE"> T  </i>
  <i type="int" name="ISMEAR">     0</i>
  <i name="SIGMA">      0.01000000</i>
  <i type="int" name="NWRITE">     3</i>
  <i type="logical" name="LWAVE"> F  </i>
  <i type="logical" name="LCHARG"> F  </i>
  <i type="logical" name="LVTOT"> F  </i>
  <i type="int" name="LORBIT">    10</i>
  <i type="logical" name="LELF"> F  </i>
  <i type="logical" name="LASPH"> T  </i>
  <i type="logical" name="LEPSILON"> T  </i>
  <i type="int" name="IVDW">     0</i>
 </incar>
 <primitive_cell>
  <structure name="primitive_cell" >
   <crystal>
    <varray name="basis" >
     <v>       3.60689254       0.00000000       0.00000000 </v>
     <v>      -1.80344627       3.12366057       0.00000000 </v>
     <v>       0.00000000       0.00000000      16.00000000 </v>
    </varray>
    <i name="volume">    180.26732792 </i>
    <varray name="rec_basis" >
     <v>       0.27724696       0.16006861       0.00000000 </v>
     <v>       0.00000000       0.32013722       0.00000000 </v>
     <v>       0.00000000       0.00000000       0.06250000 </v>
    </varray>
   </crystal>
   <varray name="positions" >
    <v>       0.66862710       0.33333333       0.45634314 </v>
    <v>       0.33137290       0.66666667       0.54365686 </v>
   </varray>
  </structure>
  <varray name="primitive_index" >
   <v type="int" >        1 </v>
   <v type="int" >        2 </v>
  </varray>
 </primitive_cell>
 <kpoints>
  <generation param="Gamma">
   <v type="int" name="divisions">      13       13        1 </v>
   <v name="usershift">      0.00000000       0.00000000       0.00000000 </v>
   <v name="genvec1">      0.07692308       0.00000000       0.00000000 </v>
   <v name="genvec2">      0.00000000       0.07692308       0.00000000 </v>
   <v name="genvec3">      0.00000000       0.00000000       1.00000000 </v>
   <v name="shift">      0.00000000       0.00000000       0.00000000 </v>
  </generation>
  <varray name="kpointlist" >
   <v>       0.00000000       0.00000000       0.00000000 </v>
   <v>       0.07692308       0.00000000       0.00000000 </v>
   <v>       0.00000000       0.07692308       0.00000000 </v>
   <v>      -0.07692308       0.07692308       0.00000000 </v>
   <v>       0.15384615       0.00000000       0.00000000 </v>
   <v>       0.00000000       0.15384615       0.00000000 </v>
   <v>      -0.15384615       0.15384615       0.00000000 </v>
   <v>       0.23076923      -0.00000000       0.00000000 </v>
   <v>       0.00000000       0.23076923       0.00000000 </v>
   <v>      -0.23076923       0.23076923       0.00000000 </v>
   <v>       0.30769231       0.00000000       0.00000000 </v>
   <v>       0.00000000       0.30769231       0.00000000 </v>
   <v>      -0.30769231       0.30769231       0.00000000 </v>
   <v>       0.38461538       0.00000000       0.00000000 </v>
   <v>       0.00000000       0.38461538       0.00000000 </v>
   <v>      -0.38461538       0.38461538       0.00000000 </v>
   <v>       0.46153846      -0.00000000       0.00000000 </v>
   <v>       0.00000000       0.46153846       0.00000000 </v>
   <v>      -0.46153846       0.46153846       0.00000000 </v>
   <v>       0.07692308       0.07692308       0.00000000 </v>
   <v>      -0.07692308       0.15384615       0.00000000 </v>
   <v>      -0.15384615       0.07692308       0.00000000 </v>
   <v>       0.15384615       0.07692308       0.00000000 </v>
   <v>      -0.07692308       0.23076923       0.00000000 </v>
   <v>      -0.23076923       0.15384615       0.00000000 </v>
   <v>      -0.15384615       0.23076923       0.00000000 </v>
   <v>       0.07692308       0.15384615       0.00000000 </v>
   <v>       0.23076923      -0.07692308       0.00000000 </v>
   <v>       0.23076923       0.07692308       0.00000000 </v>
   <v>      -0.07692308       0.30769231       0.00000000 </v>
   <v>      -0.30769231       0.23076923       0.00000000 </v>
   <v>      -0.23076923       0.30769231       0.00000000 </v>
   <v>       0.07692308       0.23076923       0.00000000 </v>
   <v>       0.30769231      -0.07692308       0.00000000 </v>
   <v>       0.30769231       0.07692308       0.00000000 </v>
   <v>      -0.07692308       0.38461538       0.00000000 </v>
   <v>      -0.38461538       0.30769231       0.00000000 </v>
   <v>      -0.30769231       0.38461538       0.00000000 </v>
   <v>       0.07692308       0.30769231       0.00000000 </v>
   <v>       0.38461538      -0.07692308       0.00000000 </v>
   <v>       0.38461538       0.07692308       0.00000000 </v>
   <v>      -0.07692308       0.46153846       0.00000000 </v>
   <v>      -0.46153846       0.38461538       0.00000000 </v>
   <v>      -0.38461538       0.46153846       0.00000000 </v>
   <v>       0.07692308       0.38461538       0.00000000 </v>
   <v>       0.46153846      -0.07692308       0.00000000 </v>
   <v>       0.46153846       0.07692308       0.00000000 </v>
   <v>      -0.07692308      -0.46153846       0.00000000 </v>
   <v>       0.46153846       0.46153846       0.00000000 </v>
   <v>       0.15384615       0.15384615       0.00000000 </v>
   <v>      -0.15384615       0.30769231       0.00000000 </v>
   <v>      -0.30769231       0.15384615       0.00000000 </v>
   <v>       0.23076923       0.15384615       0.00000000 </v>
   <v>      -0.15384615       0.38461538       0.00000000 </v>
   <v>      -0.38461538       0.23076923       0.00000000 </v>
   <v>      -0.23076923       0.38461538       0.00000000 </v>
   <v>       0.15384615       0.23076923       0.00000000 </v>
   <v>       0.38461538      -0.15384615       0.00000000 </v>
   <v>       0.30769231       0.15384615       0.00000000 </v>
   <v>      -0.15384615       0.46153846       0.00000000 </v>
   <v>      -0.46153846       0.30769231       0.00000000 </v>
   <v>      -0.30769231       0.46153846       0.00000000 </v>
   <v>       0.15384615       0.30769231       0.00000000 </v>
   <v>       0.46153846      -0.15384615       0.00000000 </v>
   <v>       0.38461538       0.15384615       0.00000000 </v>
   <v>      -0.15384615      -0.46153846       0.00000000 </v>
   <v>       0.46153846       0.38461538       0.00000000 </v>
   <v>      -0.38461538      -0.46153846       0.00000000 </v>
   <v>       0.15384615       0.38461538       0.00000000 </v>
   <v>      -0.46153846      -0.15384615       0.00000000 </v>
   <v>       0.23076923       0.23076923       0.00000000 </v>
   <v>      -0.23076923       0.46153846       0.00000000 </v>
   <v>      -0.46153846       0.23076923       0.00000000 </v>
   <v>       0.30769231       0.23076923       0.00000000 </v>
   <v>      -0.23076923      -0.46153846       0.00000000 </v>
   <v>       0.46153846       0.30769231       0.00000000 </v>
   <v>      -0.30769231      -0.46153846       0.00000000 </v>
   <v>       0.23076923       0.30769231       0.00000000 </v>
   <v>      -0.46153846      -0.23076923       0.00000000 </v>
   <v>       0.38461538       0.23076923       0.00000000 </v>
   <v>      -0.23076923      -0.38461538       0.00000000 </v>
   <v>       0.38461538       0.38461538       0.00000000 </v>
   <v>       0.30769231       0.30769231       0.00000000 </v>
   <v>      -0.30769231      -0.38461538       0.00000000 </v>
   <v>       0.38461538       0.30769231       0.00000000 </v>
  </varray>
  <varray name="weights" >
   <v>       0.00591716 </v>
   <v>       0.01183432 </v>
   <v>       0.01183432 </v>
   <v>       0.01183432 </v>
   <v>       0.01183432 </v>
   <v>       0.01183432 </v>
   <v>       0.01183432 </v>
   <v>       0.01183432 </v>
   <v>       0.01183432 </v>
   <v>       0.01183432 </v>
   <v>       0.01183432 </v>
   <v>       0.01183432 </v>
   <v>       0.01183432 </v>
   <v>       0.01183432 </v>
   <v>       0.01183432 </v>
   <v>       0.01183432 </v>
   <v>       0.01183432 </v>
   <v>       0.01183432 </v>
   <v>       0.01183432 </v>
   <v>       0.01183432 </v>
   <v>       0.01183432 </v>
   <v>       0.01183432 </v>
   <v>       0.01183432 </v>
   <v>       0.01183432 </v>
   <v>       0.01183432 </v>
   <v>       0.01183432 </v>
   <v>       0.01183432 </v>
   <v>       0.01183432 </v>
   <v>       0.01183432 </v>
   <v>       0.01183432 </v>
   <v>       0.01183432 </v>
   <v>       0.01183432 </v>
   <v>       0.01183432 </v>
   <v>       0.01183432 </v>
   <v>       0.01183432 </v>
   <v>       0.01183432 </v>
   <v>       0.01183432 </v>
   <v>       0.01183432 </v>
   <v>       0.01183432 </v>
   <v>       0.01183432 </v>
   <v>       0.01183432 </v>
   <v>       0.01183432 </v>
   <v>       0.01183432 </v>
   <v>       0.01183432 </v>
   <v>       0.01183432 </v>
   <v>       0.01183432 </v>
   <v>       0.01183432 </v>
   <v>       0.01183432 </v>
   <v>       0.01183432 </v>
   <v>       0.01183432 </v>
   <v>       0.01183432 </v>
   <v>       0.01183432 </v>
   <v>       0.01183432 </v>
   <v>       0.01183432 </v>
   <v>       0.01183432 </v>
   <v>       0.01183432 </v>
   <v>       0.01183432 </v>
   <v>       0.01183432 </v>
   <v>       0.01183432 </v>
   <v>       0.01183432 </v>
   <v>       0.01183432 </v>
   <v>       0.01183432 </v>
   <v>       0.01183432 </v>
   <v>       0.01183432 </v>
   <v>       0.01183432 </v>
   <v>       0.01183432 </v>
   <v>       0.01183432 </v>
   <v>       0.01183432 </v>
   <v>       0.01183432 </v>
   <v>       0.01183432 </v>
   <v>       0.01183432 </v>
   <v>       0.01183432 </v>
   <v>       0.01183432 </v>
   <v>       0.01183432 </v>
   <v>       0.01183432 </v>
   <v>       0.01183432 </v>
   <v>       0.01183432 </v>
   <v>       0.01183432 </v>
   <v>       0.01183432 </v>
   <v>       0.01183432 </v>
   <v>       0.01183432 </v>
   <v>       0.01183432 </v>
   <v>       0.01183432 </v>
   <v>       0.01183432 </v>
   <v>       0.01183432 </v>
  </varray>
 </kpoints>
 <parameters>
  <separator name="general" >
   <i type="string" name="SYSTEM">unknown system</i>
   <i type="logical" name="LCOMPAT"> F  </i>
  </separator>
  <separator name="electronic" >
   <i type="string" name="PREC">accura</i>
   <i name="ENMAX">    234.78975000</i>
   <i name="ENAUG">    462.75800000</i>
   <i name="EDIFF">      0.00000100</i>
   <i type="int" name="IALGO">    38</i>
   <i type="int" name="IWAVPR">    10</i>
   <i type="int" name="NBANDS">    16</i>
   <i type="int" name="NBANDSLOW">    -1</i>
   <i type="int" name="NBANDSHIGH">    -1</i>
   <i name="NELECT">     10.00000000</i>
   <i type="int" name="TURBO">     0</i>
   <i type="int" name="IRESTART">     0</i>
   <i type="int" name="NREBOOT">     0</i>
   <i type="int" name="NMIN">     0</i>
   <i name="EREF">      0.00000000</i>
   <separator name="electronic smearing" >
    <i type="int" name="ISMEAR">     0</i>
    <i name="SIGMA">      0.01000000</i>
    <i name="KSPACING">      0.50000000</i>
    <i type="logical" name="KGAMMA"> T  </i>
    <i type="logical" name="KBLOWUP"> T  </i>
   </separator>
   <separator name="electronic projectors" >
    <i type="logical" name="LREAL"> F  </i>
    <v name="ROPT">      0.00000000</v>
    <i type="int" name="LMAXPAW">  -100</i>
    <i type="int" name="LMAXMIX">     2</i>
    <i type="logical" name="NLSPLINE"> F  </i>
   </separator>
   <separator name="electronic startup" >
    <i type="int" name="ISTART">     0</i>
    <i type="int" name="ICHARG">     2</i>
    <i type="int" name="INIWAV">     1</i>
   </separator>
   <separator name="electronic spin" >
    <i type="int" name="ISPIN">     1</i>
    <i type="logical" name="LNONCOLLINEAR"> F  </i>
    <v name="MAGMOM">      1.00000000      1.00000000</v>
    <i name="NUPDOWN">     -1.00000000</i>
    <i type="logical" name="LSORBIT"> F  </i>
    <v name="SAXIS">      0.00000000      0.00000000      1.00000000</v>
    <i type="logical" name="LSPIRAL"> F  </i>
    <v name="QSPIRAL">      0.00000000      0.00000000      0.00000000</v>
    <i type="logical" name="LZEROZ"> F  </i>
   </separator>
   <separator name="electronic exchange-correlation" >
    <i type="logical" name="LASPH"> T  </i>
    <i type="logical" name="LMETAGGA"> F  </i>
   </separator>
   <separator name="electronic convergence" >
    <i type="int" name="NELM">   200</i>
    <i type="int" name="NELMDL">   -12</i>
    <i type="int" name="NELMIN">     6</i>
    <i name="ENINI">    234.78975000</i>
    <separator name="electronic convergence detail" >
     <i type="logical" name="LDIAG"> T  </i>
     <i type="logical" name="LSUBROT"> F  </i>
     <i name="WEIMIN">      0.00000000</i>
     <i name="EBREAK">      0.00000002</i>
     <i name="DEPER">      0.30000000</i>
     <i type="int" name="NRMM">     4</i>
     <i name="TIME">      0.40000000</i>
    </separator>
   </separator>
   <separator name="electronic mixer" >
    <i name="AMIX">      0.10000000</i>
    <i name="BMIX">      0.00010000</i>
    <i name="AMIN">      0.10000000</i>
    <i name="AMIX_MAG">      0.40000000</i>
    <i name="BMIX_MAG">      0.00010000</i>
    <separator name="electronic mixer details" >
     <i type="int" name="IMIX">     4</i>
     <i type="logical" name="MIXFIRST"> F  </i>
     <i type="int" name="MAXMIX">   -45</i>
     <i name="WC">    100.00000000</i>
     <i type="int" name="INIMIX">     1</i>
     <i type="int" name="MIXPRE">     1</i>
     <i type="int" name="MREMOVE">     5</i>
    </separator>
   </separator>
   <separator name="electronic dipolcorrection" >
    <i type="logical" name="LDIPOL"> F  </i>
    <i type="logical" name="LMONO"> F  </i>
    <i type="int" name="IDIPOL">     0</i>
    <i name="EPSILON">      1.00000000</i>
    <v name="DIPOL">   -100.00000000   -100.00000000   -100.00000000</v>
    <i name="EFIELD">      0.00000000</i>
   </separator>
  </separator>
  <separator name="grids" >
   <i type="int" name="NGX">    18</i>
   <i type="int" name="NGY">    18</i>
   <i type="int" name="NGZ">    80</i>
   <i type="int" name="NGXF">    36</i>
   <i type="int" name="NGYF">    36</i>
   <i type="int" name="NGZF">   160</i>
   <i type="logical" name="ADDGRID"> T  </i>
  </separator>
  <separator name="ionic" >
   <i type="int" name="NSW">     0</i>
   <i type="int" name="IBRION">    -1</i>
   <i type="int" name="MDALGO">     0</i>
   <i type="int" name="ISIF">     2</i>
   <i name="PSTRESS">      0.00000000</i>
   <i name="EDIFFG">      0.00001000</i>
   <i type="int" name="NFREE">     0</i>
   <i name="POTIM">      0.50000000</i>
   <i name="SMASS">     -3.00000000</i>
   <i name="SCALEE">      1.00000000</i>
  </separator>
  <separator name="ionic md" >
   <i name="TEBEG">      0.00010000</i>
   <i name="TEEND">      0.00010000</i>
   <i type="int" name="NBLOCK">     1</i>
   <i type="int" name="KBLOCK">     1</i>
   <i type="int" name="NPACO">   256</i>
   <i name="APACO">     10.00000000</i>
  </separator>
  <separator name="symmetry" >
   <i type="int" name="ISYM">     2</i>
   <i name="SYMPREC">      0.00001000</i>
  </separator>
  <separator name="dos" >
   <i type="int" name="LORBIT">    10</i>
   <v name="RWIGS">     -1.00000000</v>
   <i type="int" name="NEDOS">  6001</i>
   <i name="EMIN">     10.00000000</i>
   <i name="EMAX">    -10.00000000</i>
   <i name="EFERMI">      0.00000000</i>
  </separator>
  <separator name="writing" >
   <i type="int" name="NWRITE">     3</i>
   <i type="logical" name="LWAVE"> F  </i>
   <i type="logical" name="LDOWNSAMPLE"> F  </i>
   <i type="logical" name="LCHARG"> F  </i>
   <i type="logical" name="LPARD"> F  </i>
   <i type="logical" name="LVTOT"> F  </i>
   <i type="logical" name="LVHAR"> F  </i>
   <i type="logical" name="LELF"> F  </i>
   <i type="logical" name="LOPTICS"> F  </i>
   <v name="STM">      0.00000000      0.00000000      0.00000000      0.00000000      0.00000000      0.00000000      0.00000000</v>
  </separator>
  <separator name="performance" >
   <i type="int" name="NPAR">    16</i>
   <i type="int" name="NSIM">     4</i>
   <i type="int" name="NBLK">    -1</i>
   <i type="logical" name="LPLANE"> T  </i>
   <i type="logical" name="LSCALAPACK"> T  </i>
   <i type="logical" name="LSCAAWARE"> F  </i>
   <i type="logical" name="LSCALU"> F  </i>
   <i type="logical" name="LASYNC"> F  </i>
   <i type="logical" name="LORBITALREAL"> F  </i>
  </separator>
  <separator name="miscellaneous" >
   <i type="int" name="IDIOT">     3</i>
   <i type="int" name="PHON_NSTRUCT">    -1</i>
   <i type="logical" name="LMUSIC"> F  </i>
   <v name="POMASS">     74.92200000</v>
   <v name="DARWINR">      0.00000000</v>
   <v name="DARWINV">      1.00000000</v>
   <i type="logical" name="LCORR"> T  </i>
  </separator>
  <i type="logical" name="GGA_COMPAT"> T  </i>
  <i type="logical" name="LBERRY"> F  </i>
  <i type="int" name="ICORELEVEL">     0</i>
  <i type="logical" name="LDAU"> F  </i>
  <i type="int" name="I_CONSTRAINED_M">     0</i>
  <separator name="electronic exchange-correlation" >
   <i type="string" name="GGA">--</i>
   <i type="int" name="VOSKOWN">     0</i>
   <i type="logical" name="LHFCALC"> F  </i>
   <i type="string" name="PRECFOCK"></i>
   <i type="logical" name="LSYMGRAD"> F  </i>
   <i type="logical" name="LHFONE"> F  </i>
   <i type="logical" name="LRHFCALC"> F  </i>
   <i type="logical" name="LTHOMAS"> F  </i>
   <i type="logical" name="LMODELHF"> F  </i>
   <i type="logical" name="LFOCKACE"> F  </i>
   <i name="ENCUT4O">     -1.00000000</i>
   <i type="int" name="EXXOEP">     0</i>
   <i type="int" name="FOURORBIT">     0</i>
   <i name="AEXX">      0.00000000</i>
   <i name="HFALPHA">      0.00000000</i>
   <i name="MCALPHA">      0.00000000</i>
   <i name="ALDAX">      1.00000000</i>
   <i name="AGGAX">      1.00000000</i>
   <i name="ALDAC">      1.00000000</i>
   <i name="AGGAC">      1.00000000</i>
   <i type="int" name="NKREDX">     1</i>
   <i type="int" name="NKREDY">     1</i>
   <i type="int" name="NKREDZ">     1</i>
   <i type="logical" name="SHIFTRED"> F  </i>
   <i type="logical" name="ODDONLY"> F  </i>
   <i type="logical" name="EVENONLY"> F  </i>
   <i type="int" name="LMAXFOCK">     0</i>
   <i type="int" name="NMAXFOCKAE">     0</i>
   <i type="logical" name="LFOCKAEDFT"> F  </i>
   <i name="HFSCREEN">      0.00000000</i>
   <i name="HFSCREENC">      0.00000000</i>
   <i type="int" name="NBANDSGWLOW">     0</i>
  </separator>
  <separator name="vdW DFT" >
   <i type="logical" name="LUSE_VDW"> F  </i>
   <i type="int" name="IVDW_NL">     1</i>
   <i type="logical" name="LSPIN_VDW"> F  </i>
   <i name="Zab_VDW">     -0.84910000</i>
   <i name="PARAM1">      0.12340000</i>
   <i name="PARAM2">      1.00000000</i>
   <i name="PARAM3">      0.00000000</i>
  </separator>
  <separator name="model GW" >
   <i type="int" name="MODEL_GW">     0</i>
   <i name="MODEL_EPS0">     54.08019838</i>
   <i name="MODEL_ALPHA">      1.00000000</i>
  </separator>
  <separator name="linear response parameters" >
   <i type="logical" name="LEPSILON"> T  </i>
   <i type="logical" name="LRPA"> F  </i>
   <i type="logical" name="LNABLA"> F  </i>
   <i type="logical" name="LVEL"> F  </i>
   <i name="CSHIFT">      0.10000000</i>
   <i name="OMEGAMAX">     -1.00000000</i>
   <i name="DEG_THRESHOLD">      0.00200000</i>
   <i name="RTIME">     -0.10000000</i>
   <i name="WPLASMAI">      0.00000000</i>
   <v name="DFIELD">      0.00000000      0.00000000      0.00000000</v>
   <v name="WPLASMA">      0.00000000      0.00000000      0.00000000      0.00000000      0.00000000      0.00000000      0.00000000      0.00000000      0.00000000</v>
  </separator>
  <separator name="orbital magnetization" >
   <i type="logical" name="NUCIND"> F  </i>
   <v name="MAGPOS">      0.00000000      0.00000000      0.00000000</v>
   <i type="logical" name="LNICSALL"> T  </i>
   <i type="logical" name="ORBITALMAG"> F  </i>
   <i type="logical" name="LMAGBLOCH"> F  </i>
   <i type="logical" name="LCHIMAG"> F  </i>
   <i type="logical" name="LGAUGE"> T  </i>
   <i type="int" name="MAGATOM">     0</i>
   <v name="MAGDIPOL">      0.00000000      0.00000000      0.00000000</v>
   <v name="AVECCONST">      0.00000000      0.00000000      0.00000000</v>
  </separator>
  <separator name="response functions" >
   <i type="logical" name="LALL_IN_ONE"> F  </i>
   <i type="int" name="IALL_IN_ONE">    -1</i>
   <i type="int" name="NBANDS_WAVE">    -1</i>
   <i type="logical" name="LFINITE_TEMPERATURE"> F  </i>
   <i type="logical" name="LADDER"> F  </i>
   <i type="logical" name="LRPAFORCE"> F  </i>
   <i type="logical" name="LFXC"> F  </i>
   <i type="logical" name="LHARTREE"> T  </i>
   <i type="int" name="IBSE">     0</i>
   <v type="int" name="KPOINT">    -1     0     0     0</v>
   <i type="logical" name="LTCTC"> F  </i>
   <i type="logical" name="LTCTE"> F  </i>
   <i type="logical" name="LTETE"> F  </i>
   <i type="logical" name="LTRIPLET"> F  </i>
   <i type="logical" name="LFXCEPS"> F  </i>
   <i type="logical" name="LFXHEG"> F  </i>
   <i type="int" name="NATURALO">     2</i>
   <i type="logical" name="LHOLEGF"> F  </i>
   <i type="logical" name="L2ORDER"> F  </i>
   <i type="logical" name="LDMP1"> F  </i>
   <i type="logical" name="LMP2LT"> F  </i>
   <i type="logical" name="LSMP2LT"> F  </i>
   <i type="logical" name="LGWLF"> F  </i>
   <i name="ENCUTGW">     -1.60000002</i>
   <i name="ENCUTGWSOFT">     -1.60000002</i>
   <i name="ENCUTLF">     -1.00000000</i>
   <i type="logical" name="LESF_SPLINES"> F  </i>
   <i type="int" name="LMAXMP2">    -1</i>
   <i name="SCISSOR">      0.00000000</i>
   <i type="int" name="NOMEGA">     0</i>
   <i type="int" name="NOMEGAR">     0</i>
   <i type="int" name="NBANDSGW">    -1</i>
   <i type="int" name="NBANDSO">    -1</i>
   <i type="int" name="NBANDSV">    -1</i>
   <i type="int" name="NELMGW">     1</i>
   <i type="int" name="NELMHF">     1</i>
   <i type="int" name="DIM">     3</i>
   <i type="int" name="IESPILON">     4</i>
   <i type="int" name="ANTIRES">     0</i>
   <i name="OMEGAMAX">    -30.00000000</i>
   <i name="OMEGAMIN">    -30.00000000</i>
   <i name="OMEGATL">   -200.00000000</i>
   <i type="int" name="OMEGAGRID">     0</i>
   <i name="CSHIFT">     -0.10000000</i>
   <i type="logical" name="LSELFENERGY"> F  </i>
   <i type="logical" name="LSPECTRAL"> F  </i>
   <i type="logical" name="LSPECTRALGW"> F  </i>
   <i type="logical" name="LSINGLES"> F  </i>
   <i type="logical" name="LFERMIGW"> F  </i>
   <i type="logical" name="ODDONLYGW"> F  </i>
   <i type="logical" name="EVENONLYGW"> F  </i>
   <i type="int" name="NKREDLFX">     1</i>
   <i type="int" name="NKREDLFY">     1</i>
   <i type="int" name="NKREDLFZ">     1</i>
   <i type="int" name="MAXMEM">  2800</i>
   <i type="int" name="TELESCOPE">     0</i>
   <i type="int" name="NTAUPAR">    -1</i>
   <i type="int" name="NOMEGAPAR">    -1</i>
   <i name="DAMP_NEWTON">      0.80000001</i>
   <i name="LAMBDA">      1.00000000</i>
  </separator>
  <separator name="External order field" >
   <i name="OFIELD_KAPPA">      0.00000000</i>
   <v name="OFIELD_K">      0.00000000      0.00000000      0.00000000</v>
   <i name="OFIELD_Q6_NEAR">      0.00000000</i>
   <i name="OFIELD_Q6_FAR">      0.00000000</i>
   <i name="OFIELD_A">      0.00000000</i>
  </separator>
  <separator name="optional k-points parameters" >
   <i type="int" name="KPOINTS_OPT_MODE">     1</i>
   <i type="logical" name="LKPOINTS_OPT"> F  </i>
  </separator>
 </parameters>
 <atominfo>
  <atoms>       2 </atoms>
  <types>       1 </types>
  <array name="atoms" >
   <dimension dim="1">ion</dimension>
   <field type="string">element</field>
   <field type="int">atomtype</field>
   <set>
    <rc><c>As</c><c>   1</c></rc>
    <rc><c>As</c><c>   1</c></rc>
   </set>
  </array>
  <array name="atomtypes" >
   <dimension dim="1">type</dimension>
   <field type="int">atomspertype</field>
   <field type="string">element</field>
   <field>mass</field>
   <field>valence</field>
   <field type="string">pseudopotential</field>
   <set>
    <rc><c>   2</c><c>As</c><c>     74.92200000</c><c>      5.00000000</c><c>  PAW_PBE As_GW 20Mar2012               </c></rc>
   </set>
  </array>
 </atominfo>
 <structure name="initialpos" >
  <crystal>
   <varray name="basis" >
    <v>       3.60689254       0.00000000       0.00000000 </v>
    <v>      -1.80344627       3.12366057       0.00000000 </v>
    <v>       0.00000000       0.00000000      16.00000000 </v>
   </varray>
   <i name="volume">    180.26732792 </i>
   <varray name="rec_basis" >
    <v>       0.27724696       0.16006861       0.00000000 </v>
    <v>       0.00000000       0.32013722       0.00000000 </v>
    <v>       0.00000000       0.00000000       0.06250000 </v>
   </varray>
  </crystal>
  <varray name="positions" >
   <v>       0.66862710       0.33333333       0.45634314 </v>
   <v>       0.33137290       0.66666667       0.54365686 </v>
  </varray>
 </structure>
 <calculation>
  <scstep>
   <time name="dav">    0.35    0.35</time>
   <time name="total">    0.52    0.63</time>
   <energy>
    <i name="alphaZ">      5.26383816 </i>
    <i name="ewald">    378.22288003 </i>
    <i name="hartreedc">   -664.28083108 </i>
    <i name="XCdc">    -23.94410290 </i>
    <i name="pawpsdc">    294.12882363 </i>
    <i name="pawaedc">   -251.25503797 </i>
    <i name="eentropy">     -0.00021422 </i>
    <i name="bandstr">    -55.56646773 </i>
    <i name="atom">    340.36393574 </i>
    <i name="e_fr_energy">     22.93282367 </i>
    <i name="e_wo_entrp">     22.93303789 </i>
    <i name="e_0_energy">     22.93293078 </i>
   </energy>
  </scstep>
  <scstep>
   <time name="dav">    0.52    0.52</time>
   <time name="total">    0.52    0.52</time>
   <energy>
    <i name="e_fr_energy">     -8.52575047 </i>
    <i name="e_wo_entrp">     -8.52575047 </i>
    <i name="e_0_energy">     -8.52575047 </i>
   </energy>
  </scstep>
  <scstep>
   <time name="dav">    0.42    0.42</time>
   <time name="total">    0.42    0.42</time>
   <energy>
    <i name="e_fr_energy">     -9.37812534 </i>
    <i name="e_wo_entrp">     -9.37812534 </i>
    <i name="e_0_energy">     -9.37812534 </i>
   </energy>
  </scstep>
  <scstep>
   <time name="dav">    0.70    0.70</time>
   <time name="total">    0.70    0.70</time>
   <energy>
    <i name="e_fr_energy">     -9.40151838 </i>
    <i name="e_wo_entrp">     -9.40151838 </i>
    <i name="e_0_energy">     -9.40151838 </i>
   </energy>
  </scstep>
  <scstep>
   <time name="dav">    0.45    0.45</time>
   <time name="total">    0.45    0.45</time>
   <energy>
    <i name="e_fr_energy">     -9.40157010 </i>
    <i name="e_wo_entrp">     -9.40157010 </i>
    <i name="e_0_energy">     -9.40157010 </i>
   </energy>
  </scstep>
  <scstep>
   <time name="dav">    0.72    0.72</time>
   <time name="total">    0.72    0.72</time>
   <energy>
    <i name="e_fr_energy">     -9.40157089 </i>
    <i name="e_wo_entrp">     -9.40157089 </i>
    <i name="e_0_energy">     -9.40157089 </i>
   </energy>
  </scstep>
  <scstep>
   <time name="dav">    0.54    0.54</time>
   <time name="total">    0.54    0.54</time>
   <energy>
    <i name="e_fr_energy">     -9.40157089 </i>
    <i name="e_wo_entrp">     -9.40157089 </i>
    <i name="e_0_energy">     -9.40157089 </i>
   </energy>
  </scstep>
  <scstep>
   <time name="dav">    0.60    0.60</time>
   <time name="total">    0.60    0.60</time>
   <energy>
    <i name="e_fr_energy">     -9.40157089 </i>
    <i name="e_wo_entrp">     -9.40157089 </i>
    <i name="e_0_energy">     -9.40157089 </i>
   </energy>
  </scstep>
  <scstep>
   <time name="dav">    0.37    0.37</time>
   <time name="total">    0.37    0.37</time>
   <energy>
    <i name="e_fr_energy">     -9.40157089 </i>
    <i name="e_wo_entrp">     -9.40157089 </i>
    <i name="e_0_energy">     -9.40157089 </i>
   </energy>
  </scstep>
  <scstep>
   <time name="dav">    0.31    0.31</time>
   <time name="total">    0.31    0.31</time>
   <energy>
    <i name="e_fr_energy">     -9.40157089 </i>
    <i name="e_wo_entrp">     -9.40157089 </i>
    <i name="e_0_energy">     -9.40157089 </i>
   </energy>
  </scstep>
  <scstep>
   <time name="dav">    0.25    0.25</time>
   <time name="total">    0.25    0.25</time>
   <energy>
    <i name="e_fr_energy">     -9.40157089 </i>
    <i name="e_wo_entrp">     -9.40157089 </i>
    <i name="e_0_energy">     -9.40157089 </i>
   </energy>
  </scstep>
  <scstep>
   <time name="dav">    0.27    0.27</time>
   <time name="total">    0.31    0.31</time>
   <energy>
    <i name="e_fr_energy">     -9.40157089 </i>
    <i name="e_wo_entrp">     -9.40157089 </i>
    <i name="e_0_energy">     -9.40157089 </i>
   </energy>
  </scstep>
  <scstep>
   <time name="dav">    0.49    0.49</time>
   <time name="total">    0.70    0.70</time>
   <energy>
    <i name="e_fr_energy">     -9.38693906 </i>
    <i name="e_wo_entrp">     -9.38693906 </i>
    <i name="e_0_energy">     -9.38693906 </i>
   </energy>
  </scstep>
  <scstep>
   <time name="dav">    0.54    0.54</time>
   <time name="total">    0.74    0.74</time>
   <energy>
    <i name="e_fr_energy">     -9.34453700 </i>
    <i name="e_wo_entrp">     -9.34453700 </i>
    <i name="e_0_energy">     -9.34453700 </i>
   </energy>
  </scstep>
  <scstep>
   <time name="dav">    0.57    0.57</time>
   <time name="total">    0.77    0.77</time>
   <energy>
    <i name="e_fr_energy">     -9.34078582 </i>
    <i name="e_wo_entrp">     -9.34078582 </i>
    <i name="e_0_energy">     -9.34078582 </i>
   </energy>
  </scstep>
  <scstep>
   <time name="dav">    0.46    0.46</time>
   <time name="total">    0.66    0.66</time>
   <energy>
    <i name="e_fr_energy">     -9.34090730 </i>
    <i name="e_wo_entrp">     -9.34090730 </i>
    <i name="e_0_energy">     -9.34090730 </i>
   </energy>
  </scstep>
  <scstep>
   <time name="dav">    0.57    0.57</time>
   <time name="total">    0.77    0.77</time>
   <energy>
    <i name="e_fr_energy">     -9.34080729 </i>
    <i name="e_wo_entrp">     -9.34080729 </i>
    <i name="e_0_energy">     -9.34080729 </i>
   </energy>
  </scstep>
  <scstep>
   <time name="dav">    0.41    0.41</time>
   <time name="total">    0.62    0.62</time>
   <energy>
    <i name="e_fr_energy">     -9.34081441 </i>
    <i name="e_wo_entrp">     -9.34081441 </i>
    <i name="e_0_energy">     -9.34081441 </i>
   </energy>
  </scstep>
  <scstep>
   <time name="dav">    0.54    0.54</time>
   <time name="total">    0.70    0.70</time>
   <energy>
    <i name="alphaZ">      5.26383816 </i>
    <i name="ewald">    378.22288003 </i>
    <i name="hartreedc">   -670.07792419 </i>
    <i name="XCdc">    -23.49288026 </i>
    <i name="pawpsdc">    332.34170822 </i>
    <i name="pawaedc">   -289.61414606 </i>
    <i name="eentropy">     -0.00000000 </i>
    <i name="bandstr">    -82.34822580 </i>
    <i name="atom">    340.36393574 </i>
    <i name="e_fr_energy">     -9.34081416 </i>
    <i name="e_wo_entrp">     -9.34081416 </i>
    <i name="e_0_energy">     -9.34081416 </i>
   </energy>
  </scstep>
  <structure>
   <crystal>
    <varray name="basis" >
     <v>       3.60689254       0.00000000       0.00000000 </v>
     <v>      -1.80344627       3.12366057       0.00000000 </v>
     <v>       0.00000000       0.00000000      16.00000000 </v>
    </varray>
    <i name="volume">    180.26732792 </i>
    <varray name="rec_basis" >
     <v>       0.27724696       0.16006861       0.00000000 </v>
     <v>       0.00000000       0.32013722       0.00000000 </v>
     <v>       0.00000000       0.00000000       0.06250000 </v>
    </varray>
   </crystal>
   <varray name="positions" >
    <v>       0.66862710       0.33333333       0.45634314 </v>
    <v>       0.33137290       0.66666667       0.54365686 </v>
   </varray>
  </structure>
  <varray name="forces" >
   <v>      -0.10862260      -0.00117003       0.00018721 </v>
   <v>       0.10862260       0.00117003      -0.00018721 </v>
  </varray>
  <varray name="stress" >
   <v>      -0.30539841       0.40540711       1.34584326 </v>
   <v>       0.40540711      -0.31209600       0.01445943 </v>
   <v>       1.34584467       0.01445941      -0.39035625 </v>
  </varray>
  <energy>
   <i name="e_fr_energy">     -9.34081416 </i>
   <i name="e_wo_entrp">     -9.34081416 </i>
   <i name="e_0_energy">     -9.34081416 </i>
  </energy>
  <scstep>
   <time name="total">    0.49    0.49</time>
   <energy>
    <i name="e_fr_energy">    -43.89410822 </i>
    <i name="e_wo_entrp">    -43.89410822 </i>
    <i name="e_0_energy">    -43.89410822 </i>
   </energy>
  </scstep>
  <scstep>
   <time name="total">    0.46    0.57</time>
   <energy>
    <i name="e_fr_energy">    -40.50752023 </i>
    <i name="e_wo_entrp">    -40.50752023 </i>
    <i name="e_0_energy">    -40.50752023 </i>
   </energy>
  </scstep>
  <scstep>
   <time name="total">    0.48    0.59</time>
   <energy>
    <i name="e_fr_energy">    -40.66941512 </i>
    <i name="e_wo_entrp">    -40.66941512 </i>
    <i name="e_0_energy">    -40.66941512 </i>
   </energy>
  </scstep>
  <scstep>
   <time name="total">    0.41    0.52</time>
   <energy>
    <i name="e_fr_energy">    -40.68644464 </i>
    <i name="e_wo_entrp">    -40.68644464 </i>
    <i name="e_0_energy">    -40.68644464 </i>
   </energy>
  </scstep>
  <scstep>
   <time name="total">    0.41    0.52</time>
   <energy>
    <i name="e_fr_energy">    -40.68733583 </i>
    <i name="e_wo_entrp">    -40.68733583 </i>
    <i name="e_0_energy">    -40.68733583 </i>
   </energy>
  </scstep>
  <scstep>
   <time name="total">    0.41    0.52</time>
   <energy>
    <i name="e_fr_energy">    -40.68744827 </i>
    <i name="e_wo_entrp">    -40.68744827 </i>
    <i name="e_0_energy">    -40.68744827 </i>
   </energy>
  </scstep>
  <scstep>
   <time name="total">    0.41    0.52</time>
   <energy>
    <i name="e_fr_energy">    -40.68745675 </i>
    <i name="e_wo_entrp">    -40.68745675 </i>
    <i name="e_0_energy">    -40.68745675 </i>
   </energy>
  </scstep>
  <scstep>
   <time name="total">    0.41    0.56</time>
   <energy>
    <i name="e_fr_energy">    -40.68745762 </i>
    <i name="e_wo_entrp">    -40.68745762 </i>
    <i name="e_0_energy">    -40.68745762 </i>
   </energy>
  </scstep>
  <scstep>
   <time name="total">    0.49    0.49</time>
   <energy>
    <i name="e_fr_energy">    -45.32141772 </i>
    <i name="e_wo_entrp">    -45.32141772 </i>
    <i name="e_0_energy">    -45.32141772 </i>
   </energy>
  </scstep>
  <scstep>
   <time name="total">    0.47    0.57</time>
   <energy>
    <i name="e_fr_energy">    -40.49526694 </i>
    <i name="e_wo_entrp">    -40.49526694 </i>
    <i name="e_0_energy">    -40.49526694 </i>
   </energy>
  </scstep>
  <scstep>
   <time name="total">    0.48    0.59</time>
   <energy>
    <i name="e_fr_energy">    -40.66959797 </i>
    <i name="e_wo_entrp">    -40.66959797 </i>
    <i name="e_0_energy">    -40.66959797 </i>
   </energy>
  </scstep>
  <scstep>
   <time name="total">    0.41    0.52</time>
   <energy>
    <i name="e_fr_energy">    -40.68662724 </i>
    <i name="e_wo_entrp">    -40.68662724 </i>
    <i name="e_0_energy">    -40.68662724 </i>
   </energy>
  </scstep>
  <scstep>
   <time name="total">    0.41    0.50</time>
   <energy>
    <i name="e_fr_energy">    -40.68750762 </i>
    <i name="e_wo_entrp">    -40.68750762 </i>
    <i name="e_0_energy">    -40.68750762 </i>
   </energy>
  </scstep>
  <scstep>
   <time name="total">    0.41    0.50</time>
   <energy>
    <i name="e_fr_energy">    -40.68761140 </i>
    <i name="e_wo_entrp">    -40.68761140 </i>
    <i name="e_0_energy">    -40.68761140 </i>
   </energy>
  </scstep>
  <scstep>
   <time name="total">    0.41    0.50</time>
   <energy>
    <i name="e_fr_energy">    -40.68761940 </i>
    <i name="e_wo_entrp">    -40.68761940 </i>
    <i name="e_0_energy">    -40.68761940 </i>
   </energy>
  </scstep>
  <scstep>
   <time name="total">    0.41    0.50</time>
   <energy>
    <i name="e_fr_energy">    -40.68762018 </i>
    <i name="e_wo_entrp">    -40.68762018 </i>
    <i name="e_0_energy">    -40.68762018 </i>
   </energy>
  </scstep>
  <scstep>
   <time name="total">    0.48    0.48</time>
   <energy>
    <i name="e_fr_energy">    -35.51766906 </i>
    <i name="e_wo_entrp">    -35.51766906 </i>
    <i name="e_0_energy">    -35.51766906 </i>
   </energy>
  </scstep>
  <scstep>
   <time name="total">    0.48    0.57</time>
   <energy>
    <i name="e_fr_energy">    -40.53320860 </i>
    <i name="e_wo_entrp">    -40.53320860 </i>
    <i name="e_0_energy">    -40.53320860 </i>
   </energy>
  </scstep>
  <scstep>
   <time name="total">    0.48    0.57</time>
   <energy>
    <i name="e_fr_energy">    -40.62680907 </i>
    <i name="e_wo_entrp">    -40.62680907 </i>
    <i name="e_0_energy">    -40.62680907 </i>
   </energy>
  </scstep>
  <scstep>
   <time name="total">    0.41    0.50</time>
   <energy>
    <i name="e_fr_energy">    -40.63811829 </i>
    <i name="e_wo_entrp">    -40.63811829 </i>
    <i name="e_0_energy">    -40.63811829 </i>
   </energy>
  </scstep>
  <scstep>
   <time name="total">    0.41    0.50</time>
   <energy>
    <i name="e_fr_energy">    -40.63911180 </i>
    <i name="e_wo_entrp">    -40.63911180 </i>
    <i name="e_0_energy">    -40.63911180 </i>
   </energy>
  </scstep>
  <scstep>
   <time name="total">    0.41    0.50</time>
   <energy>
    <i name="e_fr_energy">    -40.63921408 </i>
    <i name="e_wo_entrp">    -40.63921408 </i>
    <i name="e_0_energy">    -40.63921408 </i>
   </energy>
  </scstep>
  <scstep>
   <time name="total">    0.41    0.50</time>
   <energy>
    <i name="e_fr_energy">    -40.63922218 </i>
    <i name="e_wo_entrp">    -40.63922218 </i>
    <i name="e_0_energy">    -40.63922218 </i>
   </energy>
  </scstep>
  <scstep>
   <time name="total">    0.41    0.50</time>
   <energy>
    <i name="e_fr_energy">    -40.63922285 </i>
    <i name="e_wo_entrp">    -40.63922285 </i>
    <i name="e_0_energy">    -40.63922285 </i>
   </energy>
  </scstep>
  <scstep>
   <time name="total">    0.84    0.84</time>
   <energy>
    <i name="e_fr_energy">     -1.96613513 </i>
    <i name="e_wo_entrp">     -1.96613513 </i>
    <i name="e_0_energy">     -1.96613513 </i>
   </energy>
  </scstep>
  <scstep>
   <time name="total">    0.81    0.81</time>
   <energy>
    <i name="e_fr_energy">     -2.02514781 </i>
    <i name="e_wo_entrp">     -2.02514781 </i>
    <i name="e_0_energy">     -2.02514781 </i>
   </energy>
  </scstep>
  <scstep>
   <time name="total">    0.81    0.81</time>
   <energy>
    <i name="e_fr_energy">     -2.02620153 </i>
    <i name="e_wo_entrp">     -2.02620153 </i>
    <i name="e_0_energy">     -2.02620153 </i>
   </energy>
  </scstep>
  <scstep>
   <time name="total">    0.82    0.82</time>
   <energy>
    <i name="e_fr_energy">     -2.02624170 </i>
    <i name="e_wo_entrp">     -2.02624170 </i>
    <i name="e_0_energy">     -2.02624170 </i>
   </energy>
  </scstep>
  <scstep>
   <time name="total">    0.82    0.82</time>
   <energy>
    <i name="e_fr_energy">     -2.02624282 </i>
    <i name="e_wo_entrp">     -2.02624282 </i>
    <i name="e_0_energy">     -2.02624282 </i>
   </energy>
  </scstep>
  <scstep>
   <time name="total">    0.83    0.83</time>
   <energy>
    <i name="e_fr_energy">     -2.02624291 </i>
    <i name="e_wo_entrp">     -2.02624291 </i>
    <i name="e_0_energy">     -2.02624291 </i>
   </energy>
  </scstep>
  <scstep>
   <time name="total">    0.84    0.84</time>
   <energy>
    <i name="e_fr_energy">     -1.96730921 </i>
    <i name="e_wo_entrp">     -1.96730921 </i>
    <i name="e_0_energy">     -1.96730921 </i>
   </energy>
  </scstep>
  <scstep>
   <time name="total">    0.82    0.82</time>
   <energy>
    <i name="e_fr_energy">     -2.02414415 </i>
    <i name="e_wo_entrp">     -2.02414415 </i>
    <i name="e_0_energy">     -2.02414415 </i>
   </energy>
  </scstep>
  <scstep>
   <time name="total">    0.82    0.82</time>
   <energy>
    <i name="e_fr_energy">     -2.02521706 </i>
    <i name="e_wo_entrp">     -2.02521706 </i>
    <i name="e_0_energy">     -2.02521706 </i>
   </energy>
  </scstep>
  <scstep>
   <time name="total">    0.83    0.83</time>
   <energy>
    <i name="e_fr_energy">     -2.02525804 </i>
    <i name="e_wo_entrp">     -2.02525804 </i>
    <i name="e_0_energy">     -2.02525804 </i>
   </energy>
  </scstep>
  <scstep>
   <time name="total">    0.83    0.83</time>
   <energy>
    <i name="e_fr_energy">     -2.02525920 </i>
    <i name="e_wo_entrp">     -2.02525920 </i>
    <i name="e_0_energy">     -2.02525920 </i>
   </energy>
  </scstep>
  <scstep>
   <time name="total">    0.82    0.83</time>
   <energy>
    <i name="e_fr_energy">     -2.02525928 </i>
    <i name="e_wo_entrp">     -2.02525928 </i>
    <i name="e_0_energy">     -2.02525928 </i>
   </energy>
  </scstep>
  <scstep>
   <time name="total">    0.83    0.84</time>
   <energy>
    <i name="e_fr_energy">     -0.76672386 </i>
    <i name="e_wo_entrp">     -0.76672386 </i>
    <i name="e_0_energy">     -0.76672386 </i>
   </energy>
  </scstep>
  <scstep>
   <time name="total">    0.82    0.82</time>
   <energy>
    <i name="e_fr_energy">     -0.80848666 </i>
    <i name="e_wo_entrp">     -0.80848666 </i>
    <i name="e_0_energy">     -0.80848666 </i>
   </energy>
  </scstep>
  <scstep>
   <time name="total">    0.82    0.82</time>
   <energy>
    <i name="e_fr_energy">     -0.80892219 </i>
    <i name="e_wo_entrp">     -0.80892219 </i>
    <i name="e_0_energy">     -0.80892219 </i>
   </energy>
  </scstep>
  <scstep>
   <time name="total">    0.83    0.83</time>
   <energy>
    <i name="e_fr_energy">     -0.80893678 </i>
    <i name="e_wo_entrp">     -0.80893678 </i>
    <i name="e_0_energy">     -0.80893678 </i>
   </energy>
  </scstep>
  <scstep>
   <time name="total">    0.82    0.82</time>
   <energy>
    <i name="e_fr_energy">     -0.80893743 </i>
    <i name="e_wo_entrp">     -0.80893743 </i>
    <i name="e_0_energy">     -0.80893743 </i>
   </energy>
  </scstep>
  <scstep>
   <time name="total">    0.82    0.82</time>
   <energy>
    <i name="e_fr_energy">     -0.80893747 </i>
    <i name="e_wo_entrp">     -0.80893747 </i>
    <i name="e_0_energy">     -0.80893747 </i>
   </energy>
  </scstep>
  <varray name="dielectric_ipa" >
   <v>       5.06790177      -0.03796878      -0.02423265 </v>
   <v>      -0.03796876       5.06592701      -0.00000245 </v>
   <v>      -0.02423263      -0.00000245       2.62402962 </v>
  </varray>
  <kpoints>
   <generation param="Gamma">
    <v type="int" name="divisions">      13       13        1 </v>
    <v name="usershift">      0.00000000       0.00000000       0.00000000 </v>
    <v name="genvec1">      0.07692308       0.00000000       0.00000000 </v>
    <v name="genvec2">      0.00000000       0.07692308       0.00000000 </v>
    <v name="genvec3">      0.00000000       0.00000000       1.00000000 </v>
    <v name="shift">      0.00000000       0.00000000       0.00000000 </v>
   </generation>
   <varray name="kpointlist" >
    <v>       0.00000000       0.00000000       0.00000000 </v>
    <v>       0.07692308       0.00000000       0.00000000 </v>
    <v>       0.00000000       0.07692308       0.00000000 </v>
    <v>      -0.07692308       0.07692308       0.00000000 </v>
    <v>       0.15384615       0.00000000       0.00000000 </v>
    <v>       0.00000000       0.15384615       0.00000000 </v>
    <v>      -0.15384615       0.15384615       0.00000000 </v>
    <v>       0.23076923      -0.00000000       0.00000000 </v>
    <v>       0.00000000       0.23076923       0.00000000 </v>
    <v>      -0.23076923       0.23076923       0.00000000 </v>
    <v>       0.30769231       0.00000000       0.00000000 </v>
    <v>       0.00000000       0.30769231       0.00000000 </v>
    <v>      -0.30769231       0.30769231       0.00000000 </v>
    <v>       0.38461538       0.00000000       0.00000000 </v>
    <v>       0.00000000       0.38461538       0.00000000 </v>
    <v>      -0.38461538       0.38461538       0.00000000 </v>
    <v>       0.46153846      -0.00000000       0.00000000 </v>
    <v>       0.00000000       0.46153846       0.00000000 </v>
    <v>      -0.46153846       0.46153846       0.00000000 </v>
    <v>       0.07692308       0.07692308       0.00000000 </v>
    <v>      -0.07692308       0.15384615       0.00000000 </v>
    <v>      -0.15384615       0.07692308       0.00000000 </v>
    <v>       0.15384615       0.07692308       0.00000000 </v>
    <v>      -0.07692308       0.23076923       0.00000000 </v>
    <v>      -0.23076923       0.15384615       0.00000000 </v>
    <v>      -0.15384615       0.23076923       0.00000000 </v>
    <v>       0.07692308       0.15384615       0.00000000 </v>
    <v>       0.23076923      -0.07692308       0.00000000 </v>
    <v>       0.23076923       0.07692308       0.00000000 </v>
    <v>      -0.07692308       0.30769231       0.00000000 </v>
    <v>      -0.30769231       0.23076923       0.00000000 </v>
    <v>      -0.23076923       0.30769231       0.00000000 </v>
    <v>       0.07692308       0.23076923       0.00000000 </v>
    <v>       0.30769231      -0.07692308       0.00000000 </v>
    <v>       0.30769231       0.07692308       0.00000000 </v>
    <v>      -0.07692308       0.38461538       0.00000000 </v>
    <v>      -0.38461538       0.30769231       0.00000000 </v>
    <v>      -0.30769231       0.38461538       0.00000000 </v>
    <v>       0.07692308       0.30769231       0.00000000 </v>
    <v>       0.38461538      -0.07692308       0.00000000 </v>
    <v>       0.38461538       0.07692308       0.00000000 </v>
    <v>      -0.07692308       0.46153846       0.00000000 </v>
    <v>      -0.46153846       0.38461538       0.00000000 </v>
    <v>      -0.38461538       0.46153846       0.00000000 </v>
    <v>       0.07692308       0.38461538       0.00000000 </v>
    <v>       0.46153846      -0.07692308       0.00000000 </v>
    <v>       0.46153846       0.07692308       0.00000000 </v>
    <v>      -0.07692308      -0.46153846       0.00000000 </v>
    <v>       0.46153846       0.46153846       0.00000000 </v>
    <v>       0.15384615       0.15384615       0.00000000 </v>
    <v>      -0.15384615       0.30769231       0.00000000 </v>
    <v>      -0.30769231       0.15384615       0.00000000 </v>
    <v>       0.23076923       0.15384615       0.00000000 </v>
    <v>      -0.15384615       0.38461538       0.00000000 </v>
    <v>      -0.38461538       0.23076923       0.00000000 </v>
    <v>      -0.23076923       0.38461538       0.00000000 </v>
    <v>       0.15384615       0.23076923       0.00000000 </v>
    <v>       0.38461538      -0.15384615       0.00000000 </v>
    <v>       0.30769231       0.15384615       0.00000000 </v>
    <v>      -0.15384615       0.46153846       0.00000000 </v>
    <v>      -0.46153846       0.30769231       0.00000000 </v>
    <v>      -0.30769231       0.46153846       0.00000000 </v>
    <v>       0.15384615       0.30769231       0.00000000 </v>
    <v>       0.46153846      -0.15384615       0.00000000 </v>
    <v>       0.38461538       0.15384615       0.00000000 </v>
    <v>      -0.15384615      -0.46153846       0.00000000 </v>
    <v>       0.46153846       0.38461538       0.00000000 </v>
    <v>      -0.38461538      -0.46153846       0.00000000 </v>
    <v>       0.15384615       0.38461538       0.00000000 </v>
    <v>      -0.46153846      -0.15384615       0.00000000 </v>
    <v>       0.23076923       0.23076923       0.00000000 </v>
    <v>      -0.23076923       0.46153846       0.00000000 </v>
    <v>      -0.46153846       0.23076923       0.00000000 </v>
    <v>       0.30769231       0.23076923       0.00000000 </v>
    <v>      -0.23076923      -0.46153846       0.00000000 </v>
    <v>       0.46153846       0.30769231       0.00000000 </v>
    <v>      -0.30769231      -0.46153846       0.00000000 </v>
    <v>       0.23076923       0.30769231       0.00000000 </v>
    <v>      -0.46153846      -0.23076923       0.00000000 </v>
    <v>       0.38461538       0.23076923       0.00000000 </v>
    <v>      -0.23076923      -0.38461538       0.00000000 </v>
    <v>       0.38461538       0.38461538       0.00000000 </v>
    <v>       0.30769231       0.30769231       0.00000000 </v>
    <v>      -0.30769231      -0.38461538       0.00000000 </v>
    <v>       0.38461538       0.30769231       0.00000000 </v>
   </varray>
   <varray name="weights" >
    <v>       0.00591716 </v>
    <v>       0.01183432 </v>
    <v>       0.01183432 </v>
    <v>       0.01183432 </v>
    <v>       0.01183432 </v>
    <v>       0.01183432 </v>
    <v>       0.01183432 </v>
    <v>       0.01183432 </v>
    <v>       0.01183432 </v>
    <v>       0.01183432 </v>
    <v>       0.01183432 </v>
    <v>       0.01183432 </v>
    <v>       0.01183432 </v>
    <v>       0.01183432 </v>
    <v>       0.01183432 </v>
    <v>       0.01183432 </v>
    <v>       0.01183432 </v>
    <v>       0.01183432 </v>
    <v>       0.01183432 </v>
    <v>       0.01183432 </v>
    <v>       0.01183432 </v>
    <v>       0.01183432 </v>
    <v>       0.01183432 </v>
    <v>       0.01183432 </v>
    <v>       0.01183432 </v>
    <v>       0.01183432 </v>
    <v>       0.01183432 </v>
    <v>       0.01183432 </v>
    <v>       0.01183432 </v>
    <v>       0.01183432 </v>
    <v>       0.01183432 </v>
    <v>       0.01183432 </v>
    <v>       0.01183432 </v>
    <v>       0.01183432 </v>
    <v>       0.01183432 </v>
    <v>       0.01183432 </v>
    <v>       0.01183432 </v>
    <v>       0.01183432 </v>
    <v>       0.01183432 </v>
    <v>       0.01183432 </v>
    <v>       0.01183432 </v>
    <v>       0.01183432 </v>
    <v>       0.01183432 </v>
    <v>       0.01183432 </v>
    <v>       0.01183432 </v>
    <v>       0.01183432 </v>
    <v>       0.01183432 </v>
    <v>       0.01183432 </v>
    <v>       0.01183432 </v>
    <v>       0.01183432 </v>
    <v>       0.01183432 </v>
    <v>       0.01183432 </v>
    <v>       0.01183432 </v>
    <v>       0.01183432 </v>
    <v>       0.01183432 </v>
    <v>       0.01183432 </v>
    <v>       0.01183432 </v>
    <v>       0.01183432 </v>
    <v>       0.01183432 </v>
    <v>       0.01183432 </v>
    <v>       0.01183432 </v>
    <v>       0.01183432 </v>
    <v>       0.01183432 </v>
    <v>       0.01183432 </v>
    <v>       0.01183432 </v>
    <v>       0.01183432 </v>
    <v>       0.01183432 </v>
    <v>       0.01183432 </v>
    <v>       0.01183432 </v>
    <v>       0.01183432 </v>
    <v>       0.01183432 </v>
    <v>       0.01183432 </v>
    <v>       0.01183432 </v>
    <v>       0.01183432 </v>
    <v>       0.01183432 </v>
    <v>       0.01183432 </v>
    <v>       0.01183432 </v>
    <v>       0.01183432 </v>
    <v>       0.01183432 </v>
    <v>       0.01183432 </v>
    <v>       0.01183432 </v>
    <v>       0.01183432 </v>
    <v>       0.01183432 </v>
    <v>       0.01183432 </v>
    <v>       0.01183432 </v>
   </varray>
  </kpoints>
  <scstep>
   <time name="total">    0.85    0.85</time>
   <energy>
    <i name="e_fr_energy">     -1.96613513 </i>
    <i name="e_wo_entrp">     -1.96613513 </i>
    <i name="e_0_energy">     -1.96613513 </i>
   </energy>
  </scstep>
  <scstep>
   <time name="total">    0.88    0.88</time>
   <energy>
    <i name="e_fr_energy">     -2.02514781 </i>
    <i name="e_wo_entrp">     -2.02514781 </i>
    <i name="e_0_energy">     -2.02514781 </i>
   </energy>
  </scstep>
  <scstep>
   <time name="total">    0.87    0.87</time>
   <energy>
    <i name="e_fr_energy">     -1.98931893 </i>
    <i name="e_wo_entrp">     -1.98931893 </i>
    <i name="e_0_energy">     -1.98931893 </i>
   </energy>
  </scstep>
  <scstep>
   <time name="total">    0.87    0.88</time>
   <energy>
    <i name="e_fr_energy">     -2.01083604 </i>
    <i name="e_wo_entrp">     -2.01083604 </i>
    <i name="e_0_energy">     -2.01083604 </i>
   </energy>
  </scstep>
  <scstep>
   <time name="total">    0.87    0.87</time>
   <energy>
    <i name="e_fr_energy">     -2.02385362 </i>
    <i name="e_wo_entrp">     -2.02385362 </i>
    <i name="e_0_energy">     -2.02385362 </i>
   </energy>
  </scstep>
  <scstep>
   <time name="total">    0.88    0.88</time>
   <energy>
    <i name="e_fr_energy">     -2.03750072 </i>
    <i name="e_wo_entrp">     -2.03750072 </i>
    <i name="e_0_energy">     -2.03750072 </i>
   </energy>
  </scstep>
  <scstep>
   <time name="total">    0.88    0.88</time>
   <energy>
    <i name="e_fr_energy">     -2.04159445 </i>
    <i name="e_wo_entrp">     -2.04159445 </i>
    <i name="e_0_energy">     -2.04159445 </i>
   </energy>
  </scstep>
  <scstep>
   <time name="total">    0.88    0.94</time>
   <energy>
    <i name="e_fr_energy">     -2.04387746 </i>
    <i name="e_wo_entrp">     -2.04387746 </i>
    <i name="e_0_energy">     -2.04387746 </i>
   </energy>
  </scstep>
  <scstep>
   <time name="total">    0.90    0.90</time>
   <energy>
    <i name="e_fr_energy">     -2.04475167 </i>
    <i name="e_wo_entrp">     -2.04475167 </i>
    <i name="e_0_energy">     -2.04475167 </i>
   </energy>
  </scstep>
  <scstep>
   <time name="total">    0.90    0.90</time>
   <energy>
    <i name="e_fr_energy">     -2.04485970 </i>
    <i name="e_wo_entrp">     -2.04485970 </i>
    <i name="e_0_energy">     -2.04485970 </i>
   </energy>
  </scstep>
  <scstep>
   <time name="total">    0.89    0.89</time>
   <energy>
    <i name="e_fr_energy">     -2.04489956 </i>
    <i name="e_wo_entrp">     -2.04489956 </i>
    <i name="e_0_energy">     -2.04489956 </i>
   </energy>
  </scstep>
  <scstep>
   <time name="total">    0.89    0.89</time>
   <energy>
    <i name="e_fr_energy">     -2.04493400 </i>
    <i name="e_wo_entrp">     -2.04493400 </i>
    <i name="e_0_energy">     -2.04493400 </i>
   </energy>
  </scstep>
  <scstep>
   <time name="total">    0.89    0.89</time>
   <energy>
    <i name="e_fr_energy">     -2.04493987 </i>
    <i name="e_wo_entrp">     -2.04493987 </i>
    <i name="e_0_energy">     -2.04493987 </i>
   </energy>
  </scstep>
  <scstep>
   <time name="total">    0.89    0.89</time>
   <energy>
    <i name="e_fr_energy">     -2.04494022 </i>
    <i name="e_wo_entrp">     -2.04494022 </i>
    <i name="e_0_energy">     -2.04494022 </i>
   </energy>
  </scstep>
  <kpoints>
   <generation param="Gamma">
    <v type="int" name="divisions">      13       13        1 </v>
    <v name="usershift">      0.00000000       0.00000000       0.00000000 </v>
    <v name="genvec1">      0.07692308       0.00000000       0.00000000 </v>
    <v name="genvec2">      0.00000000       0.07692308       0.00000000 </v>
    <v name="genvec3">      0.00000000       0.00000000       1.00000000 </v>
    <v name="shift">      0.00000000       0.00000000       0.00000000 </v>
   </generation>
   <varray name="kpointlist" >
    <v>       0.00000000       0.00000000       0.00000000 </v>
    <v>       0.07692308       0.00000000       0.00000000 </v>
    <v>       0.00000000       0.07692308       0.00000000 </v>
    <v>      -0.07692308       0.07692308       0.00000000 </v>
    <v>       0.15384615       0.00000000       0.00000000 </v>
    <v>       0.00000000       0.15384615       0.00000000 </v>
    <v>      -0.15384615       0.15384615       0.00000000 </v>
    <v>       0.23076923      -0.00000000       0.00000000 </v>
    <v>       0.00000000       0.23076923       0.00000000 </v>
    <v>      -0.23076923       0.23076923       0.00000000 </v>
    <v>       0.30769231       0.00000000       0.00000000 </v>
    <v>       0.00000000       0.30769231       0.00000000 </v>
    <v>      -0.30769231       0.30769231       0.00000000 </v>
    <v>       0.38461538       0.00000000       0.00000000 </v>
    <v>       0.00000000       0.38461538       0.00000000 </v>
    <v>      -0.38461538       0.38461538       0.00000000 </v>
    <v>       0.46153846      -0.00000000       0.00000000 </v>
    <v>       0.00000000       0.46153846       0.00000000 </v>
    <v>      -0.46153846       0.46153846       0.00000000 </v>
    <v>       0.07692308       0.07692308       0.00000000 </v>
    <v>      -0.07692308       0.15384615       0.00000000 </v>
    <v>      -0.15384615       0.07692308       0.00000000 </v>
    <v>       0.15384615       0.07692308       0.00000000 </v>
    <v>      -0.07692308       0.23076923       0.00000000 </v>
    <v>      -0.23076923       0.15384615       0.00000000 </v>
    <v>      -0.15384615       0.23076923       0.00000000 </v>
    <v>       0.07692308       0.15384615       0.00000000 </v>
    <v>       0.23076923      -0.07692308       0.00000000 </v>
    <v>       0.23076923       0.07692308       0.00000000 </v>
    <v>      -0.07692308       0.30769231       0.00000000 </v>
    <v>      -0.30769231       0.23076923       0.00000000 </v>
    <v>      -0.23076923       0.30769231       0.00000000 </v>
    <v>       0.07692308       0.23076923       0.00000000 </v>
    <v>       0.30769231      -0.07692308       0.00000000 </v>
    <v>       0.30769231       0.07692308       0.00000000 </v>
    <v>      -0.07692308       0.38461538       0.00000000 </v>
    <v>      -0.38461538       0.30769231       0.00000000 </v>
    <v>      -0.30769231       0.38461538       0.00000000 </v>
    <v>       0.07692308       0.30769231       0.00000000 </v>
    <v>       0.38461538      -0.07692308       0.00000000 </v>
    <v>       0.38461538       0.07692308       0.00000000 </v>
    <v>      -0.07692308       0.46153846       0.00000000 </v>
    <v>      -0.46153846       0.38461538       0.00000000 </v>
    <v>      -0.38461538       0.46153846       0.00000000 </v>
    <v>       0.07692308       0.38461538       0.00000000 </v>
    <v>       0.46153846      -0.07692308       0.00000000 </v>
    <v>       0.46153846       0.07692308       0.00000000 </v>
    <v>      -0.07692308      -0.46153846       0.00000000 </v>
    <v>       0.46153846       0.46153846       0.00000000 </v>
    <v>       0.15384615       0.15384615       0.00000000 </v>
    <v>      -0.15384615       0.30769231       0.00000000 </v>
    <v>      -0.30769231       0.15384615       0.00000000 </v>
    <v>       0.23076923       0.15384615       0.00000000 </v>
    <v>      -0.15384615       0.38461538       0.00000000 </v>
    <v>      -0.38461538       0.23076923       0.00000000 </v>
    <v>      -0.23076923       0.38461538       0.00000000 </v>
    <v>       0.15384615       0.23076923       0.00000000 </v>
    <v>       0.38461538      -0.15384615       0.00000000 </v>
    <v>       0.30769231       0.15384615       0.00000000 </v>
    <v>      -0.15384615       0.46153846       0.00000000 </v>
    <v>      -0.46153846       0.30769231       0.00000000 </v>
    <v>      -0.30769231       0.46153846       0.00000000 </v>
    <v>       0.15384615       0.30769231       0.00000000 </v>
    <v>       0.46153846      -0.15384615       0.00000000 </v>
    <v>       0.38461538       0.15384615       0.00000000 </v>
    <v>      -0.15384615      -0.46153846       0.00000000 </v>
    <v>       0.46153846       0.38461538       0.00000000 </v>
    <v>      -0.38461538      -0.46153846       0.00000000 </v>
    <v>       0.15384615       0.38461538       0.00000000 </v>
    <v>      -0.46153846      -0.15384615       0.00000000 </v>
    <v>       0.23076923       0.23076923       0.00000000 </v>
    <v>      -0.23076923       0.46153846       0.00000000 </v>
    <v>      -0.46153846       0.23076923       0.00000000 </v>
    <v>       0.30769231       0.23076923       0.00000000 </v>
    <v>      -0.23076923      -0.46153846       0.00000000 </v>
    <v>       0.46153846       0.30769231       0.00000000 </v>
    <v>      -0.30769231      -0.46153846       0.00000000 </v>
    <v>       0.23076923       0.30769231       0.00000000 </v>
    <v>      -0.46153846      -0.23076923       0.00000000 </v>
    <v>       0.38461538       0.23076923       0.00000000 </v>
    <v>      -0.23076923      -0.38461538       0.00000000 </v>
    <v>       0.38461538       0.38461538       0.00000000 </v>
    <v>       0.30769231       0.30769231       0.00000000 </v>
    <v>      -0.30769231      -0.38461538       0.00000000 </v>
    <v>       0.38461538       0.30769231       0.00000000 </v>
   </varray>
   <varray name="weights" >
    <v>       0.00591716 </v>
    <v>       0.01183432 </v>
    <v>       0.01183432 </v>
    <v>       0.01183432 </v>
    <v>       0.01183432 </v>
    <v>       0.01183432 </v>
    <v>       0.01183432 </v>
    <v>       0.01183432 </v>
    <v>       0.01183432 </v>
    <v>       0.01183432 </v>
    <v>       0.01183432 </v>
    <v>       0.01183432 </v>
    <v>       0.01183432 </v>
    <v>       0.01183432 </v>
    <v>       0.01183432 </v>
    <v>       0.01183432 </v>
    <v>       0.01183432 </v>
    <v>       0.01183432 </v>
    <v>       0.01183432 </v>
    <v>       0.01183432 </v>
    <v>       0.01183432 </v>
    <v>       0.01183432 </v>
    <v>       0.01183432 </v>
    <v>       0.01183432 </v>
    <v>       0.01183432 </v>
    <v>       0.01183432 </v>
    <v>       0.01183432 </v>
    <v>       0.01183432 </v>
    <v>       0.01183432 </v>
    <v>       0.01183432 </v>
    <v>       0.01183432 </v>
    <v>       0.01183432 </v>
    <v>       0.01183432 </v>
    <v>       0.01183432 </v>
    <v>       0.01183432 </v>
    <v>       0.01183432 </v>
    <v>       0.01183432 </v>
    <v>       0.01183432 </v>
    <v>       0.01183432 </v>
    <v>       0.01183432 </v>
    <v>       0.01183432 </v>
    <v>       0.01183432 </v>
    <v>       0.01183432 </v>
    <v>       0.01183432 </v>
    <v>       0.01183432 </v>
    <v>       0.01183432 </v>
    <v>       0.01183432 </v>
    <v>       0.01183432 </v>
    <v>       0.01183432 </v>
    <v>       0.01183432 </v>
    <v>       0.01183432 </v>
    <v>       0.01183432 </v>
    <v>       0.01183432 </v>
    <v>       0.01183432 </v>
    <v>       0.01183432 </v>
    <v>       0.01183432 </v>
    <v>       0.01183432 </v>
    <v>       0.01183432 </v>
    <v>       0.01183432 </v>
    <v>       0.01183432 </v>
    <v>       0.01183432 </v>
    <v>       0.01183432 </v>
    <v>       0.01183432 </v>
    <v>       0.01183432 </v>
    <v>       0.01183432 </v>
    <v>       0.01183432 </v>
    <v>       0.01183432 </v>
    <v>       0.01183432 </v>
    <v>       0.01183432 </v>
    <v>       0.01183432 </v>
    <v>       0.01183432 </v>
    <v>       0.01183432 </v>
    <v>       0.01183432 </v>
    <v>       0.01183432 </v>
    <v>       0.01183432 </v>
    <v>       0.01183432 </v>
    <v>       0.01183432 </v>
    <v>       0.01183432 </v>
    <v>       0.01183432 </v>
    <v>       0.01183432 </v>
    <v>       0.01183432 </v>
    <v>       0.01183432 </v>
    <v>       0.01183432 </v>
    <v>       0.01183432 </v>
    <v>       0.01183432 </v>
   </varray>
  </kpoints>
  <scstep>
   <time name="total">    0.85    0.85</time>
   <energy>
    <i name="e_fr_energy">     -1.96730921 </i>
    <i name="e_wo_entrp">     -1.96730921 </i>
    <i name="e_0_energy">     -1.96730921 </i>
   </energy>
  </scstep>
  <scstep>
   <time name="total">    0.89    0.89</time>
   <energy>
    <i name="e_fr_energy">     -2.02414415 </i>
    <i name="e_wo_entrp">     -2.02414415 </i>
    <i name="e_0_energy">     -2.02414415 </i>
   </energy>
  </scstep>
  <scstep>
   <time name="total">    0.88    0.88</time>
   <energy>
    <i name="e_fr_energy">     -1.98852384 </i>
    <i name="e_wo_entrp">     -1.98852384 </i>
    <i name="e_0_energy">     -1.98852384 </i>
   </energy>
  </scstep>
  <scstep>
   <time name="total">    0.88    0.88</time>
   <energy>
    <i name="e_fr_energy">     -2.01547465 </i>
    <i name="e_wo_entrp">     -2.01547465 </i>
    <i name="e_0_energy">     -2.01547465 </i>
   </energy>
  </scstep>
  <scstep>
   <time name="total">    0.88    0.88</time>
   <energy>
    <i name="e_fr_energy">     -2.03379166 </i>
    <i name="e_wo_entrp">     -2.03379166 </i>
    <i name="e_0_energy">     -2.03379166 </i>
   </energy>
  </scstep>
  <scstep>
   <time name="total">    0.89    0.89</time>
   <energy>
    <i name="e_fr_energy">     -2.04021468 </i>
    <i name="e_wo_entrp">     -2.04021468 </i>
    <i name="e_0_energy">     -2.04021468 </i>
   </energy>
  </scstep>
  <scstep>
   <time name="total">    0.89    0.89</time>
   <energy>
    <i name="e_fr_energy">     -2.04192038 </i>
    <i name="e_wo_entrp">     -2.04192038 </i>
    <i name="e_0_energy">     -2.04192038 </i>
   </energy>
  </scstep>
  <scstep>
   <time name="total">    0.89    0.92</time>
   <energy>
    <i name="e_fr_energy">     -2.04397896 </i>
    <i name="e_wo_entrp">     -2.04397896 </i>
    <i name="e_0_energy">     -2.04397896 </i>
   </energy>
  </scstep>
  <scstep>
   <time name="total">    0.90    0.90</time>
   <energy>
    <i name="e_fr_energy">     -2.04409905 </i>
    <i name="e_wo_entrp">     -2.04409905 </i>
    <i name="e_0_energy">     -2.04409905 </i>
   </energy>
  </scstep>
  <scstep>
   <time name="total">    0.90    0.90</time>
   <energy>
    <i name="e_fr_energy">     -2.04417515 </i>
    <i name="e_wo_entrp">     -2.04417515 </i>
    <i name="e_0_energy">     -2.04417515 </i>
   </energy>
  </scstep>
  <scstep>
   <time name="total">    0.90    0.90</time>
   <energy>
    <i name="e_fr_energy">     -2.04421172 </i>
    <i name="e_wo_entrp">     -2.04421172 </i>
    <i name="e_0_energy">     -2.04421172 </i>
   </energy>
  </scstep>
  <scstep>
   <time name="total">    0.89    0.89</time>
   <energy>
    <i name="e_fr_energy">     -2.04419845 </i>
    <i name="e_wo_entrp">     -2.04419845 </i>
    <i name="e_0_energy">     -2.04419845 </i>
   </energy>
  </scstep>
  <scstep>
   <time name="total">    0.89    0.89</time>
   <energy>
    <i name="e_fr_energy">     -2.04422513 </i>
    <i name="e_wo_entrp">     -2.04422513 </i>
    <i name="e_0_energy">     -2.04422513 </i>
   </energy>
  </scstep>
  <scstep>
   <time name="total">    0.89    0.89</time>
   <energy>
    <i name="e_fr_energy">     -2.04422792 </i>
    <i name="e_wo_entrp">     -2.04422792 </i>
    <i name="e_0_energy">     -2.04422792 </i>
   </energy>
  </scstep>
  <scstep>
   <time name="total">    0.89    0.89</time>
   <energy>
    <i name="e_fr_energy">     -2.04422629 </i>
    <i name="e_wo_entrp">     -2.04422629 </i>
    <i name="e_0_energy">     -2.04422629 </i>
   </energy>
  </scstep>
  <scstep>
   <time name="total">    0.89    0.89</time>
   <energy>
    <i name="e_fr_energy">     -2.04422632 </i>
    <i name="e_wo_entrp">     -2.04422632 </i>
    <i name="e_0_energy">     -2.04422632 </i>
   </energy>
  </scstep>
  <kpoints>
   <generation param="Gamma">
    <v type="int" name="divisions">      13       13        1 </v>
    <v name="usershift">      0.00000000       0.00000000       0.00000000 </v>
    <v name="genvec1">      0.07692308       0.00000000       0.00000000 </v>
    <v name="genvec2">      0.00000000       0.07692308       0.00000000 </v>
    <v name="genvec3">      0.00000000       0.00000000       1.00000000 </v>
    <v name="shift">      0.00000000       0.00000000       0.00000000 </v>
   </generation>
   <varray name="kpointlist" >
    <v>       0.00000000       0.00000000       0.00000000 </v>
    <v>       0.07692308       0.00000000       0.00000000 </v>
    <v>       0.00000000       0.07692308       0.00000000 </v>
    <v>      -0.07692308       0.07692308       0.00000000 </v>
    <v>       0.15384615       0.00000000       0.00000000 </v>
    <v>       0.00000000       0.15384615       0.00000000 </v>
    <v>      -0.15384615       0.15384615       0.00000000 </v>
    <v>       0.23076923      -0.00000000       0.00000000 </v>
    <v>       0.00000000       0.23076923       0.00000000 </v>
    <v>      -0.23076923       0.23076923       0.00000000 </v>
    <v>       0.30769231       0.00000000       0.00000000 </v>
    <v>       0.00000000       0.30769231       0.00000000 </v>
    <v>      -0.30769231       0.30769231       0.00000000 </v>
    <v>       0.38461538       0.00000000       0.00000000 </v>
    <v>       0.00000000       0.38461538       0.00000000 </v>
    <v>      -0.38461538       0.38461538       0.00000000 </v>
    <v>       0.46153846      -0.00000000       0.00000000 </v>
    <v>       0.00000000       0.46153846       0.00000000 </v>
    <v>      -0.46153846       0.46153846       0.00000000 </v>
    <v>       0.07692308       0.07692308       0.00000000 </v>
    <v>      -0.07692308       0.15384615       0.00000000 </v>
    <v>      -0.15384615       0.07692308       0.00000000 </v>
    <v>       0.15384615       0.07692308       0.00000000 </v>
    <v>      -0.07692308       0.23076923       0.00000000 </v>
    <v>      -0.23076923       0.15384615       0.00000000 </v>
    <v>      -0.15384615       0.23076923       0.00000000 </v>
    <v>       0.07692308       0.15384615       0.00000000 </v>
    <v>       0.23076923      -0.07692308       0.00000000 </v>
    <v>       0.23076923       0.07692308       0.00000000 </v>
    <v>      -0.07692308       0.30769231       0.00000000 </v>
    <v>      -0.30769231       0.23076923       0.00000000 </v>
    <v>      -0.23076923       0.30769231       0.00000000 </v>
    <v>       0.07692308       0.23076923       0.00000000 </v>
    <v>       0.30769231      -0.07692308       0.00000000 </v>
    <v>       0.30769231       0.07692308       0.00000000 </v>
    <v>      -0.07692308       0.38461538       0.00000000 </v>
    <v>      -0.38461538       0.30769231       0.00000000 </v>
    <v>      -0.30769231       0.38461538       0.00000000 </v>
    <v>       0.07692308       0.30769231       0.00000000 </v>
    <v>       0.38461538      -0.07692308       0.00000000 </v>
    <v>       0.38461538       0.07692308       0.00000000 </v>
    <v>      -0.07692308       0.46153846       0.00000000 </v>
    <v>      -0.46153846       0.38461538       0.00000000 </v>
    <v>      -0.38461538       0.46153846       0.00000000 </v>
    <v>       0.07692308       0.38461538       0.00000000 </v>
    <v>       0.46153846      -0.07692308       0.00000000 </v>
    <v>       0.46153846       0.07692308       0.00000000 </v>
    <v>      -0.07692308      -0.46153846       0.00000000 </v>
    <v>       0.46153846       0.46153846       0.00000000 </v>
    <v>       0.15384615       0.15384615       0.00000000 </v>
    <v>      -0.15384615       0.30769231       0.00000000 </v>
    <v>      -0.30769231       0.15384615       0.00000000 </v>
    <v>       0.23076923       0.15384615       0.00000000 </v>
    <v>      -0.15384615       0.38461538       0.00000000 </v>
    <v>      -0.38461538       0.23076923       0.00000000 </v>
    <v>      -0.23076923       0.38461538       0.00000000 </v>
    <v>       0.15384615       0.23076923       0.00000000 </v>
    <v>       0.38461538      -0.15384615       0.00000000 </v>
    <v>       0.30769231       0.15384615       0.00000000 </v>
    <v>      -0.15384615       0.46153846       0.00000000 </v>
    <v>      -0.46153846       0.30769231       0.00000000 </v>
    <v>      -0.30769231       0.46153846       0.00000000 </v>
    <v>       0.15384615       0.30769231       0.00000000 </v>
    <v>       0.46153846      -0.15384615       0.00000000 </v>
    <v>       0.38461538       0.15384615       0.00000000 </v>
    <v>      -0.15384615      -0.46153846       0.00000000 </v>
    <v>       0.46153846       0.38461538       0.00000000 </v>
    <v>      -0.38461538      -0.46153846       0.00000000 </v>
    <v>       0.15384615       0.38461538       0.00000000 </v>
    <v>      -0.46153846      -0.15384615       0.00000000 </v>
    <v>       0.23076923       0.23076923       0.00000000 </v>
    <v>      -0.23076923       0.46153846       0.00000000 </v>
    <v>      -0.46153846       0.23076923       0.00000000 </v>
    <v>       0.30769231       0.23076923       0.00000000 </v>
    <v>      -0.23076923      -0.46153846       0.00000000 </v>
    <v>       0.46153846       0.30769231       0.00000000 </v>
    <v>      -0.30769231      -0.46153846       0.00000000 </v>
    <v>       0.23076923       0.30769231       0.00000000 </v>
    <v>      -0.46153846      -0.23076923       0.00000000 </v>
    <v>       0.38461538       0.23076923       0.00000000 </v>
    <v>      -0.23076923      -0.38461538       0.00000000 </v>
    <v>       0.38461538       0.38461538       0.00000000 </v>
    <v>       0.30769231       0.30769231       0.00000000 </v>
    <v>      -0.30769231      -0.38461538       0.00000000 </v>
    <v>       0.38461538       0.30769231       0.00000000 </v>
   </varray>
   <varray name="weights" >
    <v>       0.00591716 </v>
    <v>       0.01183432 </v>
    <v>       0.01183432 </v>
    <v>       0.01183432 </v>
    <v>       0.01183432 </v>
    <v>       0.01183432 </v>
    <v>       0.01183432 </v>
    <v>       0.01183432 </v>
    <v>       0.01183432 </v>
    <v>       0.01183432 </v>
    <v>       0.01183432 </v>
    <v>       0.01183432 </v>
    <v>       0.01183432 </v>
    <v>       0.01183432 </v>
    <v>       0.01183432 </v>
    <v>       0.01183432 </v>
    <v>       0.01183432 </v>
    <v>       0.01183432 </v>
    <v>       0.01183432 </v>
    <v>       0.01183432 </v>
    <v>       0.01183432 </v>
    <v>       0.01183432 </v>
    <v>       0.01183432 </v>
    <v>       0.01183432 </v>
    <v>       0.01183432 </v>
    <v>       0.01183432 </v>
    <v>       0.01183432 </v>
    <v>       0.01183432 </v>
    <v>       0.01183432 </v>
    <v>       0.01183432 </v>
    <v>       0.01183432 </v>
    <v>       0.01183432 </v>
    <v>       0.01183432 </v>
    <v>       0.01183432 </v>
    <v>       0.01183432 </v>
    <v>       0.01183432 </v>
    <v>       0.01183432 </v>
    <v>       0.01183432 </v>
    <v>       0.01183432 </v>
    <v>       0.01183432 </v>
    <v>       0.01183432 </v>
    <v>       0.01183432 </v>
    <v>       0.01183432 </v>
    <v>       0.01183432 </v>
    <v>       0.01183432 </v>
    <v>       0.01183432 </v>
    <v>       0.01183432 </v>
    <v>       0.01183432 </v>
    <v>       0.01183432 </v>
    <v>       0.01183432 </v>
    <v>       0.01183432 </v>
    <v>       0.01183432 </v>
    <v>       0.01183432 </v>
    <v>       0.01183432 </v>
    <v>       0.01183432 </v>
    <v>       0.01183432 </v>
    <v>       0.01183432 </v>
    <v>       0.01183432 </v>
    <v>       0.01183432 </v>
    <v>       0.01183432 </v>
    <v>       0.01183432 </v>
    <v>       0.01183432 </v>
    <v>       0.01183432 </v>
    <v>       0.01183432 </v>
    <v>       0.01183432 </v>
    <v>       0.01183432 </v>
    <v>       0.01183432 </v>
    <v>       0.01183432 </v>
    <v>       0.01183432 </v>
    <v>       0.01183432 </v>
    <v>       0.01183432 </v>
    <v>       0.01183432 </v>
    <v>       0.01183432 </v>
    <v>       0.01183432 </v>
    <v>       0.01183432 </v>
    <v>       0.01183432 </v>
    <v>       0.01183432 </v>
    <v>       0.01183432 </v>
    <v>       0.01183432 </v>
    <v>       0.01183432 </v>
    <v>       0.01183432 </v>
    <v>       0.01183432 </v>
    <v>       0.01183432 </v>
    <v>       0.01183432 </v>
    <v>       0.01183432 </v>
   </varray>
  </kpoints>
  <scstep>
   <time name="total">    0.85    0.85</time>
   <energy>
    <i name="e_fr_energy">     -0.76672386 </i>
    <i name="e_wo_entrp">     -0.76672386 </i>
    <i name="e_0_energy">     -0.76672386 </i>
   </energy>
  </scstep>
  <scstep>
   <time name="total">    0.90    0.90</time>
   <energy>
    <i name="e_fr_energy">     -0.80848666 </i>
    <i name="e_wo_entrp">     -0.80848666 </i>
    <i name="e_0_energy">     -0.80848666 </i>
   </energy>
  </scstep>
  <scstep>
   <time name="total">    0.88    0.88</time>
   <energy>
    <i name="e_fr_energy">     -0.25605329 </i>
    <i name="e_wo_entrp">     -0.25605329 </i>
    <i name="e_0_energy">     -0.25605329 </i>
   </energy>
  </scstep>
  <scstep>
   <time name="total">    0.88    0.88</time>
   <energy>
    <i name="e_fr_energy">     -0.18118240 </i>
    <i name="e_wo_entrp">     -0.18118240 </i>
    <i name="e_0_energy">     -0.18118240 </i>
   </energy>
  </scstep>
  <scstep>
   <time name="total">    0.88    0.88</time>
   <energy>
    <i name="e_fr_energy">     -0.17593736 </i>
    <i name="e_wo_entrp">     -0.17593736 </i>
    <i name="e_0_energy">     -0.17593736 </i>
   </energy>
  </scstep>
  <scstep>
   <time name="total">    0.88    0.88</time>
   <energy>
    <i name="e_fr_energy">     -0.17615339 </i>
    <i name="e_wo_entrp">     -0.17615339 </i>
    <i name="e_0_energy">     -0.17615339 </i>
   </energy>
  </scstep>
  <scstep>
   <time name="total">    0.89    0.89</time>
   <energy>
    <i name="e_fr_energy">     -0.17670402 </i>
    <i name="e_wo_entrp">     -0.17670402 </i>
    <i name="e_0_energy">     -0.17670402 </i>
   </energy>
  </scstep>
  <scstep>
   <time name="total">    0.89    0.89</time>
   <energy>
    <i name="e_fr_energy">     -0.17708237 </i>
    <i name="e_wo_entrp">     -0.17708237 </i>
    <i name="e_0_energy">     -0.17708237 </i>
   </energy>
  </scstep>
  <scstep>
   <time name="total">    0.89    0.89</time>
   <energy>
    <i name="e_fr_energy">     -0.17707179 </i>
    <i name="e_wo_entrp">     -0.17707179 </i>
    <i name="e_0_energy">     -0.17707179 </i>
   </energy>
  </scstep>
  <scstep>
   <time name="total">    0.89    0.89</time>
   <energy>
    <i name="e_fr_energy">     -0.17708278 </i>
    <i name="e_wo_entrp">     -0.17708278 </i>
    <i name="e_0_energy">     -0.17708278 </i>
   </energy>
  </scstep>
  <scstep>
   <time name="total">    0.88    0.88</time>
   <energy>
    <i name="e_fr_energy">     -0.17707667 </i>
    <i name="e_wo_entrp">     -0.17707667 </i>
    <i name="e_0_energy">     -0.17707667 </i>
   </energy>
  </scstep>
  <scstep>
   <time name="total">    0.89    0.89</time>
   <energy>
    <i name="e_fr_energy">     -0.17707873 </i>
    <i name="e_wo_entrp">     -0.17707873 </i>
    <i name="e_0_energy">     -0.17707873 </i>
   </energy>
  </scstep>
  <scstep>
   <time name="total">    0.89    0.90</time>
   <energy>
    <i name="e_fr_energy">     -0.17707919 </i>
    <i name="e_wo_entrp">     -0.17707919 </i>
    <i name="e_0_energy">     -0.17707919 </i>
   </energy>
  </scstep>
  <kpoints>
   <generation param="Gamma">
    <v type="int" name="divisions">      13       13        1 </v>
    <v name="usershift">      0.00000000       0.00000000       0.00000000 </v>
    <v name="genvec1">      0.07692308       0.00000000       0.00000000 </v>
    <v name="genvec2">      0.00000000       0.07692308       0.00000000 </v>
    <v name="genvec3">      0.00000000       0.00000000       1.00000000 </v>
    <v name="shift">      0.00000000       0.00000000       0.00000000 </v>
   </generation>
   <varray name="kpointlist" >
    <v>       0.00000000       0.00000000       0.00000000 </v>
    <v>       0.07692308       0.00000000       0.00000000 </v>
[...]
       </set>
       <set comment="band 13">
        <r>  0.0008  0.0355  0.0310 </r>
        <r>  0.0008  0.0355  0.0310 </r>
       </set>
       <set comment="band 14">
        <r>  0.0052  0.0159  0.0123 </r>
        <r>  0.0052  0.0159  0.0123 </r>
       </set>
       <set comment="band 15">
        <r>  0.0022  0.0152  0.0177 </r>
        <r>  0.0022  0.0152  0.0177 </r>
       </set>
       <set comment="band 16">
        <r>  0.0033  0.0156  0.0123 </r>
        <r>  0.0033  0.0156  0.0123 </r>
       </set>
      </set>
      <set comment="kpoint 77">
       <set comment="band 1">
        <r>  0.2857  0.0236  0.0024 </r>
        <r>  0.2857  0.0236  0.0024 </r>
       </set>
       <set comment="band 2">
        <r>  0.3045  0.0275  0.0036 </r>
        <r>  0.3045  0.0275  0.0036 </r>
       </set>
       <set comment="band 3">
        <r>  0.0101  0.1903  0.0067 </r>
        <r>  0.0101  0.1903  0.0067 </r>
       </set>
       <set comment="band 4">
        <r>  0.0299  0.1913  0.0032 </r>
        <r>  0.0299  0.1913  0.0032 </r>
       </set>
       <set comment="band 5">
        <r>  0.0396  0.2104  0.0017 </r>
        <r>  0.0396  0.2104  0.0017 </r>
       </set>
       <set comment="band 6">
        <r>  0.0013  0.1757  0.0164 </r>
        <r>  0.0013  0.1757  0.0164 </r>
       </set>
       <set comment="band 7">
        <r>  0.0179  0.1761  0.0159 </r>
        <r>  0.0179  0.1761  0.0159 </r>
       </set>
       <set comment="band 8">
        <r>  0.0304  0.2266  0.0131 </r>
        <r>  0.0304  0.2266  0.0131 </r>
       </set>
       <set comment="band 9">
        <r>  0.0020  0.0470  0.0596 </r>
        <r>  0.0020  0.0470  0.0596 </r>
       </set>
       <set comment="band 10">
        <r>  0.0057  0.0182  0.0107 </r>
        <r>  0.0057  0.0182  0.0107 </r>
       </set>
       <set comment="band 11">
        <r>  0.0000  0.0304  0.0282 </r>
        <r>  0.0000  0.0304  0.0282 </r>
       </set>
       <set comment="band 12">
        <r>  0.0019  0.0439  0.0549 </r>
        <r>  0.0019  0.0439  0.0549 </r>
       </set>
       <set comment="band 13">
        <r>  0.0008  0.0347  0.0310 </r>
        <r>  0.0008  0.0347  0.0310 </r>
       </set>
       <set comment="band 14">
        <r>  0.0051  0.0159  0.0123 </r>
        <r>  0.0051  0.0159  0.0123 </r>
       </set>
       <set comment="band 15">
        <r>  0.0023  0.0148  0.0175 </r>
        <r>  0.0023  0.0148  0.0175 </r>
       </set>
       <set comment="band 16">
        <r>  0.0032  0.0157  0.0125 </r>
        <r>  0.0032  0.0157  0.0125 </r>
       </set>
      </set>
      <set comment="kpoint 78">
       <set comment="band 1">
        <r>  0.2849  0.0238  0.0024 </r>
        <r>  0.2849  0.0238  0.0024 </r>
       </set>
       <set comment="band 2">
        <r>  0.3044  0.0278  0.0037 </r>
        <r>  0.3044  0.0278  0.0037 </r>
       </set>
       <set comment="band 3">
        <r>  0.0107  0.1900  0.0067 </r>
        <r>  0.0107  0.1900  0.0067 </r>
       </set>
       <set comment="band 4">
        <r>  0.0303  0.1914  0.0031 </r>
        <r>  0.0303  0.1914  0.0031 </r>
       </set>
       <set comment="band 5">
        <r>  0.0395  0.2097  0.0018 </r>
        <r>  0.0395  0.2097  0.0018 </r>
       </set>
       <set comment="band 6">
        <r>  0.0016  0.1766  0.0162 </r>
        <r>  0.0016  0.1766  0.0162 </r>
       </set>
       <set comment="band 7">
        <r>  0.0183  0.1731  0.0163 </r>
        <r>  0.0183  0.1731  0.0163 </r>
       </set>
       <set comment="band 8">
        <r>  0.0293  0.2277  0.0130 </r>
        <r>  0.0293  0.2277  0.0130 </r>
       </set>
       <set comment="band 9">
        <r>  0.0024  0.0460  0.0594 </r>
        <r>  0.0024  0.0460  0.0594 </r>
       </set>
       <set comment="band 10">
        <r>  0.0056  0.0179  0.0109 </r>
        <r>  0.0056  0.0179  0.0109 </r>
       </set>
       <set comment="band 11">
        <r>  0.0000  0.0307  0.0273 </r>
        <r>  0.0000  0.0307  0.0273 </r>
       </set>
       <set comment="band 12">
        <r>  0.0018  0.0450  0.0559 </r>
        <r>  0.0018  0.0450  0.0559 </r>
       </set>
       <set comment="band 13">
        <r>  0.0008  0.0353  0.0306 </r>
        <r>  0.0008  0.0353  0.0306 </r>
       </set>
       <set comment="band 14">
        <r>  0.0052  0.0158  0.0123 </r>
        <r>  0.0052  0.0158  0.0123 </r>
       </set>
       <set comment="band 15">
        <r>  0.0020  0.0161  0.0180 </r>
        <r>  0.0020  0.0161  0.0180 </r>
       </set>
       <set comment="band 16">
        <r>  0.0036  0.0151  0.0120 </r>
        <r>  0.0036  0.0151  0.0120 </r>
       </set>
      </set>
      <set comment="kpoint 79">
       <set comment="band 1">
        <r>  0.2849  0.0238  0.0024 </r>
        <r>  0.2849  0.0238  0.0024 </r>
       </set>
       <set comment="band 2">
        <r>  0.3045  0.0278  0.0037 </r>
        <r>  0.3045  0.0278  0.0037 </r>
       </set>
       <set comment="band 3">
        <r>  0.0106  0.1902  0.0067 </r>
        <r>  0.0106  0.1902  0.0067 </r>
       </set>
       <set comment="band 4">
        <r>  0.0301  0.1912  0.0031 </r>
        <r>  0.0301  0.1912  0.0031 </r>
       </set>
       <set comment="band 5">
        <r>  0.0396  0.2099  0.0018 </r>
        <r>  0.0396  0.2099  0.0018 </r>
       </set>
       <set comment="band 6">
        <r>  0.0014  0.1762  0.0163 </r>
        <r>  0.0014  0.1762  0.0163 </r>
       </set>
       <set comment="band 7">
        <r>  0.0182  0.1753  0.0160 </r>
        <r>  0.0182  0.1753  0.0160 </r>
       </set>
       <set comment="band 8">
        <r>  0.0297  0.2262  0.0130 </r>
        <r>  0.0297  0.2262  0.0130 </r>
       </set>
       <set comment="band 9">
        <r>  0.0023  0.0474  0.0592 </r>
        <r>  0.0023  0.0474  0.0592 </r>
       </set>
       <set comment="band 10">
        <r>  0.0057  0.0182  0.0111 </r>
        <r>  0.0057  0.0182  0.0111 </r>
       </set>
       <set comment="band 11">
        <r>  0.0001  0.0303  0.0277 </r>
        <r>  0.0001  0.0303  0.0277 </r>
       </set>
       <set comment="band 12">
        <r>  0.0019  0.0453  0.0562 </r>
        <r>  0.0019  0.0453  0.0562 </r>
       </set>
       <set comment="band 13">
        <r>  0.0008  0.0336  0.0303 </r>
        <r>  0.0008  0.0336  0.0303 </r>
       </set>
       <set comment="band 14">
        <r>  0.0053  0.0156  0.0124 </r>
        <r>  0.0053  0.0156  0.0124 </r>
       </set>
       <set comment="band 15">
        <r>  0.0019  0.0161  0.0178 </r>
        <r>  0.0019  0.0161  0.0178 </r>
       </set>
       <set comment="band 16">
        <r>  0.0036  0.0148  0.0120 </r>
        <r>  0.0036  0.0148  0.0120 </r>
       </set>
      </set>
      <set comment="kpoint 80">
       <set comment="band 1">
        <r>  0.2922  0.0236  0.0029 </r>
        <r>  0.2922  0.0236  0.0029 </r>
       </set>
       <set comment="band 2">
        <r>  0.2943  0.0299  0.0034 </r>
        <r>  0.2943  0.0299  0.0034 </r>
       </set>
       <set comment="band 3">
        <r>  0.0112  0.1876  0.0063 </r>
        <r>  0.0112  0.1876  0.0063 </r>
       </set>
       <set comment="band 4">
        <r>  0.0350  0.1968  0.0030 </r>
        <r>  0.0350  0.1968  0.0030 </r>
       </set>
       <set comment="band 5">
        <r>  0.0401  0.2004  0.0019 </r>
        <r>  0.0401  0.2004  0.0019 </r>
       </set>
       <set comment="band 6">
        <r>  0.0005  0.1723  0.0163 </r>
        <r>  0.0005  0.1723  0.0163 </r>
       </set>
       <set comment="band 7">
        <r>  0.0162  0.1853  0.0159 </r>
        <r>  0.0162  0.1853  0.0159 </r>
       </set>
       <set comment="band 8">
        <r>  0.0272  0.2115  0.0150 </r>
        <r>  0.0272  0.2115  0.0150 </r>
       </set>
       <set comment="band 9">
        <r>  0.0041  0.0332  0.0656 </r>
        <r>  0.0041  0.0332  0.0656 </r>
       </set>
       <set comment="band 10">
        <r>  0.0009  0.0358  0.0473 </r>
        <r>  0.0009  0.0358  0.0473 </r>
       </set>
       <set comment="band 11">
        <r>  0.0046  0.0084  0.0118 </r>
        <r>  0.0046  0.0084  0.0118 </r>
       </set>
       <set comment="band 12">
        <r>  0.0054  0.0329  0.0029 </r>
        <r>  0.0054  0.0329  0.0029 </r>
       </set>
       <set comment="band 13">
        <r>  0.0000  0.0611  0.0108 </r>
        <r>  0.0000  0.0611  0.0108 </r>
       </set>
       <set comment="band 14">
        <r>  0.0001  0.0010  0.0108 </r>
        <r>  0.0001  0.0010  0.0108 </r>
       </set>
       <set comment="band 15">
        <r>  0.0007  0.0553  0.0231 </r>
        <r>  0.0007  0.0553  0.0231 </r>
       </set>
       <set comment="band 16">
        <r>  0.0021  0.0763  0.0735 </r>
        <r>  0.0021  0.0763  0.0735 </r>
       </set>
      </set>
      <set comment="kpoint 81">
       <set comment="band 1">
        <r>  0.2925  0.0236  0.0029 </r>
        <r>  0.2925  0.0236  0.0029 </r>
       </set>
       <set comment="band 2">
        <r>  0.2944  0.0297  0.0033 </r>
        <r>  0.2944  0.0297  0.0033 </r>
       </set>
       <set comment="band 3">
        <r>  0.0110  0.1877  0.0063 </r>
        <r>  0.0110  0.1877  0.0063 </r>
       </set>
       <set comment="band 4">
        <r>  0.0350  0.1967  0.0030 </r>
        <r>  0.0350  0.1967  0.0030 </r>
       </set>
       <set comment="band 5">
        <r>  0.0399  0.2008  0.0019 </r>
        <r>  0.0399  0.2008  0.0019 </r>
       </set>
       <set comment="band 6">
        <r>  0.0004  0.1721  0.0163 </r>
        <r>  0.0004  0.1721  0.0163 </r>
       </set>
       <set comment="band 7">
        <r>  0.0163  0.1871  0.0157 </r>
        <r>  0.0163  0.1871  0.0157 </r>
       </set>
       <set comment="band 8">
        <r>  0.0274  0.2104  0.0152 </r>
        <r>  0.0274  0.2104  0.0152 </r>
       </set>
       <set comment="band 9">
        <r>  0.0039  0.0326  0.0657 </r>
        <r>  0.0039  0.0326  0.0657 </r>
       </set>
       <set comment="band 10">
        <r>  0.0009  0.0354  0.0473 </r>
        <r>  0.0009  0.0354  0.0473 </r>
       </set>
       <set comment="band 11">
        <r>  0.0046  0.0084  0.0118 </r>
        <r>  0.0046  0.0084  0.0118 </r>
       </set>
       <set comment="band 12">
        <r>  0.0053  0.0357  0.0032 </r>
        <r>  0.0053  0.0357  0.0032 </r>
       </set>
       <set comment="band 13">
        <r>  0.0001  0.0588  0.0106 </r>
        <r>  0.0001  0.0588  0.0106 </r>
       </set>
       <set comment="band 14">
        <r>  0.0001  0.0009  0.0107 </r>
        <r>  0.0001  0.0009  0.0107 </r>
       </set>
       <set comment="band 15">
        <r>  0.0006  0.0550  0.0232 </r>
        <r>  0.0006  0.0550  0.0232 </r>
       </set>
       <set comment="band 16">
        <r>  0.0022  0.0762  0.0728 </r>
        <r>  0.0022  0.0762  0.0728 </r>
       </set>
      </set>
      <set comment="kpoint 82">
       <set comment="band 1">
        <r>  0.2928  0.0235  0.0029 </r>
        <r>  0.2928  0.0235  0.0029 </r>
       </set>
       <set comment="band 2">
        <r>  0.2945  0.0295  0.0033 </r>
        <r>  0.2945  0.0295  0.0033 </r>
       </set>
       <set comment="band 3">
        <r>  0.0107  0.1877  0.0063 </r>
        <r>  0.0107  0.1877  0.0063 </r>
       </set>
       <set comment="band 4">
        <r>  0.0349  0.1966  0.0031 </r>
        <r>  0.0349  0.1966  0.0031 </r>
       </set>
       <set comment="band 5">
        <r>  0.0398  0.2012  0.0019 </r>
        <r>  0.0398  0.2012  0.0019 </r>
       </set>
       <set comment="band 6">
        <r>  0.0004  0.1719  0.0163 </r>
        <r>  0.0004  0.1719  0.0163 </r>
       </set>
       <set comment="band 7">
        <r>  0.0157  0.1859  0.0158 </r>
        <r>  0.0157  0.1859  0.0158 </r>
       </set>
       <set comment="band 8">
        <r>  0.0282  0.2123  0.0152 </r>
        <r>  0.0282  0.2123  0.0152 </r>
       </set>
       <set comment="band 9">
        <r>  0.0038  0.0321  0.0658 </r>
        <r>  0.0038  0.0321  0.0658 </r>
       </set>
       <set comment="band 10">
        <r>  0.0009  0.0350  0.0474 </r>
        <r>  0.0009  0.0350  0.0474 </r>
       </set>
       <set comment="band 11">
        <r>  0.0046  0.0082  0.0119 </r>
        <r>  0.0046  0.0082  0.0119 </r>
       </set>
       <set comment="band 12">
        <r>  0.0052  0.0385  0.0035 </r>
        <r>  0.0052  0.0385  0.0035 </r>
       </set>
       <set comment="band 13">
        <r>  0.0002  0.0565  0.0103 </r>
        <r>  0.0002  0.0565  0.0103 </r>
       </set>
       <set comment="band 14">
        <r>  0.0001  0.0009  0.0106 </r>
        <r>  0.0001  0.0009  0.0106 </r>
       </set>
       <set comment="band 15">
        <r>  0.0006  0.0547  0.0233 </r>
        <r>  0.0006  0.0547  0.0233 </r>
       </set>
       <set comment="band 16">
        <r>  0.0024  0.0760  0.0720 </r>
        <r>  0.0024  0.0760  0.0720 </r>
       </set>
      </set>
      <set comment="kpoint 83">
       <set comment="band 1">
        <r>  0.2919  0.0252  0.0030 </r>
        <r>  0.2919  0.0252  0.0030 </r>
       </set>
       <set comment="band 2">
        <r>  0.2994  0.0269  0.0034 </r>
        <r>  0.2994  0.0269  0.0034 </r>
       </set>
       <set comment="band 3">
        <r>  0.0018  0.1893  0.0065 </r>
        <r>  0.0018  0.1893  0.0065 </r>
       </set>
       <set comment="band 4">
        <r>  0.0397  0.1943  0.0024 </r>
        <r>  0.0397  0.1943  0.0024 </r>
       </set>
       <set comment="band 5">
        <r>  0.0420  0.2021  0.0020 </r>
        <r>  0.0420  0.2021  0.0020 </r>
       </set>
       <set comment="band 6">
        <r>  0.0003  0.1654  0.0159 </r>
        <r>  0.0003  0.1654  0.0159 </r>
       </set>
       <set comment="band 7">
        <r>  0.0180  0.1863  0.0156 </r>
        <r>  0.0180  0.1863  0.0156 </r>
       </set>
       <set comment="band 8">
        <r>  0.0229  0.2161  0.0126 </r>
        <r>  0.0229  0.2161  0.0126 </r>
       </set>
       <set comment="band 9">
        <r>  0.0000  0.0210  0.0494 </r>
        <r>  0.0000  0.0210  0.0494 </r>
       </set>
       <set comment="band 10">
        <r>  0.0115  0.0608  0.0392 </r>
        <r>  0.0115  0.0608  0.0392 </r>
       </set>
       <set comment="band 11">
        <r>  0.0038  0.0819  0.0529 </r>
        <r>  0.0038  0.0819  0.0529 </r>
       </set>
       <set comment="band 12">
        <r>  0.0003  0.0268  0.0284 </r>
        <r>  0.0003  0.0268  0.0284 </r>
       </set>
       <set comment="band 13">
        <r>  0.0020  0.0074  0.0114 </r>
        <r>  0.0020  0.0074  0.0114 </r>
       </set>
       <set comment="band 14">
        <r>  0.0048  0.0344  0.0338 </r>
        <r>  0.0048  0.0344  0.0338 </r>
       </set>
       <set comment="band 15">
        <r>  0.0006  0.0270  0.0045 </r>
        <r>  0.0006  0.0270  0.0045 </r>
       </set>
       <set comment="band 16">
        <r>  0.0003  0.0471  0.0313 </r>
        <r>  0.0003  0.0471  0.0313 </r>
       </set>
      </set>
      <set comment="kpoint 84">
       <set comment="band 1">
        <r>  0.2926  0.0251  0.0030 </r>
        <r>  0.2926  0.0251  0.0030 </r>
       </set>
       <set comment="band 2">
        <r>  0.2992  0.0267  0.0034 </r>
        <r>  0.2992  0.0267  0.0034 </r>
       </set>
       <set comment="band 3">
        <r>  0.0014  0.1894  0.0065 </r>
        <r>  0.0014  0.1894  0.0065 </r>
       </set>
       <set comment="band 4">
        <r>  0.0396  0.1940  0.0024 </r>
        <r>  0.0396  0.1940  0.0024 </r>
       </set>
       <set comment="band 5">
        <r>  0.0420  0.2027  0.0020 </r>
        <r>  0.0420  0.2027  0.0020 </r>
       </set>
       <set comment="band 6">
        <r>  0.0002  0.1651  0.0159 </r>
        <r>  0.0002  0.1651  0.0159 </r>
       </set>
       <set comment="band 7">
        <r>  0.0176  0.1884  0.0153 </r>
        <r>  0.0176  0.1884  0.0153 </r>
       </set>
       <set comment="band 8">
        <r>  0.0237  0.2150  0.0127 </r>
        <r>  0.0237  0.2150  0.0127 </r>
       </set>
       <set comment="band 9">
        <r>  0.0000  0.0207  0.0502 </r>
        <r>  0.0000  0.0207  0.0502 </r>
       </set>
       <set comment="band 10">
        <r>  0.0119  0.0598  0.0376 </r>
        <r>  0.0119  0.0598  0.0376 </r>
       </set>
       <set comment="band 11">
        <r>  0.0035  0.0817  0.0532 </r>
        <r>  0.0035  0.0817  0.0532 </r>
       </set>
       <set comment="band 12">
        <r>  0.0002  0.0279  0.0300 </r>
        <r>  0.0002  0.0279  0.0300 </r>
       </set>
       <set comment="band 13">
        <r>  0.0018  0.0070  0.0108 </r>
        <r>  0.0018  0.0070  0.0108 </r>
       </set>
       <set comment="band 14">
        <r>  0.0049  0.0311  0.0316 </r>
        <r>  0.0049  0.0311  0.0316 </r>
       </set>
       <set comment="band 15">
        <r>  0.0007  0.0271  0.0045 </r>
        <r>  0.0007  0.0271  0.0045 </r>
       </set>
       <set comment="band 16">
        <r>  0.0002  0.0482  0.0318 </r>
        <r>  0.0002  0.0482  0.0318 </r>
       </set>
      </set>
      <set comment="kpoint 85">
       <set comment="band 1">
        <r>  0.2923  0.0252  0.0030 </r>
        <r>  0.2923  0.0252  0.0030 </r>
       </set>
       <set comment="band 2">
        <r>  0.2992  0.0268  0.0034 </r>
        <r>  0.2992  0.0268  0.0034 </r>
       </set>
       <set comment="band 3">
        <r>  0.0016  0.1894  0.0065 </r>
        <r>  0.0016  0.1894  0.0065 </r>
       </set>
       <set comment="band 4">
        <r>  0.0397  0.1941  0.0024 </r>
        <r>  0.0397  0.1941  0.0024 </r>
       </set>
       <set comment="band 5">
        <r>  0.0420  0.2024  0.0020 </r>
        <r>  0.0420  0.2024  0.0020 </r>
       </set>
       <set comment="band 6">
        <r>  0.0003  0.1652  0.0159 </r>
        <r>  0.0003  0.1652  0.0159 </r>
       </set>
       <set comment="band 7">
        <r>  0.0178  0.1874  0.0154 </r>
        <r>  0.0178  0.1874  0.0154 </r>
       </set>
       <set comment="band 8">
        <r>  0.0233  0.2155  0.0126 </r>
        <r>  0.0233  0.2155  0.0126 </r>
       </set>
       <set comment="band 9">
        <r>  0.0000  0.0208  0.0498 </r>
        <r>  0.0000  0.0208  0.0498 </r>
       </set>
       <set comment="band 10">
        <r>  0.0117  0.0603  0.0384 </r>
        <r>  0.0117  0.0603  0.0384 </r>
       </set>
       <set comment="band 11">
        <r>  0.0037  0.0819  0.0530 </r>
        <r>  0.0037  0.0819  0.0530 </r>
       </set>
       <set comment="band 12">
        <r>  0.0002  0.0274  0.0292 </r>
        <r>  0.0002  0.0274  0.0292 </r>
       </set>
       <set comment="band 13">
        <r>  0.0019  0.0072  0.0111 </r>
        <r>  0.0019  0.0072  0.0111 </r>
       </set>
       <set comment="band 14">
        <r>  0.0048  0.0327  0.0327 </r>
        <r>  0.0048  0.0327  0.0327 </r>
       </set>
       <set comment="band 15">
        <r>  0.0006  0.0270  0.0045 </r>
        <r>  0.0006  0.0270  0.0045 </r>
       </set>
       <set comment="band 16">
        <r>  0.0003  0.0477  0.0315 </r>
        <r>  0.0003  0.0477  0.0315 </r>
       </set>
      </set>
     </set>
    </set>
   </array>
  </projected>
 </calculation>
 <structure name="finalpos" >
  <crystal>
   <varray name="basis" >
    <v>       3.60689254       0.00000000       0.00000000 </v>
    <v>      -1.80344627       3.12366057       0.00000000 </v>
    <v>       0.00000000       0.00000000      16.00000000 </v>
   </varray>
   <i name="volume">    180.26732792 </i>
   <varray name="rec_basis" >
    <v>       0.27724696       0.16006861       0.00000000 </v>
    <v>       0.00000000       0.32013722       0.00000000 </v>
    <v>       0.00000000       0.00000000       0.06250000 </v>
   </varray>
  </crystal>
  <varray name="positions" >
   <v>       0.66862710       0.33333333       0.45634314 </v>
   <v>       0.33137290       0.66666667       0.54365686 </v>
  </varray>
 </structure>
</modeling>
