   2   2   1   0
  0.1172237E+03  0.4113367E-09  0.4113367E-09  0.1600000E-08  0.5000000E-15
  1.000000000000000E-004
  CAR 
 unknown system                          
      8.19549500    -14.60074280 6001     -2.21098709      1.00000000
    -14.601  0.0000E+00  0.0000E+00
    -14.597  0.0000E+00  0.0000E+00
    -14.593  0.0000E+00  0.0000E+00
    -14.589  0.0000E+00  0.0000E+00
    -14.586  0.0000E+00  0.0000E+00
    -14.582  0.0000E+00  0.0000E+00
    -14.578  0.0000E+00  0.0000E+00
    -14.574  0.0000E+00  0.0000E+00
    -14.570  0.0000E+00  0.0000E+00
    -14.567  0.0000E+00  0.0000E+00
    -14.563  0.0000E+00  0.0000E+00
    -14.559  0.0000E+00  0.0000E+00
    -14.555  0.0000E+00  0.0000E+00
    -14.551  0.0000E+00  0.0000E+00
    -14.548  0.0000E+00  0.0000E+00
    -14.544  0.0000E+00  0.0000E+00
    -14.540  0.0000E+00  0.0000E+00
    -14.536  0.0000E+00  0.0000E+00
    -14.532  0.0000E+00  0.0000E+00
    -14.529  0.0000E+00  0.0000E+00
    -14.525  0.0000E+00  0.0000E+00
    -14.521  0.0000E+00  0.0000E+00
    -14.517  0.0000E+00  0.0000E+00
    -14.513  0.0000E+00  0.0000E+00
    -14.510  0.0000E+00  0.0000E+00
    -14.506  0.0000E+00  0.0000E+00
    -14.502  0.0000E+00  0.0000E+00
    -14.498  0.0000E+00  0.0000E+00
    -14.494  0.0000E+00  0.0000E+00
    -14.491  0.0000E+00  0.0000E+00
    -14.487  0.0000E+00  0.0000E+00
    -14.483  0.0000E+00  0.0000E+00
    -14.479  0.0000E+00  0.0000E+00
    -14.475  0.0000E+00  0.0000E+00
    -14.472  0.0000E+00  0.0000E+00
    -14.468  0.0000E+00  0.0000E+00
    -14.464  0.0000E+00  0.0000E+00
    -14.460  0.0000E+00  0.0000E+00
    -14.456  0.0000E+00  0.0000E+00
    -14.453  0.0000E+00  0.0000E+00
    -14.449  0.0000E+00  0.0000E+00
    -14.445  0.0000E+00  0.0000E+00
    -14.441  0.0000E+00  0.0000E+00
    -14.437  0.0000E+00  0.0000E+00
    -14.434  0.0000E+00  0.0000E+00
    -14.430  0.0000E+00  0.0000E+00
    -14.426  0.0000E+00  0.0000E+00
    -14.422  0.0000E+00  0.0000E+00
    -14.418  0.0000E+00  0.0000E+00
    -14.415  0.0000E+00  0.0000E+00
    -14.411  0.0000E+00  0.0000E+00
    -14.407  0.0000E+00  0.0000E+00
    -14.403  0.0000E+00  0.0000E+00
    -14.399  0.0000E+00  0.0000E+00
    -14.396  0.0000E+00  0.0000E+00
    -14.392  0.0000E+00  0.0000E+00
    -14.388  0.0000E+00  0.0000E+00
    -14.384  0.0000E+00  0.0000E+00
    -14.380  0.0000E+00  0.0000E+00
    -14.377  0.0000E+00  0.0000E+00
    -14.373  0.0000E+00  0.0000E+00
    -14.369  0.0000E+00  0.0000E+00
    -14.365  0.0000E+00  0.0000E+00
    -14.361  0.0000E+00  0.0000E+00
    -14.358  0.0000E+00  0.0000E+00
    -14.354  0.0000E+00  0.0000E+00
    -14.350  0.0000E+00  0.0000E+00
    -14.346  0.0000E+00  0.0000E+00
    -14.342  0.0000E+00  0.0000E+00
    -14.339  0.0000E+00  0.0000E+00
    -14.335  0.0000E+00  0.0000E+00
    -14.331  0.0000E+00  0.0000E+00
    -14.327  0.0000E+00  0.0000E+00
    -14.323  0.0000E+00  0.0000E+00
    -14.320  0.0000E+00  0.0000E+00
    -14.316  0.0000E+00  0.0000E+00
    -14.312  0.0000E+00  0.0000E+00
    -14.308  0.0000E+00  0.0000E+00
    -14.304  0.0000E+00  0.0000E+00
    -14.301  0.0000E+00  0.0000E+00
    -14.297  0.0000E+00  0.0000E+00
    -14.293  0.0000E+00  0.0000E+00
    -14.289  0.0000E+00  0.0000E+00
    -14.285  0.0000E+00  0.0000E+00
    -14.282  0.0000E+00  0.0000E+00
    -14.278  0.0000E+00  0.0000E+00
    -14.274  0.0000E+00  0.0000E+00
    -14.270  0.0000E+00  0.0000E+00
    -14.266  0.0000E+00  0.0000E+00
    -14.263  0.0000E+00  0.0000E+00
    -14.259  0.0000E+00  0.0000E+00
    -14.255  0.0000E+00  0.0000E+00
    -14.251  0.0000E+00  0.0000E+00
    -14.247  0.0000E+00  0.0000E+00
    -14.244  0.0000E+00  0.0000E+00
    -14.240  0.0000E+00  0.0000E+00
    -14.236  0.0000E+00  0.0000E+00
    -14.232  0.0000E+00  0.0000E+00
    -14.228  0.0000E+00  0.0000E+00
    -14.225  0.0000E+00  0.0000E+00
    -14.221  0.0000E+00  0.0000E+00
    -14.217  0.0000E+00  0.0000E+00
    -14.213  0.0000E+00  0.0000E+00
    -14.209  0.0000E+00  0.0000E+00
    -14.206  0.0000E+00  0.0000E+00
    -14.202  0.0000E+00  0.0000E+00
    -14.198  0.0000E+00  0.0000E+00
    -14.194  0.0000E+00  0.0000E+00
    -14.190  0.0000E+00  0.0000E+00
    -14.187  0.0000E+00  0.0000E+00
    -14.183  0.0000E+00  0.0000E+00
    -14.179  0.0000E+00  0.0000E+00
    -14.175  0.0000E+00  0.0000E+00
    -14.171  0.0000E+00  0.0000E+00
    -14.168  0.0000E+00  0.0000E+00
    -14.164  0.0000E+00  0.0000E+00
    -14.160  0.0000E+00  0.0000E+00
    -14.156  0.0000E+00  0.0000E+00
    -14.152  0.0000E+00  0.0000E+00
    -14.149  0.0000E+00  0.0000E+00
    -14.145  0.0000E+00  0.0000E+00
    -14.141  0.0000E+00  0.0000E+00
    -14.137  0.0000E+00  0.0000E+00
    -14.133  0.0000E+00  0.0000E+00
    -14.130  0.0000E+00  0.0000E+00
    -14.126  0.0000E+00  0.0000E+00
    -14.122  0.0000E+00  0.0000E+00
    -14.118  0.0000E+00  0.0000E+00
    -14.114  0.0000E+00  0.0000E+00
    -14.111  0.0000E+00  0.0000E+00
    -14.107  0.0000E+00  0.0000E+00
    -14.103  0.0000E+00  0.0000E+00
    -14.099  0.0000E+00  0.0000E+00
    -14.095  0.0000E+00  0.0000E+00
    -14.092  0.0000E+00  0.0000E+00
    -14.088  0.0000E+00  0.0000E+00
    -14.084  0.0000E+00  0.0000E+00
    -14.080  0.0000E+00  0.0000E+00
    -14.076  0.0000E+00  0.0000E+00
    -14.073  0.0000E+00  0.0000E+00
    -14.069  0.0000E+00  0.0000E+00
    -14.065  0.0000E+00  0.0000E+00
    -14.061  0.0000E+00  0.0000E+00
    -14.057  0.0000E+00  0.0000E+00
    -14.054  0.0000E+00  0.0000E+00
    -14.050  0.0000E+00  0.0000E+00
    -14.046  0.0000E+00  0.0000E+00
    -14.042  0.0000E+00  0.0000E+00
    -14.038  0.0000E+00  0.0000E+00
    -14.035  0.0000E+00  0.0000E+00
    -14.031  0.0000E+00  0.0000E+00
    -14.027  0.0000E+00  0.0000E+00
    -14.023  0.0000E+00  0.0000E+00
    -14.019  0.0000E+00  0.0000E+00
    -14.016  0.0000E+00  0.0000E+00
    -14.012  0.0000E+00  0.0000E+00
    -14.008  0.0000E+00  0.0000E+00
    -14.004  0.0000E+00  0.0000E+00
    -14.000  0.0000E+00  0.0000E+00
    -13.997  0.0000E+00  0.0000E+00
    -13.993  0.0000E+00  0.0000E+00
    -13.989  0.0000E+00  0.0000E+00
    -13.985  0.0000E+00  0.0000E+00
    -13.981  0.0000E+00  0.0000E+00
    -13.978  0.0000E+00  0.0000E+00
    -13.974  0.0000E+00  0.0000E+00
    -13.970  0.0000E+00  0.0000E+00
    -13.966  0.0000E+00  0.0000E+00
    -13.962  0.0000E+00  0.0000E+00
    -13.959  0.0000E+00  0.0000E+00
    -13.955  0.0000E+00  0.0000E+00
    -13.951  0.0000E+00  0.0000E+00
    -13.947  0.0000E+00  0.0000E+00
    -13.943  0.0000E+00  0.0000E+00
    -13.940  0.0000E+00  0.0000E+00
    -13.936  0.0000E+00  0.0000E+00
    -13.932  0.0000E+00  0.0000E+00
    -13.928  0.0000E+00  0.0000E+00
    -13.924  0.0000E+00  0.0000E+00
    -13.921  0.0000E+00  0.0000E+00
    -13.917  0.0000E+00  0.0000E+00
    -13.913  0.0000E+00  0.0000E+00
    -13.909  0.0000E+00  0.0000E+00
    -13.905  0.0000E+00  0.0000E+00
    -13.902  0.0000E+00  0.0000E+00
    -13.898  0.0000E+00  0.0000E+00
    -13.894  0.0000E+00  0.0000E+00
    -13.890  0.0000E+00  0.0000E+00
    -13.886  0.0000E+00  0.0000E+00
    -13.883  0.0000E+00  0.0000E+00
    -13.879  0.0000E+00  0.0000E+00
    -13.875  0.0000E+00  0.0000E+00
    -13.871  0.0000E+00  0.0000E+00
    -13.867  0.0000E+00  0.0000E+00
    -13.864  0.0000E+00  0.0000E+00
    -13.860  0.0000E+00  0.0000E+00
    -13.856  0.0000E+00  0.0000E+00
    -13.852  0.0000E+00  0.0000E+00
    -13.848  0.0000E+00  0.0000E+00
    -13.845  0.0000E+00  0.0000E+00
    -13.841  0.0000E+00  0.0000E+00
    -13.837  0.0000E+00  0.0000E+00
    -13.833  0.0000E+00  0.0000E+00
    -13.829  0.0000E+00  0.0000E+00
    -13.826  0.0000E+00  0.0000E+00
    -13.822  0.0000E+00  0.0000E+00
    -13.818  0.0000E+00  0.0000E+00
    -13.814  0.0000E+00  0.0000E+00
    -13.810  0.0000E+00  0.0000E+00
    -13.807  0.0000E+00  0.0000E+00
    -13.803  0.0000E+00  0.0000E+00
    -13.799  0.0000E+00  0.0000E+00
    -13.795  0.0000E+00  0.0000E+00
    -13.791  0.0000E+00  0.0000E+00
    -13.788  0.0000E+00  0.0000E+00
    -13.784  0.0000E+00  0.0000E+00
    -13.780  0.0000E+00  0.0000E+00
    -13.776  0.0000E+00  0.0000E+00
    -13.772  0.0000E+00  0.0000E+00
    -13.769  0.0000E+00  0.0000E+00
    -13.765  0.0000E+00  0.0000E+00
    -13.761  0.0000E+00  0.0000E+00
    -13.757  0.0000E+00  0.0000E+00
    -13.753  0.0000E+00  0.0000E+00
    -13.750  0.0000E+00  0.0000E+00
    -13.746  0.0000E+00  0.0000E+00
    -13.742  0.0000E+00  0.0000E+00
    -13.738  0.0000E+00  0.0000E+00
    -13.734  0.0000E+00  0.0000E+00
    -13.731  0.0000E+00  0.0000E+00
    -13.727  0.0000E+00  0.0000E+00
    -13.723  0.0000E+00  0.0000E+00
    -13.719  0.0000E+00  0.0000E+00
    -13.715  0.0000E+00  0.0000E+00
    -13.712  0.0000E+00  0.0000E+00
    -13.708  0.0000E+00  0.0000E+00
    -13.704  0.0000E+00  0.0000E+00
    -13.700  0.0000E+00  0.0000E+00
    -13.696  0.0000E+00  0.0000E+00
    -13.693  0.0000E+00  0.0000E+00
    -13.689  0.0000E+00  0.0000E+00
    -13.685  0.0000E+00  0.0000E+00
    -13.681  0.0000E+00  0.0000E+00
    -13.677  0.0000E+00  0.0000E+00
    -13.674  0.0000E+00  0.0000E+00
    -13.670  0.0000E+00  0.0000E+00
    -13.666  0.0000E+00  0.0000E+00
    -13.662  0.0000E+00  0.0000E+00
    -13.658  0.0000E+00  0.0000E+00
    -13.655  0.0000E+00  0.0000E+00
    -13.651  0.0000E+00  0.0000E+00
    -13.647  0.0000E+00  0.0000E+00
    -13.643  0.0000E+00  0.0000E+00
    -13.640  0.0000E+00  0.0000E+00
    -13.636  0.0000E+00  0.0000E+00
    -13.632  0.0000E+00  0.0000E+00
    -13.628  0.0000E+00  0.0000E+00
    -13.624  0.0000E+00  0.0000E+00
    -13.621  0.5554E-14  0.2110E-16
    -13.617  0.3497E-12  0.1350E-14
    -13.613  0.1705E-10  0.6613E-13
    -13.609  0.6250E-09  0.2441E-11
    -13.605  0.1724E-07  0.6793E-10
    -13.602  0.3577E-06  0.1427E-08
    -13.598  0.5588E-05  0.2266E-07
    -13.594  0.6574E-04  0.2724E-06
    -13.590  0.5825E-03  0.2486E-05
    -13.586  0.3889E-02  0.1726E-04
    -13.583  0.1957E-01  0.9161E-04
    -13.579  0.7423E-01  0.3736E-03
    -13.575  0.2123E+00  0.1180E-02
    -13.571  0.4580E+00  0.2920E-02
    -13.567  0.7452E+00  0.5752E-02
    -13.564  0.9148E+00  0.9227E-02
    -13.560  0.8471E+00  0.1245E-01
    -13.556  0.5918E+00  0.1469E-01
    -13.552  0.3118E+00  0.1588E-01
    -13.548  0.1239E+00  0.1635E-01
    -13.545  0.3715E-01  0.1649E-01
    -13.541  0.8395E-02  0.1652E-01
    -13.537  0.1430E-02  0.1653E-01
    -13.533  0.1835E-03  0.1653E-01
    -13.529  0.1775E-04  0.1653E-01
    -13.526  0.1293E-05  0.1653E-01
    -13.522  0.7337E-07  0.1653E-01
    -13.518  0.7424E-07  0.1653E-01
    -13.514  0.1527E-05  0.1653E-01
    -13.510  0.2460E-04  0.1653E-01
    -13.507  0.2987E-03  0.1653E-01
    -13.503  0.2733E-02  0.1654E-01
    -13.499  0.1884E-01  0.1661E-01
    -13.495  0.9798E-01  0.1698E-01
    -13.491  0.3842E+00  0.1844E-01
    -13.488  0.1136E+01  0.2276E-01
    -13.484  0.2536E+01  0.3240E-01
    -13.480  0.4271E+01  0.4863E-01
    -13.476  0.5429E+01  0.6925E-01
    -13.472  0.5208E+01  0.8904E-01
    -13.469  0.3770E+01  0.1034E+00
    -13.465  0.2060E+01  0.1112E+00
    -13.461  0.8492E+00  0.1144E+00
    -13.457  0.2642E+00  0.1154E+00
    -13.453  0.6198E-01  0.1157E+00
    -13.450  0.1097E-01  0.1157E+00
    -13.446  0.1463E-02  0.1157E+00
    -13.442  0.1471E-03  0.1157E+00
    -13.438  0.1114E-04  0.1157E+00
    -13.434  0.6357E-06  0.1157E+00
    -13.431  0.2731E-07  0.1157E+00
    -13.427  0.8833E-09  0.1157E+00
    -13.423  0.2150E-10  0.1157E+00
    -13.419  0.3932E-12  0.1157E+00
    -13.415  0.4830E-14  0.1157E+00
    -13.412  0.0000E+00  0.1157E+00
    -13.408  0.0000E+00  0.1157E+00
    -13.404  0.0000E+00  0.1157E+00
    -13.400  0.0000E+00  0.1157E+00
    -13.396  0.0000E+00  0.1157E+00
    -13.393  0.0000E+00  0.1157E+00
    -13.389  0.0000E+00  0.1157E+00
    -13.385  0.0000E+00  0.1157E+00
    -13.381  0.0000E+00  0.1157E+00
    -13.377  0.0000E+00  0.1157E+00
    -13.374  0.0000E+00  0.1157E+00
    -13.370  0.0000E+00  0.1157E+00
    -13.366  0.0000E+00  0.1157E+00
    -13.362  0.9660E-15  0.1157E+00
    -13.358  0.8646E-13  0.1157E+00
    -13.355  0.5113E-11  0.1157E+00
    -13.351  0.2289E-09  0.1157E+00
    -13.347  0.7727E-08  0.1157E+00
    -13.343  0.1968E-06  0.1157E+00
    -13.339  0.3784E-05  0.1157E+00
    -13.336  0.5495E-04  0.1157E+00
    -13.332  0.6027E-03  0.1157E+00
    -13.328  0.4998E-02  0.1157E+00
    -13.324  0.3134E-01  0.1158E+00
    -13.320  0.1486E+00  0.1164E+00
    -13.317  0.5335E+00  0.1184E+00
    -13.313  0.1449E+01  0.1239E+00
    -13.309  0.2982E+01  0.1353E+00
    -13.305  0.4646E+01  0.1529E+00
    -13.301  0.5483E+01  0.1738E+00
    -13.298  0.4900E+01  0.1924E+00
    -13.294  0.3317E+01  0.2050E+00
    -13.290  0.1701E+01  0.2114E+00
    -13.286  0.6601E+00  0.2139E+00
    -13.282  0.1939E+00  0.2147E+00
    -13.279  0.4312E-01  0.2148E+00
    -13.275  0.7253E-02  0.2149E+00
    -13.271  0.9224E-03  0.2149E+00
    -13.267  0.8867E-04  0.2149E+00
    -13.263  0.6440E-05  0.2149E+00
    -13.260  0.3879E-06  0.2149E+00
    -13.256  0.7840E-06  0.2149E+00
    -13.252  0.1286E-04  0.2149E+00
    -13.248  0.1626E-03  0.2149E+00
    -13.244  0.1558E-02  0.2149E+00
    -13.241  0.1130E-01  0.2149E+00
    -13.237  0.6222E-01  0.2152E+00
    -13.233  0.2599E+00  0.2161E+00
    -13.229  0.8246E+00  0.2193E+00
    -13.225  0.1988E+01  0.2268E+00
    -13.222  0.3644E+01  0.2407E+00
    -13.218  0.5079E+01  0.2600E+00
    -13.214  0.5386E+01  0.2804E+00
    -13.210  0.4345E+01  0.2970E+00
    -13.206  0.2667E+01  0.3071E+00
    -13.203  0.1245E+01  0.3118E+00
    -13.199  0.4416E+00  0.3135E+00
    -13.195  0.1191E+00  0.3139E+00
    -13.191  0.2438E-01  0.3140E+00
    -13.187  0.3787E-02  0.3140E+00
    -13.184  0.4462E-03  0.3140E+00
    -13.180  0.3983E-04  0.3140E+00
    -13.176  0.2692E-05  0.3140E+00
    -13.172  0.1376E-06  0.3140E+00
    -13.168  0.5320E-08  0.3140E+00
    -13.165  0.1553E-09  0.3140E+00
    -13.161  0.3423E-11  0.3140E+00
    -13.157  0.5796E-13  0.3140E+00
    -13.153  0.0000E+00  0.3140E+00
    -13.149  0.0000E+00  0.3140E+00
    -13.146  0.0000E+00  0.3140E+00
    -13.142  0.0000E+00  0.3140E+00
    -13.138  0.0000E+00  0.3140E+00
    -13.134  0.0000E+00  0.3140E+00
    -13.130  0.0000E+00  0.3140E+00
    -13.127  0.0000E+00  0.3140E+00
    -13.123  0.0000E+00  0.3140E+00
    -13.119  0.0000E+00  0.3140E+00
    -13.115  0.0000E+00  0.3140E+00
    -13.111  0.0000E+00  0.3140E+00
    -13.108  0.0000E+00  0.3140E+00
    -13.104  0.0000E+00  0.3140E+00
    -13.100  0.0000E+00  0.3140E+00
    -13.096  0.0000E+00  0.3140E+00
    -13.092  0.0000E+00  0.3140E+00
    -13.089  0.0000E+00  0.3140E+00
    -13.085  0.0000E+00  0.3140E+00
    -13.081  0.0000E+00  0.3140E+00
    -13.077  0.0000E+00  0.3140E+00
    -13.073  0.0000E+00  0.3140E+00
    -13.070  0.0000E+00  0.3140E+00
    -13.066  0.0000E+00  0.3140E+00
    -13.062  0.0000E+00  0.3140E+00
    -13.058  0.0000E+00  0.3140E+00
    -13.054  0.0000E+00  0.3140E+00
    -13.051  0.0000E+00  0.3140E+00
    -13.047  0.0000E+00  0.3140E+00
    -13.043  0.0000E+00  0.3140E+00
    -13.039  0.0000E+00  0.3140E+00
    -13.035  0.0000E+00  0.3140E+00
    -13.032  0.0000E+00  0.3140E+00
    -13.028  0.0000E+00  0.3140E+00
    -13.024  0.4830E-15  0.3140E+00
    -13.020  0.7293E-13  0.3140E+00
    -13.016  0.4372E-11  0.3140E+00
    -13.013  0.1989E-09  0.3140E+00
    -13.009  0.6836E-08  0.3140E+00
    -13.005  0.1776E-06  0.3140E+00
    -13.001  0.3493E-05  0.3140E+00
    -12.997  0.5205E-04  0.3140E+00
    -12.994  0.5887E-03  0.3141E+00
    -12.990  0.5061E-02  0.3141E+00
    -12.986  0.3315E-01  0.3142E+00
    -12.982  0.1658E+00  0.3148E+00
    -12.978  0.6348E+00  0.3172E+00
    -12.975  0.1866E+01  0.3243E+00
    -12.971  0.4222E+01  0.3404E+00
    -12.967  0.7374E+01  0.3684E+00
    -12.963  0.9957E+01  0.4062E+00
    -12.959  0.1041E+02  0.4458E+00
    -12.956  0.8424E+01  0.4778E+00
    -12.952  0.5273E+01  0.4978E+00
    -12.948  0.2549E+01  0.5075E+00
    -12.944  0.9494E+00  0.5111E+00
    -12.940  0.2716E+00  0.5121E+00
    -12.937  0.5955E-01  0.5124E+00
    -12.933  0.9975E-02  0.5124E+00
    -12.929  0.1274E-02  0.5124E+00
    -12.925  0.1237E-03  0.5124E+00
    -12.921  0.9127E-05  0.5124E+00
    -12.918  0.5104E-06  0.5124E+00
    -12.914  0.2161E-07  0.5124E+00
    -12.910  0.6919E-09  0.5124E+00
    -12.906  0.1674E-10  0.5124E+00
    -12.902  0.3062E-12  0.5124E+00
    -12.899  0.3864E-14  0.5124E+00
    -12.895  0.0000E+00  0.5124E+00
    -12.891  0.0000E+00  0.5124E+00
    -12.887  0.0000E+00  0.5124E+00
    -12.883  0.0000E+00  0.5124E+00
    -12.880  0.0000E+00  0.5124E+00
    -12.876  0.0000E+00  0.5124E+00
    -12.872  0.0000E+00  0.5124E+00
    -12.868  0.0000E+00  0.5124E+00
    -12.864  0.0000E+00  0.5124E+00
    -12.861  0.9660E-15  0.5124E+00
    -12.857  0.6037E-13  0.5124E+00
    -12.853  0.3518E-11  0.5124E+00
    -12.849  0.1537E-09  0.5124E+00
    -12.845  0.5057E-08  0.5124E+00
    -12.842  0.1255E-06  0.5124E+00
    -12.838  0.2352E-05  0.5124E+00
    -12.834  0.3333E-04  0.5124E+00
    -12.830  0.3577E-03  0.5124E+00
    -12.826  0.2915E-02  0.5124E+00
    -12.823  0.1808E-01  0.5125E+00
    -12.819  0.8578E-01  0.5128E+00
    -12.815  0.3126E+00  0.5140E+00
    -12.811  0.8808E+00  0.5173E+00
    -12.807  0.1934E+01  0.5247E+00
    -12.804  0.3336E+01  0.5374E+00
    -12.800  0.4560E+01  0.5547E+00
    -12.796  0.4967E+01  0.5736E+00
    -12.792  0.4323E+01  0.5900E+00
    -12.788  0.3000E+01  0.6014E+00
    -12.785  0.1650E+01  0.6076E+00
    -12.781  0.7138E+00  0.6104E+00
    -12.777  0.2406E+00  0.6113E+00
    -12.773  0.6272E-01  0.6115E+00
    -12.769  0.1256E-01  0.6116E+00
    -12.766  0.1921E-02  0.6116E+00
    -12.762  0.2236E-03  0.6116E+00
    -12.758  0.1975E-04  0.6116E+00
    -12.754  0.1320E-05  0.6116E+00
    -12.750  0.6670E-07  0.6116E+00
    -12.747  0.2543E-08  0.6116E+00
    -12.743  0.7308E-10  0.6116E+00
    -12.739  0.1581E-11  0.6116E+00
    -12.735  0.2608E-13  0.6116E+00
    -12.731  0.0000E+00  0.6116E+00
    -12.728  0.0000E+00  0.6116E+00
    -12.724  0.0000E+00  0.6116E+00
    -12.720  0.0000E+00  0.6116E+00
    -12.716  0.0000E+00  0.6116E+00
    -12.712  0.0000E+00  0.6116E+00
    -12.709  0.0000E+00  0.6116E+00
    -12.705  0.0000E+00  0.6116E+00
    -12.701  0.0000E+00  0.6116E+00
    -12.697  0.0000E+00  0.6116E+00
    -12.693  0.0000E+00  0.6116E+00
    -12.690  0.0000E+00  0.6116E+00
    -12.686  0.0000E+00  0.6116E+00
    -12.682  0.0000E+00  0.6116E+00
    -12.678  0.0000E+00  0.6116E+00
    -12.674  0.0000E+00  0.6116E+00
    -12.671  0.0000E+00  0.6116E+00
    -12.667  0.0000E+00  0.6116E+00
    -12.663  0.0000E+00  0.6116E+00
    -12.659  0.0000E+00  0.6116E+00
    -12.655  0.0000E+00  0.6116E+00
    -12.652  0.0000E+00  0.6116E+00
    -12.648  0.0000E+00  0.6116E+00
    -12.644  0.0000E+00  0.6116E+00
    -12.640  0.0000E+00  0.6116E+00
    -12.636  0.0000E+00  0.6116E+00
    -12.633  0.0000E+00  0.6116E+00
    -12.629  0.0000E+00  0.6116E+00
    -12.625  0.0000E+00  0.6116E+00
    -12.621  0.0000E+00  0.6116E+00
    -12.617  0.0000E+00  0.6116E+00
    -12.614  0.5313E-14  0.6116E+00
    -12.610  0.3676E-12  0.6116E+00
    -12.606  0.1878E-10  0.6116E+00
    -12.602  0.7223E-09  0.6116E+00
    -12.598  0.2093E-07  0.6116E+00
    -12.595  0.4569E-06  0.6116E+00
    -12.591  0.7528E-05  0.6116E+00
    -12.587  0.9372E-04  0.6116E+00
    -12.583  0.8834E-03  0.6116E+00
    -12.579  0.6320E-02  0.6116E+00
    -12.576  0.3444E-01  0.6117E+00
    -12.572  0.1437E+00  0.6123E+00
    -12.568  0.4626E+00  0.6140E+00
    -12.564  0.1159E+01  0.6184E+00
    -12.560  0.2286E+01  0.6271E+00
    -12.557  0.3599E+01  0.6408E+00
    -12.553  0.4577E+01  0.6582E+00
    -12.549  0.4737E+01  0.6762E+00
    -12.545  0.3990E+01  0.6913E+00
    -12.541  0.2717E+01  0.7017E+00
    -12.538  0.1477E+01  0.7073E+00
    -12.534  0.6335E+00  0.7097E+00
    -12.530  0.2118E+00  0.7105E+00
    -12.526  0.5468E-01  0.7107E+00
    -12.522  0.1083E-01  0.7107E+00
    -12.519  0.1643E-02  0.7107E+00
    -12.515  0.2871E-03  0.7107E+00
    -12.511  0.9972E-03  0.7107E+00
    -12.507  0.7373E-02  0.7108E+00
    -12.503  0.4230E-01  0.7109E+00
    -12.500  0.1861E+00  0.7116E+00
    -12.496  0.6304E+00  0.7140E+00
    -12.492  0.1658E+01  0.7203E+00
    -12.488  0.3425E+01  0.7333E+00
    -12.484  0.5654E+01  0.7548E+00
    -12.481  0.7638E+01  0.7839E+00
    -12.477  0.8660E+01  0.8168E+00
    -12.473  0.8371E+01  0.8486E+00
    -12.469  0.6882E+01  0.8747E+00
    -12.465  0.4718E+01  0.8926E+00
    -12.462  0.2630E+01  0.9026E+00
    -12.458  0.1165E+01  0.9070E+00
    -12.454  0.4036E+00  0.9086E+00
    -12.450  0.1082E+00  0.9090E+00
    -12.446  0.2229E-01  0.9091E+00
    -12.443  0.3512E-02  0.9091E+00
    -12.439  0.4219E-03  0.9091E+00
    -12.435  0.3853E-04  0.9091E+00
    -12.431  0.2670E-05  0.9091E+00
    -12.428  0.1402E-06  0.9091E+00
    -12.424  0.5567E-08  0.9091E+00
    -12.420  0.1670E-09  0.9091E+00
    -12.416  0.3782E-11  0.9091E+00
    -12.412  0.6472E-13  0.9091E+00
    -12.409  0.9660E-15  0.9091E+00
    -12.405  0.0000E+00  0.9091E+00
    -12.401  0.0000E+00  0.9091E+00
    -12.397  0.0000E+00  0.9091E+00
    -12.393  0.0000E+00  0.9091E+00
    -12.390  0.0000E+00  0.9091E+00
    -12.386  0.0000E+00  0.9091E+00
    -12.382  0.0000E+00  0.9091E+00
    -12.378  0.0000E+00  0.9091E+00
    -12.374  0.0000E+00  0.9091E+00
    -12.371  0.0000E+00  0.9091E+00
    -12.367  0.0000E+00  0.9091E+00
    -12.363  0.0000E+00  0.9091E+00
    -12.359  0.0000E+00  0.9091E+00
    -12.355  0.0000E+00  0.9091E+00
    -12.352  0.0000E+00  0.9091E+00
    -12.348  0.0000E+00  0.9091E+00
    -12.344  0.0000E+00  0.9091E+00
    -12.340  0.0000E+00  0.9091E+00
    -12.336  0.0000E+00  0.9091E+00
    -12.333  0.0000E+00  0.9091E+00
    -12.329  0.0000E+00  0.9091E+00
    -12.325  0.1401E-13  0.9091E+00
    -12.321  0.8766E-12  0.9091E+00
    -12.317  0.4206E-10  0.9091E+00
    -12.314  0.1518E-08  0.9091E+00
    -12.310  0.4119E-07  0.9091E+00
    -12.306  0.8415E-06  0.9091E+00
    -12.302  0.1294E-04  0.9091E+00
    -12.298  0.1500E-03  0.9091E+00
    -12.295  0.1310E-02  0.9091E+00
    -12.291  0.8633E-02  0.9091E+00
    -12.287  0.4302E-01  0.9093E+00
    -12.283  0.1625E+00  0.9099E+00
    -12.279  0.4685E+00  0.9117E+00
    -12.276  0.1041E+01  0.9156E+00
    -12.272  0.1819E+01  0.9226E+00
    -12.268  0.2576E+01  0.9323E+00
    -12.264  0.3092E+01  0.9441E+00
    -12.260  0.3309E+01  0.9567E+00
    -12.257  0.3297E+01  0.9692E+00
    -12.253  0.3111E+01  0.9810E+00
    -12.249  0.2720E+01  0.9913E+00
    -12.245  0.2089E+01  0.9993E+00
    -12.241  0.1330E+01  0.1004E+01
    -12.238  0.6725E+00  0.1007E+01
    -12.234  0.2634E+00  0.1008E+01
    -12.230  0.7880E-01  0.1008E+01
    -12.226  0.1789E-01  0.1008E+01
    -12.222  0.3070E-02  0.1008E+01
    -12.219  0.3975E-03  0.1008E+01
    -12.215  0.3881E-04  0.1008E+01
    -12.211  0.2854E-05  0.1008E+01
    -12.207  0.1581E-06  0.1008E+01
    -12.203  0.6589E-08  0.1008E+01
    -12.200  0.2067E-09  0.1008E+01
    -12.196  0.4875E-11  0.1008E+01
    -12.192  0.8694E-13  0.1008E+01
    -12.188  0.9660E-15  0.1008E+01
    -12.184  0.0000E+00  0.1008E+01
    -12.181  0.0000E+00  0.1008E+01
    -12.177  0.0000E+00  0.1008E+01
    -12.173  0.0000E+00  0.1008E+01
    -12.169  0.0000E+00  0.1008E+01
    -12.165  0.0000E+00  0.1008E+01
    -12.162  0.0000E+00  0.1008E+01
    -12.158  0.0000E+00  0.1008E+01
    -12.154  0.0000E+00  0.1008E+01
    -12.150  0.0000E+00  0.1008E+01
    -12.146  0.0000E+00  0.1008E+01
    -12.143  0.0000E+00  0.1008E+01
    -12.139  0.0000E+00  0.1008E+01
    -12.135  0.0000E+00  0.1008E+01
    -12.131  0.0000E+00  0.1008E+01
    -12.127  0.0000E+00  0.1008E+01
    -12.124  0.0000E+00  0.1008E+01
    -12.120  0.0000E+00  0.1008E+01
    -12.116  0.0000E+00  0.1008E+01
    -12.112  0.0000E+00  0.1008E+01
    -12.108  0.0000E+00  0.1008E+01
    -12.105  0.0000E+00  0.1008E+01
    -12.101  0.0000E+00  0.1008E+01
    -12.097  0.0000E+00  0.1008E+01
    -12.093  0.0000E+00  0.1008E+01
    -12.089  0.0000E+00  0.1008E+01
    -12.086  0.1932E-13  0.1008E+01
    -12.082  0.1216E-11  0.1008E+01
    -12.078  0.5731E-10  0.1008E+01
    -12.074  0.2036E-08  0.1008E+01
    -12.070  0.5453E-07  0.1008E+01
    -12.067  0.1103E-05  0.1008E+01
    -12.063  0.1688E-04  0.1008E+01
    -12.059  0.1957E-03  0.1008E+01
    -12.055  0.1723E-02  0.1008E+01
    -12.051  0.1157E-01  0.1008E+01
    -12.048  0.5943E-01  0.1009E+01
    -12.044  0.2348E+00  0.1009E+01
    -12.040  0.7182E+00  0.1012E+01
    -12.036  0.1713E+01  0.1019E+01
    -12.032  0.3225E+01  0.1031E+01
    -12.029  0.4877E+01  0.1049E+01
    -12.025  0.6125E+01  0.1073E+01
    -12.021  0.6736E+01  0.1098E+01
    -12.017  0.6876E+01  0.1124E+01
    -12.013  0.6639E+01  0.1150E+01
    -12.010  0.5833E+01  0.1172E+01
    -12.006  0.4392E+01  0.1189E+01
    -12.002  0.2709E+01  0.1199E+01
    -11.998  0.1335E+01  0.1204E+01
    -11.994  0.5175E+00  0.1206E+01
    -11.991  0.1563E+00  0.1206E+01
    -11.987  0.3654E-01  0.1207E+01
    -11.983  0.6564E-02  0.1207E+01
    -11.979  0.9019E-03  0.1207E+01
    -11.975  0.9439E-04  0.1207E+01
    -11.972  0.7642E-05  0.1207E+01
    -11.968  0.3152E-05  0.1207E+01
    -11.964  0.3834E-04  0.1207E+01
    -11.960  0.4114E-03  0.1207E+01
    -11.956  0.3347E-02  0.1207E+01
    -11.953  0.2065E-01  0.1207E+01
    -11.949  0.9683E-01  0.1207E+01
    -11.945  0.3457E+00  0.1208E+01
    -11.941  0.9428E+00  0.1212E+01
    -11.937  0.1977E+01  0.1219E+01
    -11.934  0.3232E+01  0.1232E+01
    -11.930  0.4235E+01  0.1248E+01
    -11.926  0.4689E+01  0.1266E+01
    -11.922  0.4729E+01  0.1284E+01
    -11.918  0.4630E+01  0.1301E+01
    -11.915  0.4497E+01  0.1318E+01
    -11.911  0.4392E+01  0.1335E+01
    -11.907  0.4401E+01  0.1352E+01
    -11.903  0.4371E+01  0.1368E+01
    -11.899  0.3916E+01  0.1383E+01
    -11.896  0.2904E+01  0.1394E+01
    -11.892  0.1700E+01  0.1401E+01
    -11.888  0.7688E+00  0.1404E+01
    -11.884  0.2660E+00  0.1405E+01
    -11.880  0.7011E-01  0.1405E+01
    -11.877  0.1405E-01  0.1405E+01
    -11.873  0.2137E-02  0.1405E+01
    -11.869  0.2465E-03  0.1405E+01
    -11.865  0.2153E-04  0.1405E+01
    -11.861  0.1423E-05  0.1405E+01
    -11.858  0.7104E-07  0.1405E+01
    -11.854  0.2679E-08  0.1405E+01
    -11.850  0.7624E-10  0.1405E+01
    -11.846  0.1635E-11  0.1405E+01
    -11.842  0.2608E-13  0.1405E+01
    -11.839  0.0000E+00  0.1405E+01
    -11.835  0.0000E+00  0.1405E+01
    -11.831  0.0000E+00  0.1405E+01
    -11.827  0.0000E+00  0.1405E+01
    -11.823  0.6762E-14  0.1405E+01
    -11.820  0.4521E-12  0.1405E+01
    -11.816  0.2272E-10  0.1405E+01
    -11.812  0.8590E-09  0.1405E+01
    -11.808  0.2443E-07  0.1405E+01
    -11.804  0.5228E-06  0.1405E+01
    -11.801  0.8421E-05  0.1405E+01
    -11.797  0.1021E-03  0.1405E+01
    -11.793  0.9332E-03  0.1405E+01
    -11.789  0.6423E-02  0.1405E+01
    -11.785  0.3332E-01  0.1405E+01
    -11.782  0.1303E+00  0.1406E+01
    -11.778  0.3843E+00  0.1407E+01
    -11.774  0.8550E+00  0.1410E+01
    -11.770  0.1437E+01  0.1416E+01
    -11.766  0.1834E+01  0.1423E+01
    -11.763  0.1817E+01  0.1430E+01
    -11.759  0.1523E+01  0.1435E+01
    -11.755  0.1351E+01  0.1441E+01
    -11.751  0.1521E+01  0.1446E+01
    -11.747  0.1819E+01  0.1453E+01
    -11.744  0.1857E+01  0.1460E+01
    -11.740  0.1535E+01  0.1466E+01
    -11.736  0.1157E+01  0.1471E+01
    -11.732  0.1100E+01  0.1475E+01
    -11.728  0.1419E+01  0.1480E+01
    -11.725  0.1787E+01  0.1487E+01
    -11.721  0.1807E+01  0.1494E+01
    -11.717  0.1396E+01  0.1499E+01
    -11.713  0.8156E+00  0.1502E+01
    -11.709  0.3595E+00  0.1504E+01
    -11.706  0.1195E+00  0.1504E+01
    -11.702  0.2996E-01  0.1504E+01
    -11.698  0.5663E-02  0.1504E+01
    -11.694  0.8065E-03  0.1504E+01
    -11.690  0.8654E-04  0.1504E+01
    -11.687  0.6995E-05  0.1504E+01
    -11.683  0.4257E-06  0.1504E+01
    -11.679  0.1950E-07  0.1504E+01
    -11.675  0.6721E-09  0.1504E+01
    -11.671  0.1743E-10  0.1504E+01
    -11.668  0.3400E-12  0.1504E+01
    -11.664  0.4830E-14  0.1504E+01
    -11.660  0.7245E-14  0.1504E+01
    -11.656  0.4791E-12  0.1504E+01
    -11.652  0.2397E-10  0.1504E+01
    -11.649  0.9027E-09  0.1504E+01
    -11.645  0.2557E-07  0.1504E+01
    -11.641  0.5449E-06  0.1504E+01
    -11.637  0.8743E-05  0.1504E+01
    -11.633  0.1056E-03  0.1504E+01
    -11.630  0.9610E-03  0.1504E+01
    -11.626  0.6588E-02  0.1504E+01
    -11.622  0.3404E-01  0.1504E+01
    -11.618  0.1326E+00  0.1505E+01
    -11.614  0.3894E+00  0.1506E+01
    -11.611  0.8626E+00  0.1510E+01
    -11.607  0.1442E+01  0.1515E+01
    -11.603  0.1820E+01  0.1522E+01
    -11.599  0.1750E+01  0.1529E+01
    -11.595  0.1333E+01  0.1534E+01
    -11.592  0.9703E+00  0.1537E+01
    -11.588  0.9902E+00  0.1541E+01
    -11.584  0.1376E+01  0.1546E+01
    -11.580  0.1775E+01  0.1553E+01
    -11.576  0.1807E+01  0.1560E+01
    -11.573  0.1413E+01  0.1565E+01
    -11.569  0.9016E+00  0.1569E+01
    -11.565  0.6442E+00  0.1571E+01
    -11.561  0.8123E+00  0.1574E+01
    -11.557  0.1295E+01  0.1579E+01
    -11.554  0.1747E+01  0.1586E+01
    -11.550  0.1809E+01  0.1593E+01
    -11.546  0.1416E+01  0.1598E+01
    -11.542  0.8369E+00  0.1601E+01
    -11.538  0.3732E+00  0.1603E+01
    -11.535  0.1273E+00  0.1603E+01
    -11.531  0.4395E-01  0.1603E+01
    -11.527  0.6579E-01  0.1604E+01
    -11.523  0.2248E+00  0.1604E+01
    -11.519  0.6447E+00  0.1607E+01
    -11.516  0.1435E+01  0.1612E+01
    -11.512  0.2493E+01  0.1622E+01
    -11.508  0.3434E+01  0.1635E+01
    -11.504  0.3870E+01  0.1650E+01
    -11.500  0.3797E+01  0.1664E+01
    -11.497  0.3583E+01  0.1678E+01
    -11.493  0.3585E+01  0.1691E+01
    -11.489  0.3903E+01  0.1706E+01
    -11.485  0.4406E+01  0.1723E+01
    -11.481  0.4863E+01  0.1741E+01
    -11.478  0.5187E+01  0.1761E+01
    -11.474  0.5543E+01  0.1782E+01
    -11.470  0.5970E+01  0.1805E+01
    -11.466  0.6088E+01  0.1828E+01