    2    2    1    1
  0.1172237E+03  0.4113367E-09  0.4113367E-09  0.1600000E-08  0.5000000E-15
  1.000000000000000E-004
  CAR 
 unknown system                          
     10     61     16
 
  0.0000000E+00  0.0000000E+00  0.0000000E+00  0.8264463E-02
      1        -13.564550   1.000000
      2         -8.591518   1.000000
      3         -2.890984   1.000000
      4         -2.314512   1.000000
      5         -2.251865   1.000000
      6         -0.717115   0.000000
      7          0.470166   0.000000
      8          0.543434   0.000000
      9          2.088943   0.000000
     10          2.167272   0.000000
     11          3.627383   0.000000
     12          4.527730   0.000000
     13          4.845605   0.000000
     14          5.863022   0.000000
     15          5.907184   0.000000
     16          6.496348   0.000000
 
  0.9090909E-01  0.6938894E-17  0.0000000E+00  0.1652893E-01
      1        -13.477030   1.000000
      2         -8.588057   1.000000
      3         -3.089677   1.000000
      4         -2.852715   1.000000
      5         -2.504392   1.000000
      6         -0.196156   0.000000
      7          0.410592   0.000000
      8          0.724336   0.000000
      9          2.206834   0.000000
     10          2.268805   0.000000
     11          3.707531   0.000000
     12          4.623382   0.000000
     13          4.889262   0.000000
     14          5.564868   0.000000
     15          5.790085   0.000000
     16          6.210112   0.000000
 
  0.0000000E+00  0.9090909E-01  0.0000000E+00  0.1652893E-01
      1        -13.476698   1.000000
      2         -8.588718   1.000000
      3         -3.109539   1.000000
      4         -2.853149   1.000000
      5         -2.481254   1.000000
      6         -0.197015   0.000000
      7          0.432868   0.000000
      8          0.701151   0.000000
      9          2.207753   0.000000
     10          2.269257   0.000000
     11          3.707604   0.000000
     12          4.624031   0.000000
     13          4.872986   0.000000
     14          5.566848   0.000000
     15          5.803230   0.000000
     16          6.214777   0.000000
 
 -0.9090909E-01  0.9090909E-01  0.0000000E+00  0.1652893E-01
      1        -13.476342   1.000000
      2         -8.589427   1.000000
      3         -3.129733   1.000000
      4         -2.852406   1.000000
      5         -2.458989   1.000000
      6         -0.196861   0.000000
      7          0.460373   0.000000
      8          0.671858   0.000000
      9          2.208729   0.000000
     10          2.269771   0.000000
     11          3.707667   0.000000
     12          4.624769   0.000000
     13          4.855908   0.000000
     14          5.568934   0.000000
     15          5.816467   0.000000
     16          6.219939   0.000000
 
  0.1818182E+00  0.1387779E-16  0.0000000E+00  0.1652893E-01
      1        -13.218456   1.000000
      2         -8.626023   1.000000
      3         -4.240581   1.000000
      4         -2.922186   1.000000
      5         -2.785864   1.000000
      6         -0.616375   0.000000
      7          1.055529   0.000000
      8          1.074605   0.000000
      9          2.439642   0.000000
     10          2.591281   0.000000
     11          3.772887   0.000000
     12          4.524081   0.000000
     13          4.958570   0.000000
     14          5.466515   0.000000
     15          5.905798   0.000000
     16          6.593797   0.000000
 
  0.0000000E+00  0.1818182E+00  0.0000000E+00  0.1652893E-01
      1        -13.216991   1.000000
      2         -8.629360   1.000000
      3         -4.254616   1.000000
      4         -2.906886   1.000000
      5         -2.786067   1.000000
      6         -0.605081   0.000000
      7          1.039245   0.000000
      8          1.087374   0.000000
      9          2.441578   0.000000
     10          2.593917   0.000000
     11          3.766692   0.000000
     12          4.515244   0.000000
     13          4.955830   0.000000
     14          5.462115   0.000000
     15          5.910911   0.000000
     16          6.596154   0.000000
 
 -0.1818182E+00  0.1818182E+00  0.0000000E+00  0.1652893E-01
      1        -13.215418   1.000000
      2         -8.632938   1.000000
      3         -4.269167   1.000000
      4         -2.889636   1.000000
      5         -2.788073   1.000000
      6         -0.591841   0.000000
      7          1.023575   0.000000
      8          1.098863   0.000000
      9          2.443409   0.000000
     10          2.596928   0.000000
     11          3.759506   0.000000
     12          4.505645   0.000000
     13          4.953051   0.000000
     14          5.457455   0.000000
     15          5.916473   0.000000
     16          6.598668   0.000000
 
  0.2727273E+00  0.0000000E+00  0.0000000E+00  0.1652893E-01
      1        -12.802407   1.000000
      2         -8.849284   1.000000
      3         -5.049638   1.000000
      4         -3.341973   1.000000
      5         -2.871913   1.000000
      6         -1.008656   0.000000
      7          1.069512   0.000000
      8          1.255581   0.000000
      9          2.764283   0.000000
     10          2.994633   0.000000
     11          3.896951   0.000000
     12          4.889769   0.000000
     13          5.297630   0.000000
     14          5.594299   0.000000
     15          6.361576   0.000000
     16          6.537904   0.000000
 
  0.0000000E+00  0.2727273E+00  0.0000000E+00  0.1652893E-01
      1        -12.798473   1.000000
      2         -8.858988   1.000000
      3         -5.056289   1.000000
      4         -3.330149   1.000000
      5         -2.875781   1.000000
      6         -0.998148   0.000000
      7          1.082553   0.000000
      8          1.250805   0.000000
      9          2.764279   0.000000
     10          2.997969   0.000000
     11          3.890221   0.000000
     12          4.882992   0.000000
     13          5.292329   0.000000
     14          5.588281   0.000000
     15          6.361930   0.000000
     16          6.537534   0.000000
 
 -0.2727273E+00  0.2727273E+00  0.0000000E+00  0.1652893E-01
      1        -12.794239   1.000000
      2         -8.869391   1.000000
      3         -5.063154   1.000000
      4         -3.317890   1.000000
      5         -2.880281   1.000000
      6         -0.986061   0.000000
      7          1.104647   0.000000
      8          1.237291   0.000000
      9          2.763982   0.000000
     10          3.001679   0.000000
     11          3.882641   0.000000
     12          4.875684   0.000000
     13          5.286640   0.000000
     14          5.581934   0.000000
     15          6.362859   0.000000
     16          6.537112   0.000000
 
  0.3636364E+00  0.0000000E+00  0.0000000E+00  0.1652893E-01
      1        -12.269177   1.000000
      2         -9.358453   1.000000
      3         -5.330371   1.000000
      4         -3.657543   1.000000
      5         -3.255452   1.000000
      6         -0.969846   0.000000
      7          0.593311   0.000000
      8          1.290189   0.000000
      9          3.100563   0.000000
     10          3.402056   0.000000
     11          4.029147   0.000000
     12          5.201017   0.000000
     13          5.888254   0.000000
     14          5.929300   0.000000
     15          6.481050   0.000000
     16          6.840599   0.000000
 
  0.0000000E+00  0.3636364E+00  0.0000000E+00  0.1652893E-01
      1        -12.259896   1.000000
      2         -9.378245   1.000000
      3         -5.327518   1.000000
      4         -3.648027   1.000000
      5         -3.264847   1.000000
      6         -0.960029   0.000000
      7          0.611822   0.000000
      8          1.286989   0.000000
      9          3.096906   0.000000
     10          3.401966   0.000000
     11          4.023411   0.000000
     12          5.200222   0.000000
     13          5.887785   0.000000
     14          5.926622   0.000000
     15          6.485735   0.000000
     16          6.832606   0.000000
 
 -0.3636364E+00  0.3636364E+00  0.0000000E+00  0.1652893E-01
      1        -12.249831   1.000000
      2         -9.399501   1.000000
      3         -5.324320   1.000000
      4         -3.638163   1.000000
      5         -3.275270   1.000000
      6         -0.948581   0.000000
      7          0.634236   0.000000
      8          1.280411   0.000000
      9          3.092726   0.000000
     10          3.401803   0.000000
     11          4.017229   0.000000
     12          5.199498   0.000000
     13          5.887184   0.000000
     14          5.923912   0.000000
     15          6.491105   0.000000
     16          6.823997   0.000000
 
  0.4545455E+00  0.0000000E+00  0.0000000E+00  0.1652893E-01
      1        -11.767037   1.000000
      2         -9.919569   1.000000
      3         -5.267977   1.000000
      4         -3.824037   1.000000
      5         -3.659546   1.000000
      6         -0.726407   0.000000
      7          0.195780   0.000000
      8          1.271837   0.000000
      9          2.858279   0.000000
     10          4.210935   0.000000
     11          4.613989   0.000000
     12          5.111932   0.000000
     13          5.436397   0.000000
     14          5.917006   0.000000
     15          6.459649   0.000000
     16          6.771530   0.000000
 
  0.0000000E+00  0.4545455E+00  0.0000000E+00  0.1652893E-01
      1        -11.746761   1.000000
      2         -9.952841   1.000000
      3         -5.256199   1.000000
      4         -3.815939   1.000000
      5         -3.675711   1.000000
      6         -0.717930   0.000000
      7          0.218333   0.000000
      8          1.269791   0.000000
      9          2.847328   0.000000
     10          4.210488   0.000000
     11          4.614375   0.000000
     12          5.111409   0.000000
     13          5.438337   0.000000
     14          5.914865   0.000000
     15          6.458879   0.000000
     16          6.771579   0.000000
 
 -0.4545455E+00  0.4545455E+00  0.0000000E+00  0.1652893E-01
      1        -11.724258   1.000000
      2         -9.989154   1.000000
      3         -5.243346   1.000000
      4         -3.806768   1.000000
      5         -3.694352   1.000000
      6         -0.707250   0.000000
      7          0.243313   0.000000
      8          1.265649   0.000000
      9          2.835178   0.000000
     10          4.209978   0.000000
     11          4.614827   0.000000
     12          5.110930   0.000000
     13          5.440469   0.000000
     14          5.912614   0.000000
     15          6.458135   0.000000
     16          6.771686   0.000000
 
  0.9090909E-01  0.9090909E-01  0.0000000E+00  0.1652893E-01
      1        -13.303951   1.000000
      2         -8.604457   1.000000
      3         -3.890728   1.000000
      4         -2.963629   1.000000
      5         -2.789882   1.000000
      6          0.018308   0.000000
      7          0.279595   0.000000
      8          1.212509   0.000000
      9          2.425786   0.000000
     10          2.444645   0.000000
     11          3.714201   0.000000
     12          4.579591   0.000000
     13          4.804940   0.000000
     14          5.507691   0.000000
     15          6.175597   0.000000
     16          6.190444   0.000000
 
 -0.9090909E-01  0.1818182E+00  0.0000000E+00  0.1652893E-01
      1        -13.301860   1.000000
      2         -8.609091   1.000000
      3         -3.930208   1.000000
      4         -2.929706   1.000000
      5         -2.774988   1.000000
      6          0.067027   0.000000
      7          0.224453   0.000000
      8          1.220932   0.000000
      9          2.432958   0.000000
     10          2.446465   0.000000
     11          3.710553   0.000000
     12          4.559762   0.000000
     13          4.807231   0.000000
     14          5.502003   0.000000
     15          6.170439   0.000000
     16          6.189901   0.000000
 
 -0.1818182E+00  0.9090909E-01  0.0000000E+00  0.1652893E-01
      1        -13.302869   1.000000
      2         -8.606853   1.000000
      3         -3.911622   1.000000
      4         -2.944432   1.000000
      5         -2.783487   1.000000
      6          0.043242   0.000000
      7          0.251114   0.000000
      8          1.217269   0.000000
      9          2.429468   0.000000
     10          2.445601   0.000000
     11          3.712347   0.000000
     12          4.569129   0.000000
     13          4.806147   0.000000
     14          5.504549   0.000000
     15          6.172837   0.000000
     16          6.190522   0.000000
 
  0.1818182E+00  0.9090909E-01  0.0000000E+00  0.1652893E-01
      1        -12.965664   1.000000
      2         -8.731135   1.000000
      3         -4.713775   1.000000
      4         -3.558536   1.000000
      5         -2.766776   1.000000
      6         -0.424579   0.000000
      7          0.746426   0.000000
      8          1.381585   0.000000
      9          2.667055   0.000000
     10          2.828187   0.000000
     11          3.699977   0.000000
     12          4.690103   0.000000
     13          5.147007   0.000000
     14          5.397237   0.000000
     15          6.367622   0.000000
     16          6.827406   0.000000
 
 -0.9090909E-01  0.2727273E+00  0.0000000E+00  0.1652893E-01
      1        -12.960835   1.000000
      2         -8.743194   1.000000
      3         -4.738267   1.000000
      4         -3.527607   1.000000
      5         -2.762471   1.000000
      6         -0.411351   0.000000
      7          0.704427   0.000000
      8          1.425530   0.000000
      9          2.668286   0.000000
     10          2.832534   0.000000
     11          3.697709   0.000000
     12          4.685472   0.000000
     13          5.147507   0.000000
     14          5.395442   0.000000
     15          6.331626   0.000000
     16          6.815584   0.000000
 
 -0.2727273E+00  0.1818182E+00  0.0000000E+00  0.1652893E-01
      1        -12.961169   1.000000
      2         -8.742224   1.000000
      3         -4.735047   1.000000
      4         -3.531839   1.000000
      5         -2.767898   1.000000
      6         -0.403662   0.000000
      7          0.722555   0.000000
      8          1.407698   0.000000
      9          2.669936   0.000000
     10          2.831956   0.000000
     11          3.685678   0.000000
     12          4.684477   0.000000
     13          5.146234   0.000000
     14          5.388519   0.000000
     15          6.350402   0.000000
     16          6.832675   0.000000
 
 -0.1818182E+00  0.2727273E+00  0.0000000E+00  0.1652893E-01
      1        -12.959454   1.000000
      2         -8.746542   1.000000
      3         -4.743905   1.000000
      4         -3.520545   1.000000
      5         -2.764795   1.000000
      6         -0.401588   0.000000
      7          0.703511   0.000000
      8          1.427322   0.000000
      9          2.669779   0.000000
     10          2.833697   0.000000
     11          3.688506   0.000000
     12          4.683218   0.000000
     13          5.146791   0.000000
     14          5.389979   0.000000
     15          6.332902   0.000000
     16          6.823465   0.000000
 
  0.9090909E-01  0.1818182E+00  0.0000000E+00  0.1652893E-01
      1        -12.964382   1.000000
      2         -8.734255   1.000000
      3         -4.719446   1.000000
      4         -3.551467   1.000000
      5         -2.768818   1.000000
      6         -0.416080   0.000000
      7          0.745557   0.000000
      8          1.383548   0.000000
      9          2.668652   0.000000
     10          2.829070   0.000000
     11          3.691734   0.000000
     12          4.688094   0.000000
     13          5.146346   0.000000
     14          5.392225   0.000000
     15          6.368418   0.000000
     16          6.834663   0.000000
 
  0.2727273E+00 -0.9090909E-01  0.0000000E+00  0.1652893E-01
      1        -12.963832   1.000000
      2         -8.735756   1.000000
      3         -4.723750   1.000000
      4         -3.545956   1.000000
      5         -2.763535   1.000000
      6         -0.421922   0.000000
      7          0.724321   0.000000
      8          1.403963   0.000000
      9          2.666846   0.000000
     10          2.829913   0.000000
     11          3.703120   0.000000
     12          4.688742   0.000000
     13          5.147612   0.000000
     14          5.398993   0.000000
     15          6.348323   0.000000
     16          6.817540   0.000000
 
  0.2727273E+00  0.9090909E-01  0.0000000E+00  0.1652893E-01
      1        -12.484727   1.000000
      2         -9.109093   1.000000
      3         -5.195139   1.000000
      4         -3.990236   1.000000
      5         -2.967639   1.000000
      6         -0.635886   0.000000
      7          0.904347   0.000000
      8          1.049989   0.000000
      9          3.101208   0.000000
     10          3.263562   0.000000
     11          3.923912   0.000000
     12          5.158746   0.000000
     13          5.296132   0.000000
     14          5.733051   0.000000
     15          6.522416   0.000000
     16          6.853632   0.000000
 
 -0.9090909E-01  0.3636364E+00  0.0000000E+00  0.1652893E-01
      1        -12.475327   1.000000
      2         -9.131499   1.000000
      3         -5.198726   1.000000
      4         -3.975678   1.000000
      5         -2.966404   1.000000
      6         -0.633964   0.000000
      7          0.924431   0.000000
      8          1.043261   0.000000
      9          3.103375   0.000000
     10          3.265580   0.000000
     11          3.920082   0.000000
     12          5.154130   0.000000
     13          5.302187   0.000000
     14          5.730324   0.000000
     15          6.530687   0.000000
     16          6.857846   0.000000
 
 -0.3636364E+00  0.2727273E+00  0.0000000E+00  0.1652893E-01
      1        -12.472931   1.000000
      2         -9.136800   1.000000
      3         -5.199628   1.000000
      4         -3.970480   1.000000
      5         -2.976856   1.000000
      6         -0.617273   0.000000
      7          0.901339   0.000000
      8          1.075736   0.000000
      9          3.100390   0.000000
     10          3.265171   0.000000
     11          3.906876   0.000000
     12          5.151984   0.000000
     13          5.289131   0.000000
     14          5.728960   0.000000
     15          6.527610   0.000000
     16          6.863685   0.000000
 
 -0.2727273E+00  0.3636364E+00  0.0000000E+00  0.1652893E-01
      1        -12.470521   1.000000
      2         -9.142614   1.000000
      3         -5.200462   1.000000
      4         -3.967369   1.000000
      5         -2.973297   1.000000
      6         -0.621624   0.000000
      7          0.914627   0.000000
      8          1.063914   0.000000
      9          3.102013   0.000000
     10          3.266004   0.000000
     11          3.909612   0.000000
     12          5.151119   0.000000
     13          5.295169   0.000000
     14          5.728475   0.000000
     15          6.531218   0.000000
     16          6.863456   0.000000
 
  0.9090909E-01  0.2727273E+00  0.0000000E+00  0.1652893E-01
      1        -12.480290   1.000000
      2         -9.119459   1.000000
      3         -5.196972   1.000000
      4         -3.982083   1.000000
      5         -2.973923   1.000000
      6         -0.624942   0.000000
      7          0.892283   0.000000
      8          1.072481   0.000000
      9          3.099991   0.000000
     10          3.263977   0.000000
     11          3.914334   0.000000
     12          5.155892   0.000000
     13          5.289693   0.000000
     14          5.731326   0.000000
     15          6.522723   0.000000
     16          6.858737   0.000000
 
  0.3636364E+00 -0.9090909E-01  0.0000000E+00  0.1652893E-01
      1        -12.482175   1.000000
      2         -9.115320   1.000000
      3         -5.196060   1.000000
      4         -3.986938   1.000000
      5         -2.963683   1.000000
      6         -0.640557   0.000000
      7          0.925463   0.000000
      8          1.030335   0.000000
      9          3.102968   0.000000
     10          3.264334   0.000000
     11          3.926921   0.000000
     12          5.157851   0.000000
     13          5.302586   0.000000
     14          5.732535   0.000000
     15          6.526771   0.000000
     16          6.852972   0.000000
 
  0.3636364E+00  0.9090909E-01  0.0000000E+00  0.1652893E-01
      1        -11.932446   1.000000
      2         -9.694705   1.000000
      3         -5.291708   1.000000
      4         -4.169776   1.000000
      5         -3.410883   1.000000
      6         -0.462775   0.000000
      7          0.418272   0.000000
      8          1.067082   0.000000
      9          3.103231   0.000000
     10          3.884746   0.000000
     11          4.378234   0.000000
     12          5.394474   0.000000
     13          5.788548   0.000000
     14          6.003283   0.000000
     15          6.409742   0.000000
     16          6.688187   0.000000
 
 -0.9090909E-01  0.4545455E+00  0.0000000E+00  0.1652893E-01
      1        -11.914818   1.000000
      2         -9.727259   1.000000
      3         -5.279702   1.000000
      4         -4.168412   1.000000
      5         -3.414780   1.000000
      6         -0.468410   0.000000
      7          0.470857   0.000000
      8          1.038588   0.000000
      9          3.102545   0.000000
     10          3.882681   0.000000
     11          4.375060   0.000000
     12          5.394487   0.000000
     13          5.790177   0.000000
     14          6.010806   0.000000
     15          6.408504   0.000000
     16          6.686205   0.000000
 
 -0.4545455E+00  0.3636364E+00  0.0000000E+00  0.1652893E-01
      1        -11.904074   1.000000
      2         -9.746488   1.000000
      3         -5.274846   1.000000
      4         -4.158130   1.000000
      5         -3.431852   1.000000
      6         -0.442673   0.000000
      7          0.450166   0.000000
      8          1.066667   0.000000
      9          3.087251   0.000000
     10          3.884361   0.000000
     11          4.372713   0.000000
     12          5.394502   0.000000
     13          5.786061   0.000000
     14          6.008422   0.000000
     15          6.406870   0.000000
     16          6.688319   0.000000
 
 -0.3636364E+00  0.4545455E+00  0.0000000E+00  0.1652893E-01
      1        -11.901398   1.000000
      2         -9.751453   1.000000
      3         -5.272327   1.000000
      4         -4.161024   1.000000
      5         -3.427890   1.000000
      6         -0.452171   0.000000
      7          0.474638   0.000000
      8          1.047647   0.000000
      9          3.091693   0.000000
     10          3.883147   0.000000
     11          4.372403   0.000000
     12          5.394573   0.000000
     13          5.787866   0.000000
     14          6.011624   0.000000
     15          6.406974   0.000000
     16          6.687084   0.000000
 
  0.9090909E-01  0.3636364E+00  0.0000000E+00  0.1652893E-01
      1        -11.920247   1.000000
      2         -9.717055   1.000000
      3         -5.284961   1.000000
      4         -4.162411   1.000000
      5         -3.423048   1.000000
      6         -0.448491   0.000000
      7          0.420673   0.000000
      8          1.077297   0.000000
      9          3.093324   0.000000
     10          3.885217   0.000000
     11          4.375722   0.000000
     12          5.394479   0.000000
     13          5.786461   0.000000
     14          6.004005   0.000000
     15          6.408264   0.000000
     16          6.688886   0.000000
 
  0.4545455E+00 -0.9090909E-01  0.0000000E+00  0.1652893E-01
      1        -11.929690   1.000000
      2         -9.699947   1.000000
      3         -5.288966   1.000000
      4         -4.172881   1.000000
      5         -3.406581   1.000000
      6         -0.473204   0.000000
      7          0.444090   0.000000
      8          1.047296   0.000000
      9          3.108008   0.000000
     10          3.883424   0.000000
     11          4.377883   0.000000
     12          5.394412   0.000000
     13          5.790458   0.000000
     14          6.006881   0.000000
     15          6.409879   0.000000
     16          6.686742   0.000000
 
  0.4545455E+00  0.9090909E-01  0.0000000E+00  0.1652893E-01
      1        -11.603718   1.000000
      2        -10.059513   1.000000
      3         -5.267562   1.000000
      4         -4.128702   1.000000
      5         -3.722303   1.000000
      6         -0.162850   0.000000
      7          0.030709   0.000000
      8          1.085306   0.000000
      9          2.921607   0.000000
     10          4.760074   0.000000
     11          4.772001   0.000000
     12          5.067161   0.000000
     13          5.324683   0.000000
     14          5.875930   0.000000
     15          6.226077   0.000000
     16          7.154521   0.000000
 
 -0.9090909E-01 -0.4545455E+00  0.0000000E+00  0.1652893E-01
      1        -11.579904   1.000000
      2        -10.095814   1.000000
      3         -5.254110   1.000000
      4         -4.120434   1.000000
      5         -3.740064   1.000000
      6         -0.158995   0.000000
      7          0.052696   0.000000
      8          1.086148   0.000000
      9          2.911420   0.000000
     10          4.758070   0.000000
     11          4.774060   0.000000
     12          5.069518   0.000000
     13          5.321119   0.000000
     14          5.877005   0.000000
     15          6.228228   0.000000
     16          7.155226   0.000000
 
  0.4545455E+00  0.4545455E+00  0.0000000E+00  0.1652893E-01
      1        -11.553139   1.000000
      2        -10.135848   1.000000
      3         -5.239422   1.000000
      4         -4.111734   1.000000
      5         -3.759622   1.000000
      6         -0.150660   0.000000
      7          0.073991   0.000000
      8          1.085397   0.000000
      9          2.900238   0.000000
     10          4.756127   0.000000
     11          4.775995   0.000000
     12          5.072108   0.000000
     13          5.317247   0.000000
     14          5.878321   0.000000
     15          6.230477   0.000000
     16          7.156262   0.000000
 
  0.1818182E+00  0.1818182E+00  0.0000000E+00  0.1652893E-01
      1        -12.557109   1.000000
      2         -9.019747   1.000000
      3         -4.971780   1.000000
      4         -4.391402   1.000000
      5         -2.861764   1.000000
      6         -0.073523   0.000000
      7          0.391333   0.000000
      8          1.455702   0.000000
      9          3.091720   0.000000
     10          3.158946   0.000000
     11          3.746297   0.000000
     12          4.965207   0.000000
     13          5.027022   0.000000
     14          5.657819   0.000000
     15          6.462240   0.000000
     16          7.159302   0.000000
 
 -0.1818182E+00  0.3636364E+00  0.0000000E+00  0.1652893E-01
      1        -12.547541   1.000000
      2         -9.043425   1.000000
      3         -4.992518   1.000000
      4         -4.356411   1.000000
      5         -2.861768   1.000000
      6         -0.049107   0.000000
      7          0.356999   0.000000
      8          1.480504   0.000000
      9          3.103416   0.000000
     10          3.155156   0.000000
     11          3.748072   0.000000
     12          4.955984   0.000000
     13          5.029561   0.000000
     14          5.655613   0.000000
     15          6.468083   0.000000
     16          7.156770   0.000000
 
 -0.3636364E+00  0.1818182E+00  0.0000000E+00  0.1652893E-01
      1        -12.552170   1.000000
      2         -9.031995   1.000000
      3         -4.982744   1.000000
      4         -4.373134   1.000000
      5         -2.861725   1.000000
      6         -0.061015   0.000000
      7          0.374026   0.000000
      8          1.468146   0.000000
      9          3.097720   0.000000
     10          3.156982   0.000000
     11          3.747246   0.000000
     12          4.960344   0.000000
     13          5.028461   0.000000
     14          5.656669   0.000000
     15          6.465295   0.000000
     16          7.158148   0.000000
 
  0.2727273E+00  0.1818182E+00  0.0000000E+00  0.1652893E-01
      1        -12.030114   1.000000
      2         -9.522732   1.000000
      3         -5.160013   1.000000
      4         -4.745090   1.000000
      5         -3.182519   1.000000
      6         -0.137158   0.000000
      7          0.344751   0.000000
      8          1.388532   0.000000
      9          3.478982   0.000000
     10          3.759452   0.000000
     11          4.231018   0.000000
     12          4.840155   0.000000
     13          5.331562   0.000000
     14          6.227085   0.000000
     15          6.303734   0.000000
     16          6.814359   0.000000
 
 -0.1818182E+00  0.4545455E+00  0.0000000E+00  0.1652893E-01
      1        -12.013539   1.000000
      2         -9.556331   1.000000
      3         -5.144797   1.000000
      4         -4.742065   1.000000
      5         -3.187937   1.000000
      6         -0.140835   0.000000
      7          0.370715   0.000000
      8          1.375820   0.000000
      9          3.493840   0.000000
     10          3.755871   0.000000
     11          4.229995   0.000000
     12          4.838690   0.000000
     13          5.338612   0.000000
     14          6.228889   0.000000
     15          6.302018   0.000000
     16          6.815040   0.000000
 
 -0.4545455E+00  0.2727273E+00  0.0000000E+00  0.1652893E-01
      1        -12.015320   1.000000
      2         -9.552470   1.000000
      3         -5.149808   1.000000
      4         -4.738092   1.000000
      5         -3.192440   1.000000
      6         -0.115074   0.000000
      7          0.335175   0.000000