 running   16 mpi-ranks, on    1 nodes
 distrk:  each k-point on   16 cores,    1 groups
 distr:  one band on    1 cores,   16 groups
 vasp.6.4.2 20Jul23 (build Nov 14 2023 12:59:38) complex                        
  
 POSCAR found type information on POSCAR Sb
 POSCAR found :  1 types and       2 ions
 Reading from existing POTCAR
 scaLAPACK will be used
 -----------------------------------------------------------------------------
|                                                                             |
|           W    W    AA    RRRRR   N    N  II  N    N   GGGG   !!!           |
|           W    W   A  A   R    R  NN   N  II  NN   N  G    G  !!!           |
|           W    W  A    A  R    R  N N  N  II  N N  N  G       !!!           |
|           W WW W  AAAAAA  RRRRR   N  N N  II  N  N N  G  GGG   !            |
|           WW  WW  A    A  R   R   N   NN  II  N   NN  G    G                |
|           W    W  A    A  R    R  N    N  II  N    N   GGGG   !!!           |
|                                                                             |
|     For optimal performance we recommend to set                             |
|       NCORE = 2 up to number-of-cores-per-socket                            |
|     NCORE specifies how many cores store one orbital (NPAR=cpu/NCORE).      |
|     This setting can greatly improve the performance of VASP for DFT.       |
|     The default, NCORE=1 might be grossly inefficient on modern             |
|     multi-core architectures or massively parallel machines. Do your        |
|     own testing! More info at https://www.vasp.at/wiki/index.php/NCORE      |
|     Unfortunately you need to use the default for GW and RPA                |
|     calculations (for HF NCORE is supported but not extensively tested      |
|     yet).                                                                   |
|                                                                             |
 -----------------------------------------------------------------------------

 Reading from existing POTCAR
 LDA part: xc-table for Pade appr. of Perdew
 POSCAR, INCAR and KPOINTS ok, starting setup
 FFT: planning ... GRIDC
 FFT: planning ... GRID_SOFT
 FFT: planning ... GRID
 WAVECAR not read
 entering main loop
       N       E                     dE             d eps       ncg     rms          rms(c)
DAV:   1     0.160924377138E+02    0.16092E+02   -0.21765E+03  2160   0.197E+02
DAV:   2    -0.777975757883E+01   -0.23872E+02   -0.23029E+02  2864   0.427E+01
DAV:   3    -0.816333692575E+01   -0.38358E+00   -0.38358E+00  2288   0.739E+00
DAV:   4    -0.816569443997E+01   -0.23575E-02   -0.23575E-02  3472   0.731E-01
DAV:   5    -0.816569775917E+01   -0.33192E-05   -0.33191E-05  2496   0.216E-02
DAV:   6    -0.816569779289E+01   -0.33717E-07   -0.33891E-07  3520   0.189E-03
DAV:   7    -0.816569779312E+01   -0.23169E-09   -0.32695E-10  2736   0.502E-05
DAV:   8    -0.816569779312E+01   -0.11369E-12   -0.51276E-12  3312   0.474E-06
DAV:   9    -0.816569779312E+01    0.22737E-12    0.19066E-12  2144   0.327E-07
DAV:  10    -0.816569779312E+01    0.00000E+00    0.71230E-13  1696   0.156E-07
DAV:  11    -0.816569779312E+01    0.00000E+00    0.39153E-13  1216   0.965E-08
DAV:  12    -0.816569779312E+01    0.00000E+00    0.25425E-12  1104   0.643E-08    0.159E+00
DAV:  13    -0.815026699352E+01    0.15431E-01   -0.35481E-03  2576   0.187E-01    0.141E+00
DAV:  14    -0.812057894686E+01    0.29688E-01   -0.16735E-01  2960   0.110E+00    0.213E-01
DAV:  15    -0.811712165986E+01    0.34573E-02   -0.12336E-02  2720   0.336E-01    0.767E-02
DAV:  16    -0.811679496613E+01    0.32669E-03   -0.25302E-03  3168   0.146E-01    0.460E-02
DAV:  17    -0.811669722940E+01    0.97737E-04   -0.58079E-04  2800   0.736E-02    0.240E-02
DAV:  18    -0.811670473417E+01   -0.75048E-05   -0.10262E-04  2480   0.341E-02    0.490E-03
DAV:  19    -0.811670445088E+01    0.28329E-06   -0.25033E-06  2528   0.700E-03
   1 F= -.81167045E+01 E0= -.81167045E+01  d E =-.249039E-11
 Linear response reoptimize wavefunctions to high precision
DAV:   1    -0.811670448140E+01   -0.30517E-07   -0.16686E-06  2288   0.468E-03
DAV:   2    -0.811670448518E+01   -0.37787E-08   -0.37788E-08  3296   0.806E-04
DAV:   3    -0.811670448519E+01   -0.53433E-11   -0.55325E-11  2400   0.275E-05
 Linear response G [H, r] |phi>, progress :
  Direction:   1
       N       E                     dE             d eps       ncg     rms
RMM:   1    -0.452096422827E+02   -0.45210E+02   -0.17521E+03  2188   0.395E+02
RMM:   2    -0.543449327263E+02   -0.91353E+01   -0.95120E+00  3959   0.143E+01
RMM:   3    -0.549409032559E+02   -0.59597E+00   -0.36129E-01  3995   0.357E+00
RMM:   4    -0.549675433091E+02   -0.26640E-01   -0.29940E-02  3936   0.748E-01
RMM:   5    -0.549680831425E+02   -0.53983E-03   -0.17537E-03  4087   0.211E-01
RMM:   6    -0.549681446956E+02   -0.61553E-04   -0.24046E-04  4034   0.632E-02
RMM:   7    -0.549681478718E+02   -0.31762E-05   -0.21437E-05  4157   0.212E-02
RMM:   8    -0.549681484322E+02   -0.56044E-06   -0.32935E-06  3958   0.688E-03
 Linear response G [H, r] |phi>, progress :
  Direction:   2
       N       E                     dE             d eps       ncg     rms
RMM:   1    -0.445443107745E+02   -0.44544E+02   -0.17455E+03  2083   0.396E+02
RMM:   2    -0.543522482046E+02   -0.98079E+01   -0.97008E+00  3943   0.144E+01
RMM:   3    -0.549373526306E+02   -0.58510E+00   -0.32034E-01  3979   0.358E+00
RMM:   4    -0.549670003437E+02   -0.29648E-01   -0.31060E-02  3980   0.766E-01
RMM:   5    -0.549676537338E+02   -0.65339E-03   -0.16835E-03  4132   0.216E-01
RMM:   6    -0.549677266327E+02   -0.72899E-04   -0.23587E-04  4047   0.628E-02
RMM:   7    -0.549677300783E+02   -0.34455E-05   -0.20332E-05  4199   0.209E-02
RMM:   8    -0.549677306199E+02   -0.54162E-06   -0.31046E-06  3950   0.662E-03
 Linear response G [H, r] |phi>, progress :
  Direction:   3
       N       E                     dE             d eps       ncg     rms
RMM:   1    -0.537853179244E+02   -0.53785E+02   -0.19461E+03  2179   0.396E+02
RMM:   2    -0.556218981486E+02   -0.18366E+01   -0.13396E+01  4046   0.150E+01
RMM:   3    -0.561076340872E+02   -0.48574E+00   -0.39722E-01  4056   0.341E+00
RMM:   4    -0.561240281387E+02   -0.16394E-01   -0.35848E-02  3992   0.816E-01
RMM:   5    -0.561247923145E+02   -0.76418E-03   -0.23829E-03  4173   0.227E-01
RMM:   6    -0.561248548337E+02   -0.62519E-04   -0.29290E-04  4141   0.694E-02
RMM:   7    -0.561248612335E+02   -0.63998E-05   -0.30551E-05  4221   0.239E-02
RMM:   8    -0.561248619819E+02   -0.74835E-06   -0.44077E-06  4072   0.817E-03
 Linear response to external field (no local field effect), progress :
  Direction:   1
       N       E                     dE             d eps       ncg     rms          rms(c)
RMM:   1    -0.295966707141E+01   -0.29597E+01   -0.14818E+01  4824   0.476E+00
RMM:   2    -0.327458610841E+01   -0.31492E+00   -0.75539E-02  3808   0.922E-01
RMM:   3    -0.327844651093E+01   -0.38604E-02   -0.45513E-03  3864   0.198E-01
RMM:   4    -0.327854350230E+01   -0.96991E-04   -0.36977E-04  3956   0.509E-02
RMM:   5    -0.327854863310E+01   -0.51308E-05   -0.20651E-05  3966   0.146E-02
RMM:   6    -0.327854899540E+01   -0.36230E-06   -0.21312E-06  4018   0.462E-03
 change of polarisation eV/A/(eV/A) component  1 :     6.557     0.057     0.035
 dielectric tensor                  component  1 :     6.061     0.044     0.027
 Linear response to external field (no local field effect), progress :
  Direction:   2
       N       E                     dE             d eps       ncg     rms          rms(c)
RMM:   1    -0.296480836533E+01   -0.29648E+01   -0.14873E+01  4840   0.468E+00
RMM:   2    -0.327478049490E+01   -0.30997E+00   -0.76067E-02  3844   0.916E-01
RMM:   3    -0.327855397982E+01   -0.37735E-02   -0.45433E-03  3864   0.196E-01
RMM:   4    -0.327864888602E+01   -0.94906E-04   -0.36815E-04  3989   0.511E-02
RMM:   5    -0.327865415944E+01   -0.52734E-05   -0.20958E-05  3997   0.148E-02
RMM:   6    -0.327865450275E+01   -0.34332E-06   -0.20753E-06  4044   0.461E-03
 change of polarisation eV/A/(eV/A) component  2 :     0.057     6.557    -0.001
 dielectric tensor                  component  2 :     0.044     6.061    -0.001
 Linear response to external field (no local field effect), progress :
  Direction:   3
       N       E                     dE             d eps       ncg     rms          rms(c)
RMM:   1    -0.102537552466E+01   -0.10254E+01   -0.89994E-01  4575   0.456E+00
RMM:   2    -0.131332190366E+01   -0.28795E+00   -0.85285E-02  3707   0.979E-01
RMM:   3    -0.131718824903E+01   -0.38663E-02   -0.36414E-03  3826   0.203E-01
RMM:   4    -0.131726064640E+01   -0.72397E-04   -0.24719E-04  3957   0.502E-02
RMM:   5    -0.131726504841E+01   -0.44020E-05   -0.20069E-05  4038   0.147E-02
RMM:   6    -0.131726536475E+01   -0.31634E-06   -0.21232E-06  4029   0.464E-03
 change of polarisation eV/A/(eV/A) component  3 :     0.035    -0.001     2.635
 dielectric tensor                  component  3 :     0.027    -0.001     3.033
 Linear response to external field, progress :
  Direction:   1
       N       E                     dE             d eps       ncg     rms          rms(c)
RMM:   1    -0.295966707141E+01   -0.29597E+01   -0.14818E+01  4824   0.476E+00
RMM:   2    -0.327458610841E+01   -0.31492E+00   -0.75539E-02  3808   0.922E-01    0.252E+00
RMM:   3    -0.321389477469E+01    0.60691E-01   -0.12407E-02  3488   0.388E-01    0.219E+00
RMM:   4    -0.321696935703E+01   -0.30746E-02   -0.26102E-01  3477   0.174E+00    0.415E-01
RMM:   5    -0.323762423619E+01   -0.20655E-01   -0.86071E-03  3450   0.446E-01    0.299E-01
RMM:   6    -0.326089153044E+01   -0.23267E-01   -0.41054E-03  3373   0.240E-01    0.635E-02
RMM:   7    -0.326724666161E+01   -0.63551E-02   -0.21623E-04  3616   0.688E-02    0.337E-02
RMM:   8    -0.327083083349E+01   -0.35842E-02   -0.83335E-05  3249   0.357E-02    0.129E-02
RMM:   9    -0.327287174751E+01   -0.20409E-02   -0.14385E-05  3432   0.175E-02    0.287E-03
RMM:  10    -0.327305130775E+01   -0.17956E-03   -0.11292E-06  3791   0.408E-03    0.245E-03
RMM:  11    -0.327319932188E+01   -0.14801E-03   -0.68017E-07  3379   0.340E-03    0.654E-04
RMM:  12    -0.327336855690E+01   -0.16924E-03   -0.92912E-08  3818   0.120E-03    0.658E-04
RMM:  13    -0.327332779477E+01    0.40762E-04   -0.33753E-08  3297   0.652E-04    0.104E-04
RMM:  14    -0.327332445082E+01    0.33439E-05   -0.22741E-10  2370   0.194E-04    0.681E-05
RMM:  15    -0.327333053698E+01   -0.60862E-05   -0.62268E-10  1909   0.219E-04    0.124E-05
RMM:  16    -0.327332962615E+01    0.91083E-06    0.00000E+00  1466   0.188E-04    0.528E-06
 change of polarisation eV/A/(eV/A) component  1 :     6.081     0.055     0.002
 dielectric tensor                  component  1 :     5.693     0.043     0.002
 Linear response to external field, progress :
  Direction:   2
       N       E                     dE             d eps       ncg     rms          rms(c)
RMM:   1    -0.296480836533E+01   -0.29648E+01   -0.14873E+01  4840   0.468E+00
RMM:   2    -0.327478049490E+01   -0.30997E+00   -0.76067E-02  3844   0.916E-01    0.252E+00
RMM:   3    -0.321413835668E+01    0.60642E-01   -0.12305E-02  3479   0.387E-01    0.219E+00
RMM:   4    -0.322448453120E+01   -0.10346E-01   -0.27316E-01  3456   0.178E+00    0.401E-01
RMM:   5    -0.325127678101E+01   -0.26792E-01   -0.11496E-02  3433   0.486E-01    0.177E-01
RMM:   6    -0.326641703721E+01   -0.15140E-01   -0.20478E-03  3362   0.185E-01    0.446E-02
RMM:   7    -0.326789350050E+01   -0.14765E-02   -0.73784E-05  3840   0.415E-02    0.323E-02
RMM:   8    -0.327147736541E+01   -0.35839E-02   -0.56962E-05  3253   0.304E-02    0.124E-02
RMM:   9    -0.327337854661E+01   -0.19012E-02   -0.14933E-05  3324   0.176E-02    0.327E-03
RMM:  10    -0.327335051419E+01    0.28032E-04   -0.84405E-07  3839   0.357E-03    0.300E-03
RMM:  11    -0.327350615484E+01   -0.15564E-03   -0.10444E-06  3329   0.386E-03    0.163E-03
RMM:  12    -0.327378662741E+01   -0.28047E-03   -0.12185E-07  3362   0.144E-03    0.472E-04
RMM:  13    -0.327382215568E+01   -0.35528E-04   -0.13365E-08  3605   0.695E-04    0.181E-04
RMM:  14    -0.327382243513E+01   -0.27945E-06   -0.11404E-09  2339   0.233E-04    0.482E-05
 change of polarisation eV/A/(eV/A) component  2 :     0.055     6.082    -0.000
 dielectric tensor                  component  2 :     0.042     5.694    -0.000
 Linear response to external field, progress :
  Direction:   3
       N       E                     dE             d eps       ncg     rms          rms(c)
RMM:   1    -0.102537552466E+01   -0.10254E+01   -0.89994E-01  4575   0.456E+00
RMM:   2    -0.131332190366E+01   -0.28795E+00   -0.85285E-02  3707   0.979E-01    0.253E+00
RMM:   3    -0.378596785300E+00    0.93473E+00   -0.11683E-01  3666   0.907E-01    0.691E-01
RMM:   4    -0.276679425879E+00    0.10192E+00   -0.31706E-02  3842   0.470E-01    0.324E-01
RMM:   5    -0.269696747806E+00    0.69827E-02   -0.16676E-02  3755   0.469E-01    0.644E-02
RMM:   6    -0.270319265166E+00   -0.62252E-03   -0.49446E-04  3316   0.835E-02    0.544E-02
RMM:   7    -0.271403350269E+00   -0.10841E-02   -0.41836E-04  3250   0.692E-02    0.137E-02
RMM:   8    -0.271499548828E+00   -0.96199E-04   -0.32924E-05  3501   0.230E-02    0.113E-02
RMM:   9    -0.271591752618E+00   -0.92204E-04   -0.48415E-06  3345   0.941E-03    0.268E-03
RMM:  10    -0.271612680945E+00   -0.20928E-04   -0.37072E-07  3817   0.299E-03    0.138E-03
RMM:  11    -0.271618047042E+00   -0.53661E-05   -0.12933E-07  3617   0.175E-03    0.405E-04
RMM:  12    -0.271618355165E+00   -0.30812E-06   -0.15103E-08  3519   0.523E-04    0.963E-05
 change of polarisation eV/A/(eV/A) component  3 :     0.002    -0.000     0.513
 dielectric tensor                  component  3 :     0.002    -0.000     1.396
 Born effective charges drift removed
IPL WARN> IPL_init_numa_nodes: can not define numa node num
