 vasp.6.4.2 20Jul23 (build Nov 14 2023 12:59:38) complex                        
  
 executed on             LinuxIFC date 2023.12.29  16:14:28
 running   16 mpi-ranks, on    1 nodes
 distrk:  each k-point on   16 cores,    1 groups
 distr:  one band on NCORE=   1 cores,   16 groups


--------------------------------------------------------------------------------------------------------


 INCAR:
   ENCUT = 193.577625
   ALGO = Normal
   NELM = 200
   NELMIN = 6
   NELMDL = -12
   EDIFF = 1.0E-6
   AMIX = 0.1
   BMIX = 0.0001
   PREC = Accurate
   IVDW = 0
   ISPIN = 1
   ADDGRID = .TRUE.
   LASPH = .TRUE.
   LREAL = .FALSE.
   LEPSILON = .TRUE.
   ISMEAR = 0
   SIGMA = 0.01
   LORBIT = 10
   NEDOS = 6001
   NWRITE = 3
   LWAVE = .FALSE.
   LCHARG = .FALSE.
   ICHARG = 2
   LELF = .FALSE.
   LVTOT = .FALSE.
   LPLANE = .TRUE.

 POTCAR:    PAW_PBE Sb_GW 21Mar2012               
 -----------------------------------------------------------------------------
|                                                                             |
|           W    W    AA    RRRRR   N    N  II  N    N   GGGG   !!!           |
|           W    W   A  A   R    R  NN   N  II  NN   N  G    G  !!!           |
|           W    W  A    A  R    R  N N  N  II  N N  N  G       !!!           |
|           W WW W  AAAAAA  RRRRR   N  N N  II  N  N N  G  GGG   !            |
|           WW  WW  A    A  R   R   N   NN  II  N   NN  G    G                |
|           W    W  A    A  R    R  N    N  II  N    N   GGGG   !!!           |
|                                                                             |
|     For optimal performance we recommend to set                             |
|       NCORE = 2 up to number-of-cores-per-socket                            |
|     NCORE specifies how many cores store one orbital (NPAR=cpu/NCORE).      |
|     This setting can greatly improve the performance of VASP for DFT.       |
|     The default, NCORE=1 might be grossly inefficient on modern             |
|     multi-core architectures or massively parallel machines. Do your        |
|     own testing! More info at https://www.vasp.at/wiki/index.php/NCORE      |
|     Unfortunately you need to use the default for GW and RPA                |
|     calculations (for HF NCORE is supported but not extensively tested      |
|     yet).                                                                   |
|                                                                             |
 -----------------------------------------------------------------------------

 POTCAR:    PAW_PBE Sb_GW 21Mar2012               
   SHA256 =  0189e04b98a9f0fe6ba073dab8a951dafd9b30e3c29e8799017462f750df8077 Sb_GW/POTCAR          
   COPYR  = (c) Copyright 21Mar2012 Georg Kresse                                                    
   COPYR  = This file is part of the software VASP. Any use, copying, and all other rights are regul
   COPYR  = If you do not have a valid VASP license, you may not use, copy or distribute this file. 
   VRHFIN =Sb: s2p3                                                                                 
   LEXCH  = PE                                                                                      
   EATOM  =   149.9515 eV,   11.0211 Ry                                                             
                                                                                                    
   TITEL  = PAW_PBE Sb_GW 21Mar2012                                                                 
   LULTRA =        F    use ultrasoft PP ?                                                          
   IUNSCR =        1    unscreen: 0-lin 1-nonlin 2-no                                               
   RPACOR =    2.200    partial core radius                                                         
   POMASS =  121.750; ZVAL   =    5.000    mass and valenz                                          
   RCORE  =    2.700    outmost cutoff radius                                                       
   RWIGS  =    2.700; RWIGS  =    1.429    wigner-seitz radius (au A)                               
   ENMAX  =  172.069; ENMIN  =  129.052 eV                                                          
   RCLOC  =    1.607    cutoff for local pot                                                        
   LCOR   =        T    correct aug charges                                                         
   LPAW   =        T    paw PP                                                                      
   EAUG   =  560.612                                                                                
   DEXC   =    0.000                                                                                
   RMAX   =    2.753    core radius for proj-oper                                                   
   RAUG   =    1.300    factor for augmentation sphere                                              
   RDEP   =    2.859    radius for radial grids                                                     
   RDEPT  =    2.199    core radius for aug-charge                                                  
                                                                                                    
   Atomic configuration                                                                             
   13 entries                                                                                       
     n  l   j            E        occ.                                                              
     1  0  0.50    -30298.2797   2.0000                                                             
     2  0  0.50     -4610.2252   2.0000                                                             
     2  1  1.50     -4138.3407   6.0000                                                             
     3  0  0.50      -903.8815   2.0000                                                             
     3  1  1.50      -750.1337   6.0000                                                             
     3  2  2.50      -515.7092  10.0000                                                             
     4  0  0.50      -148.8034   2.0000                                                             
     4  1  1.50      -101.7581   6.0000                                                             
     4  2  2.50       -33.5048  10.0000                                                             
     5  0  0.50       -12.8298   2.0000                                                             
     5  1  0.50        -4.8276   3.0000                                                             
     5  2  1.50        -5.4423   0.0000                                                             
     4  3  2.50        -5.4423   0.0000                                                             
   Description                                                                                      
     l       E           TYP  RCUT    TYP  RCUT                                                     
     0    -12.8297861     23  2.300                                                                 
     0     68.0291300     23  2.300                                                                 
     1     -4.8275512     23  2.300                                                                 
     1     68.0291300     23  2.300                                                                 
     2      2.7211652     23  2.700                                                                 
     2     68.0291300     23  2.700                                                                 
     3     13.6058260     23  2.500                                                                 
     3     40.8174780     23  2.500                                                                 
  local pseudopotential read in
  partial core-charges read in
  partial kinetic energy density read in
  kinetic energy density of atom read in
  atomic valenz-charges read in
  non local Contribution for L=           0  read in
    real space projection operators read in
  non local Contribution for L=           0  read in
    real space projection operators read in
  non local Contribution for L=           1  read in
    real space projection operators read in
  non local Contribution for L=           1  read in
    real space projection operators read in
  non local Contribution for L=           2  read in
    real space projection operators read in
  non local Contribution for L=           2  read in
    real space projection operators read in
  non local Contribution for L=           3  read in
    real space projection operators read in
  non local Contribution for L=           3  read in
    real space projection operators read in
    PAW grid and wavefunctions read in
 
   number of l-projection  operators is LMAX  =           8
   number of lm-projection operators is LMMAX =          32
 
  PAW_PBE Sb_GW 21Mar2012               :
 energy of atom  1       EATOM= -149.9515
 kinetic energy error for atom=    0.0054 (will be added to EATOM!!)
 
 
 POSCAR: OUTCAR.0002.+1.out 1.0e-02
  positions in cartesian coordinates
  No initial velocities read in
 exchange correlation table for  LEXCH =        8
   RHO(1)=    0.500       N(1)  =     2000
   RHO(2)=  100.500       N(2)  =     4000
 


--------------------------------------------------------------------------------------------------------


 ion  position               nearest neighbor table
   1  0.666  0.331  0.449-   2 2.88   2 2.89   2 2.89
   2  0.334  0.669  0.551-   1 2.88   1 2.89   1 2.89
 
  LATTYP: Found a hexagonal cell.
 ALAT       =     4.1133665497
 C/A-ratio  =     3.8897578922
  
  Lattice vectors:
  
 A1 = (   4.1133665497,   0.0000000000,   0.0000000000)
 A2 = (  -2.0566832748,   3.5622799271,   0.0000000000)
 A3 = (   0.0000000000,   0.0000000000,  16.0000000000)


Analysis of symmetry for initial positions (statically):
=====================================================================
 Subroutine PRICEL returns:
 Original cell was already a primitive cell.
 

 Routine SETGRP: Setting up the symmetry group for a 
 hexagonal supercell.


 Subroutine GETGRP returns: Found  2 space group operations
 (whereof  2 operations were pure point group operations)
 out of a pool of 24 trial point group operations.


The static configuration has the point symmetry S_2 .


Analysis of symmetry for dynamics (positions and initial velocities):
=====================================================================
 Subroutine PRICEL returns:
 Original cell was already a primitive cell.
 

 Routine SETGRP: Setting up the symmetry group for a 
 hexagonal supercell.


 Subroutine GETGRP returns: Found  2 space group operations
 (whereof  2 operations were pure point group operations)
 out of a pool of 24 trial point group operations.


The dynamic configuration has the point symmetry S_2 .


 Subroutine INISYM returns: Found  2 space group operations
 (whereof  2 operations are pure point group operations),
 and found     1 'primitive' translations



 irot  :   1
 --------------------------------------------------------------------
 isymop:   1   0   0
           0   1   0
           0   0   1

 gtrans:     0.0000000     0.0000000     0.0000000

 ptrans:     0.0000000     0.0000000     0.0000000
 
 rotmap:
 (   1->   1)  (   2->   2) 


 irot  :   2
 --------------------------------------------------------------------
 isymop:  -1   0   0
           0  -1   0
           0   0  -1

 gtrans:     0.0000000     0.0000000     0.0000000

 ptrans:     0.0000000     0.0000000     0.0000000
 
 rotmap:
 (   1->   2)  (   2->   1) 

----------------------------------------------------------------------------------------

                                     Primitive cell                                     

  volume of cell :     234.4474

  direct lattice vectors                    reciprocal lattice vectors
     4.113366550  0.000000000  0.000000000     0.243109868  0.140359548  0.000000000
    -2.056683275  3.562279927  0.000000000     0.000000000  0.280719096  0.000000000
     0.000000000  0.000000000 16.000000000     0.000000000  0.000000000  0.062500000

  length of vectors
     4.113366550  4.113366550 16.000000000     0.280719096  0.280719096  0.062500000

  position of ions in fractional coordinates (direct lattice)
     0.665632358  0.331348945  0.448625398
     0.334367642  0.668651055  0.551374602

  ion indices of the primitive-cell ions
   primitive index   ion index
                 1           1
                 2           2

----------------------------------------------------------------------------------------

 
 
 KPOINTS: kpoints                                 

Automatic generation of k-mesh.
 Grid dimensions read from file:
 generate k-points for:   11   11    1

 Generating k-lattice:

  Cartesian coordinates                     Fractional coordinates (reciprocal lattice)
     0.022100897  0.012759959  0.000000000     0.090909091  0.000000000  0.000000000
     0.000000000  0.025519918  0.000000000     0.000000000  0.090909091  0.000000000
     0.000000000  0.000000000  0.062500000     0.000000000  0.000000000  1.000000000

  Length of vectors
     0.025519918  0.025519918  0.062500000

  Shift w.r.t. Gamma in fractional coordinates (k-lattice)
     0.000000000  0.000000000  0.000000000

 
 Subroutine IBZKPT returns following result:
 ===========================================
 
 Found     61 irreducible k-points:
 
 Following reciprocal coordinates:
            Coordinates               Weight
  0.000000  0.000000  0.000000      1.000000
  0.090909  0.000000  0.000000      2.000000
  0.000000  0.090909  0.000000      2.000000
 -0.090909  0.090909  0.000000      2.000000
  0.181818  0.000000  0.000000      2.000000
  0.000000  0.181818  0.000000      2.000000
 -0.181818  0.181818  0.000000      2.000000
  0.272727  0.000000  0.000000      2.000000
  0.000000  0.272727  0.000000      2.000000
 -0.272727  0.272727  0.000000      2.000000
  0.363636  0.000000  0.000000      2.000000
  0.000000  0.363636  0.000000      2.000000
 -0.363636  0.363636  0.000000      2.000000
  0.454545  0.000000  0.000000      2.000000
  0.000000  0.454545  0.000000      2.000000
 -0.454545  0.454545  0.000000      2.000000
  0.090909  0.090909  0.000000      2.000000
 -0.090909  0.181818  0.000000      2.000000
 -0.181818  0.090909  0.000000      2.000000
  0.181818  0.090909  0.000000      2.000000
 -0.090909  0.272727  0.000000      2.000000
 -0.272727  0.181818  0.000000      2.000000
 -0.181818  0.272727  0.000000      2.000000
  0.090909  0.181818  0.000000      2.000000
  0.272727 -0.090909  0.000000      2.000000
  0.272727  0.090909  0.000000      2.000000
 -0.090909  0.363636  0.000000      2.000000
 -0.363636  0.272727  0.000000      2.000000
 -0.272727  0.363636  0.000000      2.000000
  0.090909  0.272727  0.000000      2.000000
  0.363636 -0.090909  0.000000      2.000000
  0.363636  0.090909  0.000000      2.000000
 -0.090909  0.454545  0.000000      2.000000
 -0.454545  0.363636  0.000000      2.000000
 -0.363636  0.454545  0.000000      2.000000
  0.090909  0.363636  0.000000      2.000000
  0.454545 -0.090909  0.000000      2.000000
  0.454545  0.090909  0.000000      2.000000
 -0.090909 -0.454545  0.000000      2.000000
  0.454545  0.454545  0.000000      2.000000
  0.181818  0.181818  0.000000      2.000000
 -0.181818  0.363636  0.000000      2.000000
 -0.363636  0.181818  0.000000      2.000000
  0.272727  0.181818  0.000000      2.000000
 -0.181818  0.454545  0.000000      2.000000
 -0.454545  0.272727  0.000000      2.000000
 -0.272727  0.454545  0.000000      2.000000
  0.181818  0.272727  0.000000      2.000000
  0.454545 -0.181818  0.000000      2.000000
  0.363636  0.181818  0.000000      2.000000
 -0.181818 -0.454545  0.000000      2.000000
  0.454545  0.363636  0.000000      2.000000
 -0.363636 -0.454545  0.000000      2.000000
  0.181818  0.363636  0.000000      2.000000
 -0.454545 -0.181818  0.000000      2.000000
  0.272727  0.272727  0.000000      2.000000
 -0.272727 -0.454545  0.000000      2.000000
  0.454545  0.272727  0.000000      2.000000
  0.363636  0.272727  0.000000      2.000000
 -0.272727 -0.363636  0.000000      2.000000
  0.363636  0.363636  0.000000      2.000000
 
 Following cartesian coordinates:
            Coordinates               Weight
  0.000000  0.000000  0.000000      1.000000
  0.022101  0.012760  0.000000      2.000000
  0.000000  0.025520  0.000000      2.000000
 -0.022101  0.012760  0.000000      2.000000
  0.044202  0.025520  0.000000      2.000000
  0.000000  0.051040  0.000000      2.000000
 -0.044202  0.025520  0.000000      2.000000
  0.066303  0.038280  0.000000      2.000000
  0.000000  0.076560  0.000000      2.000000
 -0.066303  0.038280  0.000000      2.000000
  0.088404  0.051040  0.000000      2.000000
  0.000000  0.102080  0.000000      2.000000
 -0.088404  0.051040  0.000000      2.000000
  0.110504  0.063800  0.000000      2.000000
  0.000000  0.127600  0.000000      2.000000
 -0.110504  0.063800  0.000000      2.000000
  0.022101  0.038280  0.000000      2.000000
 -0.022101  0.038280  0.000000      2.000000
 -0.044202  0.000000  0.000000      2.000000
  0.044202  0.051040  0.000000      2.000000
 -0.022101  0.063800  0.000000      2.000000
 -0.066303  0.012760  0.000000      2.000000
 -0.044202  0.051040  0.000000      2.000000
  0.022101  0.063800  0.000000      2.000000
  0.066303  0.012760  0.000000      2.000000
  0.066303  0.063800  0.000000      2.000000
 -0.022101  0.089320  0.000000      2.000000
 -0.088404  0.025520  0.000000      2.000000
 -0.066303  0.063800  0.000000      2.000000
  0.022101  0.089320  0.000000      2.000000
  0.088404  0.025520  0.000000      2.000000
  0.088404  0.076560  0.000000      2.000000
 -0.022101  0.114840  0.000000      2.000000
 -0.110504  0.038280  0.000000      2.000000
 -0.088404  0.076560  0.000000      2.000000
  0.022101  0.114840  0.000000      2.000000
  0.110504  0.038280  0.000000      2.000000
  0.110504  0.089320  0.000000      2.000000
 -0.022101 -0.140360  0.000000      2.000000
  0.110504  0.191399  0.000000      2.000000
  0.044202  0.076560  0.000000      2.000000
 -0.044202  0.076560  0.000000      2.000000
 -0.088404  0.000000  0.000000      2.000000
  0.066303  0.089320  0.000000      2.000000
 -0.044202  0.102080  0.000000      2.000000
 -0.110504  0.012760  0.000000      2.000000
 -0.066303  0.089320  0.000000      2.000000
  0.044202  0.102080  0.000000      2.000000
  0.110504  0.012760  0.000000      2.000000
  0.088404  0.102080  0.000000      2.000000
 -0.044202 -0.153120  0.000000      2.000000
  0.110504  0.165879  0.000000      2.000000
 -0.088404 -0.178639  0.000000      2.000000
  0.044202  0.127600  0.000000      2.000000
 -0.110504 -0.114840  0.000000      2.000000
  0.066303  0.114840  0.000000      2.000000
 -0.066303 -0.165879  0.000000      2.000000
  0.110504  0.140360  0.000000      2.000000
  0.088404  0.127600  0.000000      2.000000
 -0.066303 -0.140360  0.000000      2.000000
  0.088404  0.153120  0.000000      2.000000
 
 
 Subroutine IBZKPT_HF returns following result:
 ==============================================
 
 Found    121 k-points in 1st BZ
 the following    121 k-points will be used (e.g. in the exchange kernel)
 Following reciprocal coordinates:   # in IRBZ
  0.000000  0.000000  0.000000    0.00826446   1 t-inv F
  0.090909  0.000000  0.000000    0.00826446   2 t-inv F
  0.000000  0.090909  0.000000    0.00826446   3 t-inv F
 -0.090909  0.090909  0.000000    0.00826446   4 t-inv F
  0.181818  0.000000  0.000000    0.00826446   5 t-inv F
  0.000000  0.181818  0.000000    0.00826446   6 t-inv F
 -0.181818  0.181818  0.000000    0.00826446   7 t-inv F
  0.272727  0.000000  0.000000    0.00826446   8 t-inv F
  0.000000  0.272727  0.000000    0.00826446   9 t-inv F
 -0.272727  0.272727  0.000000    0.00826446  10 t-inv F
  0.363636  0.000000  0.000000    0.00826446  11 t-inv F
  0.000000  0.363636  0.000000    0.00826446  12 t-inv F
 -0.363636  0.363636  0.000000    0.00826446  13 t-inv F
  0.454545  0.000000  0.000000    0.00826446  14 t-inv F
  0.000000  0.454545  0.000000    0.00826446  15 t-inv F
 -0.454545  0.454545  0.000000    0.00826446  16 t-inv F
  0.090909  0.090909  0.000000    0.00826446  17 t-inv F
 -0.090909  0.181818  0.000000    0.00826446  18 t-inv F
 -0.181818  0.090909  0.000000    0.00826446  19 t-inv F
  0.181818  0.090909  0.000000    0.00826446  20 t-inv F
 -0.090909  0.272727  0.000000    0.00826446  21 t-inv F
 -0.272727  0.181818  0.000000    0.00826446  22 t-inv F
 -0.181818  0.272727  0.000000    0.00826446  23 t-inv F
  0.090909  0.181818  0.000000    0.00826446  24 t-inv F
  0.272727 -0.090909  0.000000    0.00826446  25 t-inv F
  0.272727  0.090909  0.000000    0.00826446  26 t-inv F
 -0.090909  0.363636  0.000000    0.00826446  27 t-inv F
 -0.363636  0.272727  0.000000    0.00826446  28 t-inv F
 -0.272727  0.363636  0.000000    0.00826446  29 t-inv F
  0.090909  0.272727  0.000000    0.00826446  30 t-inv F
  0.363636 -0.090909  0.000000    0.00826446  31 t-inv F
  0.363636  0.090909  0.000000    0.00826446  32 t-inv F
 -0.090909  0.454545  0.000000    0.00826446  33 t-inv F
 -0.454545  0.363636  0.000000    0.00826446  34 t-inv F
 -0.363636  0.454545  0.000000    0.00826446  35 t-inv F
  0.090909  0.363636  0.000000    0.00826446  36 t-inv F
  0.454545 -0.090909  0.000000    0.00826446  37 t-inv F
  0.454545  0.090909  0.000000    0.00826446  38 t-inv F
 -0.090909 -0.454545  0.000000    0.00826446  39 t-inv F
  0.454545  0.454545  0.000000    0.00826446  40 t-inv F
  0.181818  0.181818  0.000000    0.00826446  41 t-inv F
 -0.181818  0.363636  0.000000    0.00826446  42 t-inv F
 -0.363636  0.181818  0.000000    0.00826446  43 t-inv F
  0.272727  0.181818  0.000000    0.00826446  44 t-inv F
 -0.181818  0.454545  0.000000    0.00826446  45 t-inv F
 -0.454545  0.272727  0.000000    0.00826446  46 t-inv F
 -0.272727  0.454545  0.000000    0.00826446  47 t-inv F
  0.181818  0.272727  0.000000    0.00826446  48 t-inv F
  0.454545 -0.181818  0.000000    0.00826446  49 t-inv F
  0.363636  0.181818  0.000000    0.00826446  50 t-inv F
 -0.181818 -0.454545  0.000000    0.00826446  51 t-inv F
  0.454545  0.363636  0.000000    0.00826446  52 t-inv F
 -0.363636 -0.454545  0.000000    0.00826446  53 t-inv F
  0.181818  0.363636  0.000000    0.00826446  54 t-inv F
 -0.454545 -0.181818  0.000000    0.00826446  55 t-inv F
  0.272727  0.272727  0.000000    0.00826446  56 t-inv F
 -0.272727 -0.454545  0.000000    0.00826446  57 t-inv F
  0.454545  0.272727  0.000000    0.00826446  58 t-inv F
  0.363636  0.272727  0.000000    0.00826446  59 t-inv F
 -0.272727 -0.363636  0.000000    0.00826446  60 t-inv F
  0.363636  0.363636  0.000000    0.00826446  61 t-inv F
 -0.090909 -0.000000  0.000000    0.00826446   2 t-inv F
  0.000000 -0.090909  0.000000    0.00826446   3 t-inv F
  0.090909 -0.090909  0.000000    0.00826446   4 t-inv F
 -0.181818 -0.000000  0.000000    0.00826446   5 t-inv F
  0.000000 -0.181818  0.000000    0.00826446   6 t-inv F
  0.181818 -0.181818  0.000000    0.00826446   7 t-inv F
 -0.272727  0.000000  0.000000    0.00826446   8 t-inv F
  0.000000 -0.272727  0.000000    0.00826446   9 t-inv F
  0.272727 -0.272727  0.000000    0.00826446  10 t-inv F
 -0.363636  0.000000  0.000000    0.00826446  11 t-inv F
  0.000000 -0.363636  0.000000    0.00826446  12 t-inv F
  0.363636 -0.363636  0.000000    0.00826446  13 t-inv F
 -0.454545  0.000000  0.000000    0.00826446  14 t-inv F
  0.000000 -0.454545  0.000000    0.00826446  15 t-inv F
  0.454545 -0.454545  0.000000    0.00826446  16 t-inv F
 -0.090909 -0.090909  0.000000    0.00826446  17 t-inv F
  0.090909 -0.181818  0.000000    0.00826446  18 t-inv F
  0.181818 -0.090909  0.000000    0.00826446  19 t-inv F
 -0.181818 -0.090909  0.000000    0.00826446  20 t-inv F
  0.090909 -0.272727  0.000000    0.00826446  21 t-inv F
  0.272727 -0.181818  0.000000    0.00826446  22 t-inv F
  0.181818 -0.272727  0.000000    0.00826446  23 t-inv F
 -0.090909 -0.181818  0.000000    0.00826446  24 t-inv F
 -0.272727  0.090909  0.000000    0.00826446  25 t-inv F
 -0.272727 -0.090909  0.000000    0.00826446  26 t-inv F
  0.090909 -0.363636  0.000000    0.00826446  27 t-inv F
  0.363636 -0.272727  0.000000    0.00826446  28 t-inv F
  0.272727 -0.363636  0.000000    0.00826446  29 t-inv F
 -0.090909 -0.272727  0.000000    0.00826446  30 t-inv F
 -0.363636  0.090909  0.000000    0.00826446  31 t-inv F
 -0.363636 -0.090909  0.000000    0.00826446  32 t-inv F
  0.090909 -0.454545  0.000000    0.00826446  33 t-inv F
  0.454545 -0.363636  0.000000    0.00826446  34 t-inv F
  0.363636 -0.454545  0.000000    0.00826446  35 t-inv F
 -0.090909 -0.363636  0.000000    0.00826446  36 t-inv F
 -0.454545  0.090909  0.000000    0.00826446  37 t-inv F
 -0.454545 -0.090909  0.000000    0.00826446  38 t-inv F
  0.090909  0.454545  0.000000    0.00826446  39 t-inv F
 -0.454545 -0.454545  0.000000    0.00826446  40 t-inv F
 -0.181818 -0.181818  0.000000    0.00826446  41 t-inv F
  0.181818 -0.363636  0.000000    0.00826446  42 t-inv F
  0.363636 -0.181818  0.000000    0.00826446  43 t-inv F
 -0.272727 -0.181818  0.000000    0.00826446  44 t-inv F
  0.181818 -0.454545  0.000000    0.00826446  45 t-inv F
  0.454545 -0.272727  0.000000    0.00826446  46 t-inv F
  0.272727 -0.454545  0.000000    0.00826446  47 t-inv F
 -0.181818 -0.272727  0.000000    0.00826446  48 t-inv F
 -0.454545  0.181818  0.000000    0.00826446  49 t-inv F
 -0.363636 -0.181818  0.000000    0.00826446  50 t-inv F
  0.181818  0.454545  0.000000    0.00826446  51 t-inv F
 -0.454545 -0.363636  0.000000    0.00826446  52 t-inv F
  0.363636  0.454545  0.000000    0.00826446  53 t-inv F
 -0.181818 -0.363636  0.000000    0.00826446  54 t-inv F
  0.454545  0.181818  0.000000    0.00826446  55 t-inv F
 -0.272727 -0.272727  0.000000    0.00826446  56 t-inv F
  0.272727  0.454545  0.000000    0.00826446  57 t-inv F
 -0.454545 -0.272727  0.000000    0.00826446  58 t-inv F
 -0.363636 -0.272727  0.000000    0.00826446  59 t-inv F
  0.272727  0.363636  0.000000    0.00826446  60 t-inv F
 -0.363636 -0.363636  0.000000    0.00826446  61 t-inv F


--------------------------------------------------------------------------------------------------------




 Dimension of arrays:
   k-points           NKPTS =     61   k-points in BZ     NKDIM =     61   number of bands    NBANDS=     16
   number of dos      NEDOS =   6001   number of ions     NIONS =      2
   non local maximal  LDIM  =      8   non local SUM 2l+1 LMDIM =     32
   total plane-waves  NPLWV =  32000
   max r-space proj   IRMAX =      1   max aug-charges    IRDMAX=  60791
   dimension x,y,z NGX =    20 NGY =   20 NGZ =   80
   dimension x,y,z NGXF=    40 NGYF=   40 NGZF=  160
   support grid    NGXF=    80 NGYF=   80 NGZF=  320
   ions per type =               2
   NGX,Y,Z   is equivalent  to a cutoff of   8.08,  8.08,  8.31 a.u.
   NGXF,Y,Z  is equivalent  to a cutoff of  16.17, 16.17, 16.62 a.u.

 SYSTEM =  unknown system                          
 POSCAR =  OUTCAR.0002.+1.out 1.0e-02              

 Startparameter for this run:
   NWRITE =      3    write-flag & timer
   PREC   = accura    normal or accurate (medium, high low for compatibility)
   ISTART =      0    job   : 0-new  1-cont  2-samecut
   ICHARG =      2    charge: 1-file 2-atom 10-const
   ISPIN  =      1    spin polarized calculation?
   LNONCOLLINEAR =      F non collinear calculations
   LSORBIT =      F    spin-orbit coupling
   INIWAV =      1    electr: 0-lowe 1-rand  2-diag
   LASPH  =      T    aspherical Exc in radial PAW
 Electronic Relaxation 1
   ENCUT  =  193.6 eV  14.23 Ry    3.77 a.u.   4.67  4.67 18.15*2*pi/ulx,y,z
   ENINI  =  193.6     initial cutoff
   ENAUG  =  560.6 eV  augmentation charge cutoff
   NELM   =    200;   NELMIN=  6; NELMDL=-12     # of ELM steps 
   EDIFF  = 0.1E-05   stopping-criterion for ELM
   LREAL  =      F    real-space projection
   NLSPLINE    = F    spline interpolate recip. space projectors
   LCOMPAT=      F    compatible to vasp.4.4
   GGA_COMPAT  = T    GGA compatible to vasp.4.4-vasp.4.6
   LMAXPAW     = -100 max onsite density
   LMAXMIX     =    2 max onsite mixed and CHGCAR
   VOSKOWN=      0    Vosko Wilk Nusair interpolation
   ROPT   =    0.00000
 Ionic relaxation
   EDIFFG = 0.1E-04   stopping-criterion for IOM
   NSW    =      0    number of steps for IOM
   NBLOCK =      1;   KBLOCK =      1    inner block; outer block 
   IBRION =     -1    ionic relax: 0-MD 1-quasi-New 2-CG
   NFREE  =      0    steps in history (QN), initial steepest desc. (CG)
   ISIF   =      2    stress and relaxation
   IWAVPR =     10    prediction:  0-non 1-charg 2-wave 3-comb
   ISYM   =      2    0-nonsym 1-usesym 2-fastsym
   LCORR  =      T    Harris-Foulkes like correction to forces

   POTIM  = 0.5000    time-step for ionic-motion
   TEIN   =    0.0    initial temperature
   TEBEG  =    0.0;   TEEND  =   0.0 temperature during run
   SMASS  =  -3.00    Nose mass-parameter (am)
   estimated Nose-frequenzy (Omega)   =  0.10E-29 period in steps = 0.13E+47 mass=  -0.387E-27a.u.
   SCALEE = 1.0000    scale energy and forces
   NPACO  =    256;   APACO  = 10.0  distance and # of slots for P.C.
   PSTRESS=    0.0 pullay stress

  Mass of Ions in am
   POMASS = 121.75
  Ionic Valenz
   ZVAL   =   5.00
  Atomic Wigner-Seitz radii
   RWIGS  =  -1.00
  virtual crystal weights 
   VCA    =   1.00
   NELECT =      10.0000    total number of electrons
   NUPDOWN=      -1.0000    fix difference up-down

 DOS related values:
   EMIN   =  10.00;   EMAX   =-10.00  energy-range for DOS
   EFERMI =   0.00;   METHOD = LEGACY      
   ISMEAR =     0;   SIGMA  =   0.01  broadening in eV -4-tet -1-fermi 0-gaus

 Electronic relaxation 2 (details)
   IALGO  =     38    algorithm
   LDIAG  =      T    sub-space diagonalisation (order eigenvalues)
   LSUBROT=      F    optimize rotation matrix (better conditioning)
   TURBO    =      0    0=normal 1=particle mesh
   IRESTART =      0    0=no restart 2=restart with 2 vectors
   NREBOOT  =      0    no. of reboots
   NMIN     =      0    reboot dimension
   EREF     =   0.00    reference energy to select bands
   IMIX   =      4    mixing-type and parameters
     AMIX     =   0.10;   BMIX     =  0.00
     AMIX_MAG =   0.40;   BMIX_MAG =  0.00
     AMIN     =   0.10
     WC   =   100.;   INIMIX=   1;  MIXPRE=   1;  MAXMIX= -45

 Intra band minimization:
   WEIMIN = 0.0000     energy-eigenvalue tresh-hold
   EBREAK =  0.16E-07  absolut break condition
   DEPER  =   0.30     relativ break condition  

   TIME   =   0.40     timestep for ELM

  volume/ion in A,a.u.               =     117.22       791.06
  Fermi-wavevector in a.u.,A,eV,Ry     =   0.571996  1.080916  4.451547  0.327179
  Thomas-Fermi vector in A             =   1.612688
 
 Write flags
   LWAVE        =      F    write WAVECAR
   LDOWNSAMPLE  =      F    k-point downsampling of WAVECAR
   LCHARG       =      F    write CHGCAR
   LVTOT        =      F    write LOCPOT, total local potential
   LVHAR        =      F    write LOCPOT, Hartree potential only
   LELF         =      F    write electronic localiz. function (ELF)
   LORBIT       =     10    0 simple, 1 ext, 2 COOP (PROOUT), +10 PAW based schemes


 Dipole corrections
   LMONO  =      F    monopole corrections only (constant potential shift)
   LDIPOL =      F    correct potential (dipole corrections)
   IDIPOL =      0    1-x, 2-y, 3-z, 4-all directions 
   EPSILON=  1.0000000 bulk dielectric constant

 Exchange correlation treatment:
   GGA     =    --    GGA type
   LEXCH   =     8    internal setting for exchange type
   LIBXC   =     F    Libxc                    
   VOSKOWN =     0    Vosko Wilk Nusair interpolation
   LHFCALC =     F    Hartree Fock is set to
   LHFONE  =     F    Hartree Fock one center treatment
   AEXX    =    0.0000 exact exchange contribution

 Linear response parameters
   LEPSILON=     T    determine dielectric tensor
   LRPA    =     F    only Hartree local field effects (RPA)
   LNABLA  =     F    use nabla operator in PAW spheres
   LVEL    =     F    velocity operator in full k-point grid
   CSHIFT  =0.1000    complex shift for real part using Kramers Kronig
   OMEGAMAX=  -1.0    maximum frequency
   DEG_THRESHOLD= 0.2000000E-02 threshold for treating states as degnerate
   RTIME   =   -0.100 relaxation time in fs
  (WPLASMAI=    0.000 imaginary part of plasma frequency in eV, 0.658/RTIME)
   DFIELD  = 0.0000000 0.0000000 0.0000000 field for delta impulse in time
 
  Optional k-point grid parameters
   LKPOINTS_OPT  =     F    use optional k-point grid
   KPOINTS_OPT_MODE=     1    mode for optional k-point grid
 
 Orbital magnetization related:
   ORBITALMAG=     F  switch on orbital magnetization
   LCHIMAG   =     F  perturbation theory with respect to B field
   DQ        =  0.001000  dq finite difference perturbation B field
   LLRAUG    =     F  two centre corrections for induced B field
   LBONE     =     F  B-component reconstruction in AE one-centre
   LVGVCALC  =     T  calculate vGv susceptibility
   LVGVAPPL  =     F  apply vGv susceptibility instead of pGv for G=0

 Random number generation:
   RANDOM_GENERATOR = DEFAULT
   PCG_SEED         = not used


--------------------------------------------------------------------------------------------------------


 Static calculation
 charge density and potential will be updated during run
 non-spin polarized calculation
 Variant of blocked Davidson
 Davidson routine will perform the subspace rotation
 perform sub-space diagonalisation
    after iterative eigenvector-optimisation
 modified Broyden-mixing scheme, WC =      100.0
 initial mixing is a Kerker type mixing with AMIX =  0.1000 and BMIX =      0.0001
 Hartree-type preconditioning will be used
 using additional bands           11
 reciprocal scheme for non local part
 use partial core corrections
 calculate Harris-corrections to forces 
   (improved forces if not selfconsistent)
 use gradient corrections 
 use of overlap-Matrix (Vanderbilt PP)
 Gauss-broadening in eV      SIGMA  =   0.01


--------------------------------------------------------------------------------------------------------


  energy-cutoff  :      193.58
  volume of cell :      234.45
      direct lattice vectors                 reciprocal lattice vectors
     4.113366550  0.000000000  0.000000000     0.243109868  0.140359548  0.000000000
    -2.056683275  3.562279927  0.000000000     0.000000000  0.280719096  0.000000000
     0.000000000  0.000000000 16.000000000     0.000000000  0.000000000  0.062500000

  length of vectors
     4.113366550  4.113366550 16.000000000     0.280719096  0.280719096  0.062500000


 
 k-points in units of 2pi/SCALE and weight: kpoints                                 
   0.00000000  0.00000000  0.00000000       0.008
   0.02210090  0.01275996  0.00000000       0.017
   0.00000000  0.02551992  0.00000000       0.017
  -0.02210090  0.01275996  0.00000000       0.017
   0.04420179  0.02551992  0.00000000       0.017
   0.00000000  0.05103984  0.00000000       0.017
  -0.04420179  0.02551992  0.00000000       0.017
   0.06630269  0.03827988  0.00000000       0.017
   0.00000000  0.07655975  0.00000000       0.017
  -0.06630269  0.03827988  0.00000000       0.017
   0.08840359  0.05103984  0.00000000       0.017
   0.00000000  0.10207967  0.00000000       0.017
  -0.08840359  0.05103984  0.00000000       0.017
   0.11050449  0.06379979  0.00000000       0.017
   0.00000000  0.12759959  0.00000000       0.017
  -0.11050449  0.06379979  0.00000000       0.017
   0.02210090  0.03827988  0.00000000       0.017
  -0.02210090  0.03827988  0.00000000       0.017
  -0.04420179  0.00000000  0.00000000       0.017
   0.04420179  0.05103984  0.00000000       0.017
  -0.02210090  0.06379979  0.00000000       0.017
  -0.06630269  0.01275996  0.00000000       0.017
  -0.04420179  0.05103984  0.00000000       0.017
   0.02210090  0.06379979  0.00000000       0.017
   0.06630269  0.01275996  0.00000000       0.017
   0.06630269  0.06379979  0.00000000       0.017
  -0.02210090  0.08931971  0.00000000       0.017
  -0.08840359  0.02551992  0.00000000       0.017
  -0.06630269  0.06379979  0.00000000       0.017
   0.02210090  0.08931971  0.00000000       0.017
   0.08840359  0.02551992  0.00000000       0.017
   0.08840359  0.07655975  0.00000000       0.017
  -0.02210090  0.11483963  0.00000000       0.017
  -0.11050449  0.03827988  0.00000000       0.017
  -0.08840359  0.07655975  0.00000000       0.017
   0.02210090  0.11483963  0.00000000       0.017
   0.11050449  0.03827988  0.00000000       0.017
   0.11050449  0.08931971  0.00000000       0.017
  -0.02210090 -0.14035955  0.00000000       0.017
   0.11050449  0.19139938  0.00000000       0.017
   0.04420179  0.07655975  0.00000000       0.017
  -0.04420179  0.07655975  0.00000000       0.017
  -0.08840359  0.00000000  0.00000000       0.017
   0.06630269  0.08931971  0.00000000       0.017
  -0.04420179  0.10207967  0.00000000       0.017
  -0.11050449  0.01275996  0.00000000       0.017
  -0.06630269  0.08931971  0.00000000       0.017
   0.04420179  0.10207967  0.00000000       0.017
   0.11050449  0.01275996  0.00000000       0.017
   0.08840359  0.10207967  0.00000000       0.017
  -0.04420179 -0.15311951  0.00000000       0.017
   0.11050449  0.16587947  0.00000000       0.017
  -0.08840359 -0.17863942  0.00000000       0.017
   0.04420179  0.12759959  0.00000000       0.017
  -0.11050449 -0.11483963  0.00000000       0.017
   0.06630269  0.11483963  0.00000000       0.017
  -0.06630269 -0.16587947  0.00000000       0.017
   0.11050449  0.14035955  0.00000000       0.017
   0.08840359  0.12759959  0.00000000       0.017
  -0.06630269 -0.14035955  0.00000000       0.017
   0.08840359  0.15311951  0.00000000       0.017
 
 k-points in reciprocal lattice and weights: kpoints                                 
   0.00000000  0.00000000  0.00000000       0.008
   0.09090909  0.00000000  0.00000000       0.017
   0.00000000  0.09090909  0.00000000       0.017
  -0.09090909  0.09090909  0.00000000       0.017
   0.18181818  0.00000000  0.00000000       0.017
   0.00000000  0.18181818  0.00000000       0.017
  -0.18181818  0.18181818  0.00000000       0.017
   0.27272727  0.00000000  0.00000000       0.017
   0.00000000  0.27272727  0.00000000       0.017
  -0.27272727  0.27272727  0.00000000       0.017
   0.36363636  0.00000000  0.00000000       0.017
   0.00000000  0.36363636  0.00000000       0.017
  -0.36363636  0.36363636  0.00000000       0.017
   0.45454545  0.00000000  0.00000000       0.017
   0.00000000  0.45454545  0.00000000       0.017
  -0.45454545  0.45454545  0.00000000       0.017
   0.09090909  0.09090909  0.00000000       0.017
  -0.09090909  0.18181818  0.00000000       0.017
  -0.18181818  0.09090909  0.00000000       0.017
   0.18181818  0.09090909  0.00000000       0.017
  -0.09090909  0.27272727  0.00000000       0.017
  -0.27272727  0.18181818  0.00000000       0.017
  -0.18181818  0.27272727  0.00000000       0.017
   0.09090909  0.18181818  0.00000000       0.017
   0.27272727 -0.09090909  0.00000000       0.017
   0.27272727  0.09090909  0.00000000       0.017
  -0.09090909  0.36363636  0.00000000       0.017
  -0.36363636  0.27272727  0.00000000       0.017
  -0.27272727  0.36363636  0.00000000       0.017
   0.09090909  0.27272727  0.00000000       0.017
   0.36363636 -0.09090909  0.00000000       0.017
   0.36363636  0.09090909  0.00000000       0.017
  -0.09090909  0.45454545  0.00000000       0.017
  -0.45454545  0.36363636  0.00000000       0.017
  -0.36363636  0.45454545  0.00000000       0.017
   0.09090909  0.36363636  0.00000000       0.017
   0.45454545 -0.09090909  0.00000000       0.017
   0.45454545  0.09090909  0.00000000       0.017
  -0.09090909 -0.45454545  0.00000000       0.017
   0.45454545  0.45454545  0.00000000       0.017
   0.18181818  0.18181818  0.00000000       0.017
  -0.18181818  0.36363636  0.00000000       0.017
  -0.36363636  0.18181818  0.00000000       0.017
   0.27272727  0.18181818  0.00000000       0.017
  -0.18181818  0.45454545  0.00000000       0.017
  -0.45454545  0.27272727  0.00000000       0.017
  -0.27272727  0.45454545  0.00000000       0.017
   0.18181818  0.27272727  0.00000000       0.017
   0.45454545 -0.18181818  0.00000000       0.017
   0.36363636  0.18181818  0.00000000       0.017
  -0.18181818 -0.45454545  0.00000000       0.017
   0.45454545  0.36363636  0.00000000       0.017
  -0.36363636 -0.45454545  0.00000000       0.017
   0.18181818  0.36363636  0.00000000       0.017
  -0.45454545 -0.18181818  0.00000000       0.017
   0.27272727  0.27272727  0.00000000       0.017
  -0.27272727 -0.45454545  0.00000000       0.017
   0.45454545  0.27272727  0.00000000       0.017
   0.36363636  0.27272727  0.00000000       0.017
  -0.27272727 -0.36363636  0.00000000       0.017
   0.36363636  0.36363636  0.00000000       0.017
 
 position of ions in fractional coordinates (direct lattice) 
   0.66563236  0.33134895  0.44862540
   0.33436764  0.66865105  0.55137460
 
 position of ions in cartesian coordinates  (Angst):
   2.05651004  1.18035770  7.17800637
   0.00017323  2.38192223  8.82199363
 


--------------------------------------------------------------------------------------------------------


 k-point   1 :   0.0000 0.0000 0.0000  plane waves:    1453
 k-point   2 :   0.0909 0.0000 0.0000  plane waves:    1428
 k-point   3 :   0.0000 0.0909 0.0000  plane waves:    1428
 k-point   4 :  -0.0909 0.0909 0.0000  plane waves:    1428
 k-point   5 :   0.1818 0.0000 0.0000  plane waves:    1446
 k-point   6 :   0.0000 0.1818 0.0000  plane waves:    1446
 k-point   7 :  -0.1818 0.1818 0.0000  plane waves:    1446
 k-point   8 :   0.2727 0.0000 0.0000  plane waves:    1440
 k-point   9 :   0.0000 0.2727 0.0000  plane waves:    1440
 k-point  10 :  -0.2727 0.2727 0.0000  plane waves:    1440
 k-point  11 :   0.3636 0.0000 0.0000  plane waves:    1436
 k-point  12 :   0.0000 0.3636 0.0000  plane waves:    1436
 k-point  13 :  -0.3636 0.3636 0.0000  plane waves:    1436
 k-point  14 :   0.4545 0.0000 0.0000  plane waves:    1444
 k-point  15 :   0.0000 0.4545 0.0000  plane waves:    1444
 k-point  16 :  -0.4545 0.4545 0.0000  plane waves:    1444
 k-point  17 :   0.0909 0.0909 0.0000  plane waves:    1451
 k-point  18 :  -0.0909 0.1818 0.0000  plane waves:    1451
 k-point  19 :  -0.1818 0.0909 0.0000  plane waves:    1451
 k-point  20 :   0.1818 0.0909 0.0000  plane waves:    1438
 k-point  21 :  -0.0909 0.2727 0.0000  plane waves:    1438
 k-point  22 :  -0.2727 0.1818 0.0000  plane waves:    1438
 k-point  23 :  -0.1818 0.2727 0.0000  plane waves:    1438
 k-point  24 :   0.0909 0.1818 0.0000  plane waves:    1438
 k-point  25 :   0.2727-0.0909 0.0000  plane waves:    1438
 k-point  26 :   0.2727 0.0909 0.0000  plane waves:    1431
 k-point  27 :  -0.0909 0.3636 0.0000  plane waves:    1431
 k-point  28 :  -0.3636 0.2727 0.0000  plane waves:    1431
 k-point  29 :  -0.2727 0.3636 0.0000  plane waves:    1431
 k-point  30 :   0.0909 0.2727 0.0000  plane waves:    1431
 k-point  31 :   0.3636-0.0909 0.0000  plane waves:    1431
 k-point  32 :   0.3636 0.0909 0.0000  plane waves:    1433
 k-point  33 :  -0.0909 0.4545 0.0000  plane waves:    1433
 k-point  34 :  -0.4545 0.3636 0.0000  plane waves:    1433
 k-point  35 :  -0.3636 0.4545 0.0000  plane waves:    1433
 k-point  36 :   0.0909 0.3636 0.0000  plane waves:    1433
 k-point  37 :   0.4545-0.0909 0.0000  plane waves:    1433
 k-point  38 :   0.4545 0.0909 0.0000  plane waves:    1442
 k-point  39 :  -0.0909-0.4545 0.0000  plane waves:    1442
 k-point  40 :   0.4545 0.4545 0.0000  plane waves:    1442
 k-point  41 :   0.1818 0.1818 0.0000  plane waves:    1427
 k-point  42 :  -0.1818 0.3636 0.0000  plane waves:    1427
 k-point  43 :  -0.3636 0.1818 0.0000  plane waves:    1427
 k-point  44 :   0.2727 0.1818 0.0000  plane waves:    1434
 k-point  45 :  -0.1818 0.4545 0.0000  plane waves:    1434
 k-point  46 :  -0.4545 0.2727 0.0000  plane waves:    1434
 k-point  47 :  -0.2727 0.4545 0.0000  plane waves:    1434
 k-point  48 :   0.1818 0.2727 0.0000  plane waves:    1434
 k-point  49 :   0.4545-0.1818 0.0000  plane waves:    1434
 k-point  50 :   0.3636 0.1818 0.0000  plane waves:    1424
 k-point  51 :  -0.1818-0.4545 0.0000  plane waves:    1424
 k-point  52 :   0.4545 0.3636 0.0000  plane waves:    1424
 k-point  53 :  -0.3636-0.4545 0.0000  plane waves:    1424
 k-point  54 :   0.1818 0.3636 0.0000  plane waves:    1424
 k-point  55 :  -0.4545-0.1818 0.0000  plane waves:    1424
 k-point  56 :   0.2727 0.2727 0.0000  plane waves:    1411
 k-point  57 :  -0.2727-0.4545 0.0000  plane waves:    1411
 k-point  58 :   0.4545 0.2727 0.0000  plane waves:    1411
 k-point  59 :   0.3636 0.2727 0.0000  plane waves:    1410
 k-point  60 :  -0.2727-0.3636 0.0000  plane waves:    1410
 k-point  61 :   0.3636 0.3636 0.0000  plane waves:    1410

 maximum and minimum number of plane-waves per node :      1453     1410

 maximum number of plane-waves:      1453
 maximum index in each direction: 
   IXMAX=    5   IYMAX=    5   IZMAX=   18
   IXMIN=   -5   IYMIN=   -5   IZMIN=  -18


 serial   3D FFT for wavefunctions
 parallel 3D FFT for charge:
    minimum data exchange during FFTs selected (reduces bandwidth)


 total amount of memory used by VASP MPI-rank0    59114. kBytes
=======================================================================

   base      :      30000. kBytes
   nonl-proj :      22783. kBytes
   fftplans  :       2535. kBytes
   grid      :       2215. kBytes
   one-center:         98. kBytes
   wavefun   :       1483. kBytes
 
     INWAV:  cpu time      0.0000: real time      0.0003
 Broyden mixing: mesh for mixing (old mesh)
   NGX =  9   NGY =  9   NGZ = 37
  (NGX  = 40   NGY  = 40   NGZ  =160)
  gives a total of   2997 points

 initial charge density was supplied:
 charge density of overlapping atoms calculated
 number of electron      10.0000000 magnetization 
 keeping initial charge density in first step


--------------------------------------------------------------------------------------------------------


 Maximum index for augmentation-charges         3586 (set IRDMAX)


--------------------------------------------------------------------------------------------------------


 First call to EWALD:  gamma=   0.287
 Maximum number of real-space cells 4x 4x 1
 Maximum number of reciprocal cells 2x 2x 6

    FEWALD:  cpu time      0.0010: real time      0.0010


--------------------------------------- Ionic step        1  -------------------------------------------




--------------------------------------- Iteration      1(   1)  ---------------------------------------


    POTLOK:  cpu time      0.0114: real time      0.1108
    SETDIJ:  cpu time      0.2839: real time      0.2841
     EDDAV:  cpu time      0.5501: real time      0.5511
       DOS:  cpu time      0.0008: real time      0.0008
    --------------------------------------------
      LOOP:  cpu time      0.8462: real time      0.9468

 eigenvalue-minimisations  :  2176
 total energy-change (2. order) : 0.1579400E+02  (-0.2179319E+03)
 number of electron      10.0000000 magnetization 
 augmentation part       10.0000000 magnetization 

 Free energy of the ion-electron system (eV)
  ---------------------------------------------------
  alpha Z        PSCENC =         2.97593478
  Ewald energy   TEWEN  =       213.92058259
  -Hartree energ DENC   =      -467.82156269
  -exchange      EXHF   =         0.00000000
  -V(xc)+E(xc)   XCENC  =       -92.70008324
  PAW double counting   =       327.35893868     -219.44694627
  entropy T*S    EENTRO =        -0.00018707
  eigenvalues    EBANDS =       -48.38484730
  atomic energy  EATOM  =       299.89217194
  Solvation  Ediel_sol  =         0.00000000
  ---------------------------------------------------
  free energy    TOTEN  =        15.79400142 eV

  energy without entropy =       15.79418849  energy(sigma->0) =       15.79409495


--------------------------------------------------------------------------------------------------------




 average (electrostatic) potential at core
  the test charge radii are     1.1712
  (the norm of the test charge is              1.0000)
       1 -81.4303       2 -81.4303
 
 
 
 E-fermi :   1.1961     XC(G=0):  -3.4380     alpha+bet : -2.6626

 Fermi energy:         1.1960693845

 k-point     1 :       0.0000    0.0000    0.0000
  band No.  band energies     occupation 
      1     -12.4128      2.00000
      2      -7.3517      2.00000
      3      -1.7699      2.00000
      4      -1.0270      2.00000
      5       1.0478      2.00000
      6       2.2050      0.00000
      7       2.4502      0.00000
      8       3.8539      0.00000
      9       4.4100      0.00000
     10       6.1589      0.00000
     11       7.0075      0.00000
     12       8.7279      0.00000
     13       9.9388      0.00000
     14      11.2796      0.00000
     15      11.7570      0.00000
     16      13.3512      0.00000

 k-point     2 :       0.0909    0.0000    0.0000
  band No.  band energies     occupation 
      1     -13.2551      2.00000
      2      -7.3218      2.00000
      3      -1.3725      2.00000
      4       0.8082      2.00000
      5       2.4083      0.00000
      6       2.5881      0.00000
      7       2.8033      0.00000
      8       4.4507      0.00000
      9       5.2654      0.00000
     10       6.1169      0.00000
     11       6.6234      0.00000
     12       7.8916      0.00000
     13       9.1852      0.00000
     14       9.9771      0.00000
     15      11.4763      0.00000
     16      12.6862      0.00000

 k-point     3 :       0.0000    0.0909    0.0000
  band No.  band energies     occupation 
      1     -13.3727      2.00000
      2      -5.8736      2.00000
      3      -2.0592      2.00000
      4       0.1405      2.00000
      5       2.4089      0.00000
      6       2.4768      0.00000
      7       2.7243      0.00000
      8       3.9378      0.00000
      9       4.5553      0.00000
     10       5.3981      0.00000
     11       6.8249      0.00000
     12       7.3545      0.00000
     13       8.7817      0.00000
     14       9.9239      0.00000
     15      10.3907      0.00000
     16      10.8200      0.00000

 k-point     4 :      -0.0909    0.0909    0.0000
  band No.  band energies     occupation 
      1     -12.5880      2.00000
      2      -7.2264      2.00000
      3      -1.7040      2.00000
      4      -0.8467      2.00000
      5       1.2158      0.00523
      6       2.4989      0.00000
      7       2.5691      0.00000
      8       4.3786      0.00000
      9       4.5360      0.00000
     10       5.6959      0.00000
     11       7.8834      0.00000
     12       8.3916      0.00000
     13       9.9956      0.00000
     14      10.6324      0.00000
     15      11.9964      0.00000
     16      12.5627      0.00000

 k-point     5 :       0.1818    0.0000    0.0000
  band No.  band energies     occupation 
      1     -12.8369      2.00000
      2      -6.6325      2.00000
      3      -2.8974      2.00000
      4      -1.1247      2.00000
      5      -0.2092      2.00000
      6       2.5597      0.00000
      7       2.8837      0.00000
      8       3.5305      0.00000
      9       5.0543      0.00000
     10       5.5071      0.00000
     11       6.8483      0.00000
     12       8.3483      0.00000
     13       9.6397      0.00000
     14      10.5632      0.00000
     15      11.5535      0.00000
     16      11.9972      0.00000

 k-point     6 :       0.0000    0.1818    0.0000
  band No.  band energies     occupation 
      1     -12.2974      2.00000
      2      -5.3534      2.00000
      3      -1.7033      2.00000
      4      -0.5699      2.00000
      5       1.0210      2.00000
      6       2.7266      0.00000
      7       3.1385      0.00000
      8       3.3704      0.00000
      9       4.6387      0.00000
     10       6.0400      0.00000
     11       6.8328      0.00000
     12       7.8665      0.00000
     13       9.5832      0.00000
     14      10.4556      0.00000
     15      11.0725      0.00000
     16      12.4520      0.00000

 k-point     7 :      -0.1818    0.1818    0.0000
  band No.  band energies     occupation 
      1     -12.5246      2.00000
      2      -5.3173      2.00000
      3      -1.7001      2.00000
      4      -0.3442      2.00000
      5       2.2083      0.00000
      6       2.7672      0.00000
      7       2.9605      0.00000
      8       4.2912      0.00000
      9       5.4571      0.00000
     10       6.7351      0.00000
     11       7.7388      0.00000
     12       8.7363      0.00000
     13       9.4365      0.00000
     14      10.6915      0.00000
     15      11.8692      0.00000
     16      12.1680      0.00000

 k-point     8 :       0.2727    0.0000    0.0000
  band No.  band energies     occupation 
      1     -13.1326      2.00000
      2      -8.3234      2.00000
      3      -4.8907      2.00000
      4      -2.3071      2.00000
      5      -1.5222      2.00000
      6       0.6021      2.00000
      7       2.3575      0.00000
      8       2.9127      0.00000
      9       3.1791      0.00000
     10       3.7982      0.00000
     11       5.2117      0.00000
     12       5.6765      0.00000
     13       6.0997      0.00000
     14       8.1141      0.00000
     15       8.3141      0.00000
     16       9.6647      0.00000

 k-point     9 :       0.0000    0.2727    0.0000
  band No.  band energies     occupation 
      1     -11.3950      2.00000
      2      -5.5280      2.00000
      3      -4.3702      2.00000
      4      -0.6057      2.00000
      5       1.9705      0.00000
      6       3.0678      0.00000
      7       3.4830      0.00000
      8       4.0009      0.00000
      9       5.5124      0.00000
     10       5.8210      0.00000
     11       6.4346      0.00000
     12       7.5919      0.00000
     13       8.0642      0.00000
     14       9.8395      0.00000
     15      10.5905      0.00000
     16      11.5889      0.00000

 k-point    10 :      -0.2727    0.2727    0.0000
  band No.  band energies     occupation 
      1     -11.4764      2.00000
      2      -4.9244      2.00000
      3      -2.9325      2.00000
      4      -0.5337      2.00000
      5       1.4742      0.00000
      6       2.2295      0.00000
      7       3.5391      0.00000
      8       3.8290      0.00000
      9       4.3458      0.00000
     10       7.0212      0.00000
     11       7.2114      0.00000
     12       8.8249      0.00000
     13       9.8742      0.00000
     14      10.2836      0.00000
     15      11.4009      0.00000
     16      12.3069      0.00000

 k-point    11 :       0.3636    0.0000    0.0000
  band No.  band energies     occupation 
      1     -10.7628      2.00000
      2      -7.5149      2.00000
      3      -4.0775      2.00000
      4      -1.6164      2.00000
      5       1.8104      0.00000
      6       3.0669      0.00000
      7       3.8847      0.00000
      8       4.3417      0.00000
      9       5.3421      0.00000
     10       6.8484      0.00000
     11       7.2064      0.00000
     12       8.1212      0.00000
     13       8.7198      0.00000
     14       9.3738      0.00000
     15      11.2356      0.00000
     16      12.0179      0.00000

 k-point    12 :       0.0000    0.3636    0.0000
  band No.  band energies     occupation 
      1     -11.2461      2.00000
      2      -6.2222      2.00000
      3      -4.3216      2.00000
      4      -1.2338      2.00000
      5      -0.1588      2.00000
      6       1.7477      0.00000
      7       3.7934      0.00000
      8       4.1013      0.00000
      9       4.9525      0.00000
     10       5.7025      0.00000
     11       6.8761      0.00000
     12       7.3247      0.00000
     13       8.7023      0.00000
     14       9.3010      0.00000
     15      10.1045      0.00000
     16      10.7536      0.00000

 k-point    13 :      -0.3636    0.3636    0.0000
  band No.  band energies     occupation 
      1      -8.9529      2.00000
      2      -6.9524      2.00000
      3      -3.5930      2.00000
      4      -0.2581      2.00000
      5       1.7228      0.00000
      6       3.3286      0.00000
      7       3.8166      0.00000
      8       4.2345      0.00000
      9       5.1300      0.00000
     10       6.1226      0.00000
     11       6.4609      0.00000
     12       7.1795      0.00000
     13       9.3654      0.00000
     14      10.1031      0.00000
     15      10.7674      0.00000
     16      12.3125      0.00000

 k-point    14 :       0.4545    0.0000    0.0000
  band No.  band energies     occupation 
      1      -9.7468      2.00000
      2      -6.8480      2.00000
      3      -3.4464      2.00000
      4      -0.4271      2.00000
      5       0.8524      2.00000
      6       2.6357      0.00000
      7       3.6697      0.00000
      8       4.6843      0.00000
      9       5.3463      0.00000
     10       5.8455      0.00000
     11       6.7724      0.00000
     12       7.9558      0.00000
     13       8.7086      0.00000
     14       9.8600      0.00000
     15      11.0057      0.00000
     16      12.2007      0.00000

 k-point    15 :       0.0000    0.4545    0.0000
  band No.  band energies     occupation 
      1      -8.9968      2.00000
      2      -7.5016      2.00000
      3      -3.4453      2.00000
      4      -2.5750      2.00000
      5      -1.3363      2.00000
      6       1.4601      0.00000
      7       3.7208      0.00000
      8       4.1782      0.00000
      9       5.2472      0.00000
     10       5.6197      0.00000
     11       5.9829      0.00000
     12       6.5488      0.00000
     13       8.1413      0.00000
     14       8.6816      0.00000
     15       9.7088      0.00000
     16      11.8034      0.00000

 k-point    16 :      -0.4545    0.4545    0.0000
  band No.  band energies     occupation 
      1     -10.2775      2.00000
      2      -7.6451      2.00000
      3      -2.8107      2.00000
      4      -1.5571      2.00000
      5       0.7363      2.00000
      6       2.9629      0.00000
      7       4.5343      0.00000
      8       5.0026      0.00000
      9       5.4456      0.00000
     10       5.8490      0.00000
     11       7.2582      0.00000
     12       8.6068      0.00000
     13       8.8755      0.00000
     14      10.4110      0.00000
     15      11.2831      0.00000
     16      13.0419      0.00000

 k-point    17 :       0.0909    0.0909    0.0000
  band No.  band energies     occupation 
      1     -12.9989      2.00000
      2      -6.5087      2.00000
      3      -2.2471      2.00000
      4      -0.6817      2.00000
      5       1.1173      2.00000
      6       2.6889      0.00000
      7       2.8947      0.00000
      8       3.9800      0.00000
      9       5.0599      0.00000
     10       5.7688      0.00000
     11       6.9166      0.00000
     12       8.2656      0.00000
     13       9.9884      0.00000
     14      10.6229      0.00000
     15      11.4573      0.00000
     16      12.4153      0.00000

 k-point    18 :      -0.0909    0.1818    0.0000
  band No.  band energies     occupation 
      1     -12.6431      2.00000
      2      -5.8220      2.00000
      3      -2.1219      2.00000
      4      -1.9778      2.00000
      5       0.5420      2.00000
      6       2.1509      0.00000
      7       2.8096      0.00000
      8       3.4165      0.00000
      9       4.9649      0.00000
     10       6.0223      0.00000
     11       6.4160      0.00000
     12       9.2840      0.00000
     13      10.3469      0.00000
     14      11.1182      0.00000
     15      12.0336      0.00000
     16      12.6120      0.00000

 k-point    19 :      -0.1818    0.0909    0.0000
  band No.  band energies     occupation 
      1     -13.0943      2.00000
      2      -5.9334      2.00000
      3      -0.9730      2.00000
      4      -0.2351      2.00000
      5       1.0366      2.00000
      6       2.7422      0.00000
      7       2.9345      0.00000
      8       3.9291      0.00000
      9       4.8227      0.00000
     10       5.5831      0.00000
     11       6.4200      0.00000
     12       8.4066      0.00000
     13       9.5338      0.00000
     14      10.6695      0.00000
     15      11.5074      0.00000
     16      12.6320      0.00000

 k-point    20 :       0.1818    0.0909    0.0000
  band No.  band energies     occupation 
      1     -12.9638      2.00000
      2      -7.7329      2.00000
      3      -4.6765      2.00000
      4      -2.7715      2.00000
      5      -1.7721      2.00000
      6       1.1584      2.00000
      7       2.3473      0.00000
      8       2.7590      0.00000
      9       3.0234      0.00000
     10       4.1944      0.00000
     11       4.7124      0.00000
     12       5.2408      0.00000
     13       6.5005      0.00000
     14       7.8300      0.00000
     15       8.2839      0.00000
     16       9.2660      0.00000

 k-point    21 :      -0.0909    0.2727    0.0000
  band No.  band energies     occupation 
      1     -12.9117      2.00000
      2      -7.8770      2.00000
      3      -4.7495      2.00000
      4      -2.7296      2.00000
      5      -1.7933      2.00000
      6       1.8766      0.00000
      7       2.7250      0.00000
      8       3.0609      0.00000
      9       3.4177      0.00000
     10       4.8301      0.00000
     11       5.2259      0.00000
     12       6.0911      0.00000
     13       7.6544      0.00000
     14       8.2296      0.00000
     15       8.6879      0.00000
     16       9.3468      0.00000

 k-point    22 :      -0.2727    0.1818    0.0000
  band No.  band energies     occupation 
      1     -12.1201      2.00000
      2      -6.9276      2.00000
      3      -3.0129      2.00000
      4      -1.7041      2.00000
      5      -0.6535      2.00000
      6       2.7657      0.00000
      7       3.2268      0.00000
      8       3.8913      0.00000
      9       5.4306      0.00000
     10       6.2323      0.00000
     11       7.0185      0.00000
     12       8.3910      0.00000
     13       9.3751      0.00000
     14      10.3847      0.00000
     15      10.6921      0.00000
     16      11.8639      0.00000

 k-point    23 :      -0.1818    0.2727    0.0000
  band No.  band energies     occupation 
      1     -12.2499      2.00000
      2      -7.0960      2.00000
      3      -2.7616      2.00000
      4      -1.3890      2.00000
      5      -0.6140      2.00000
      6       2.3684      0.00000
      7       3.0650      0.00000
      8       3.6572      0.00000
      9       4.4473      0.00000
     10       5.3932      0.00000
     11       6.3273      0.00000
     12       7.6109      0.00000
     13       9.3990      0.00000
     14      10.3264      0.00000
     15      11.4611      0.00000
     16      13.1759      0.00000

 k-point    24 :       0.0909    0.1818    0.0000
  band No.  band energies     occupation 
      1     -11.7763      2.00000
      2      -6.2582      2.00000
      3      -1.7083      2.00000
      4      -0.2078      2.00000
      5       1.2557      0.00000
      6       2.5365      0.00000
      7       3.2759      0.00000
      8       4.2309      0.00000
      9       4.6806      0.00000
     10       6.5215      0.00000
     11       7.7459      0.00000
     12       8.7147      0.00000
     13       9.7189      0.00000
     14      10.9874      0.00000
     15      11.7353      0.00000
     16      13.0979      0.00000

 k-point    25 :       0.2727   -0.0909    0.0000
  band No.  band energies     occupation 
      1     -13.0699      2.00000
      2      -7.7837      2.00000
      3      -4.7017      2.00000
      4      -2.9991      2.00000
      5      -2.2183      2.00000
      6       1.5099      0.00000
      7       2.6798      0.00000
      8       3.0061      0.00000
      9       3.2589      0.00000
     10       4.2230      0.00000
     11       4.8155      0.00000
     12       5.6477      0.00000
     13       6.6796      0.00000
     14       7.7675      0.00000
     15       8.0427      0.00000
     16       8.8962      0.00000

 k-point    26 :       0.2727    0.0909    0.0000
  band No.  band energies     occupation 
      1     -12.4073      2.00000
      2      -9.1226      2.00000
      3      -4.9122      2.00000
      4      -3.8939      2.00000
      5      -2.5630      2.00000
      6       0.8557      2.00000
      7       2.1517      0.00000
      8       3.1939      0.00000
      9       3.4514      0.00000
     10       4.2036      0.00000
     11       4.4518      0.00000
     12       6.3879      0.00000
     13       6.8727      0.00000
     14       7.8023      0.00000
     15       8.9085      0.00000
     16       9.2639      0.00000

 k-point    27 :      -0.0909    0.3636    0.0000
  band No.  band energies     occupation 
      1     -11.4305      2.00000
      2      -5.0343      2.00000
      3      -2.6046      2.00000
      4      -1.1817      2.00000
      5       0.5695      2.00000
      6       2.9283      0.00000
      7       3.9330      0.00000
      8       4.4691      0.00000
      9       5.1370      0.00000
     10       7.0715      0.00000
     11       7.6705      0.00000
     12       8.3350      0.00000
     13       9.1769      0.00000
     14      10.3181      0.00000
     15      10.8792      0.00000
     16      12.0496      0.00000

 k-point    28 :      -0.3636    0.2727    0.0000
  band No.  band energies     occupation 
      1     -11.3298      2.00000
      2      -6.4259      2.00000
      3      -4.4220      2.00000
      4      -1.8940      2.00000
      5      -0.1483      2.00000
      6       2.2963      0.00000
      7       3.7996      0.00000
      8       4.0148      0.00000
      9       4.8031      0.00000
     10       5.9787      0.00000
     11       7.3575      0.00000
     12       7.9284      0.00000
     13       9.0306      0.00000
     14      10.1492      0.00000
     15      11.2958      0.00000
     16      12.5977      0.00000

 k-point    29 :      -0.2727    0.3636    0.0000
  band No.  band energies     occupation 
      1     -10.5723      2.00000
      2      -5.2528      2.00000
      3      -4.2063      2.00000
      4      -1.5343      2.00000
      5       1.1969      0.90218
      6       2.2115      0.00000
      7       3.6667      0.00000
      8       3.8382      0.00000
      9       5.0123      0.00000
     10       5.9175      0.00000
     11       7.2766      0.00000
     12       9.0612      0.00000
     13       9.4793      0.00000
     14      10.3270      0.00000
     15      11.2043      0.00000
     16      11.9851      0.00000

 k-point    30 :       0.0909    0.2727    0.0000
  band No.  band energies     occupation 
      1     -10.9005      2.00000
      2      -6.7123      2.00000
      3      -3.8160      2.00000
      4      -0.2721      2.00000
      5       1.1534      2.00000
      6       3.2620      0.00000
      7       3.9593      0.00000
      8       4.0790      0.00000
      9       5.1459      0.00000
     10       6.2465      0.00000
     11       6.8180      0.00000
     12       8.0485      0.00000
     13       8.7984      0.00000
     14      10.1635      0.00000
     15      11.0481      0.00000
     16      11.4097      0.00000

 k-point    31 :       0.3636   -0.0909    0.0000
  band No.  band energies     occupation 
      1     -12.4606      2.00000
      2      -7.9229      2.00000
      3      -5.1693      2.00000
      4      -3.7255      2.00000
      5      -1.9266      2.00000
      6       0.0353      2.00000
      7       1.8399      0.00000
      8       2.9314      0.00000
      9       3.6517      0.00000
     10       3.9098      0.00000
     11       5.1511      0.00000
     12       6.1474      0.00000
     13       6.8439      0.00000
     14       7.3367      0.00000
     15       8.4738      0.00000
     16       9.3573      0.00000

 k-point    32 :       0.3636    0.0909    0.0000
  band No.  band energies     occupation 
      1      -9.6640      2.00000
      2      -7.6072      2.00000
      3      -3.1035      2.00000
      4      -2.0037      2.00000
      5       0.2655      2.00000
      6       3.3442      0.00000
      7       4.1446      0.00000
      8       4.7614      0.00000
      9       4.9384      0.00000
     10       6.0815      0.00000
     11       6.9683      0.00000
     12       7.4117      0.00000
     13       9.1124      0.00000
     14       9.6757      0.00000
     15      10.8610      0.00000
     16      11.9179      0.00000

 k-point    33 :      -0.0909    0.4545    0.0000
  band No.  band energies     occupation 
      1     -11.2804      2.00000
      2      -9.1674      2.00000
      3      -5.0824      2.00000
      4      -3.0617      2.00000
      5      -1.7717      2.00000
      6       0.3599      2.00000
      7       2.9400      0.00000
      8       3.5065      0.00000
      9       4.0269      0.00000
     10       4.7164      0.00000
     11       4.9428      0.00000
     12       6.4142      0.00000
     13       6.7252      0.00000
     14       7.5066      0.00000
     15       8.2732      0.00000
     16       9.4221      0.00000

 k-point    34 :      -0.4545    0.3636    0.0000
  band No.  band energies     occupation 
      1      -8.1345      2.00000
      2      -6.6534      2.00000
      3      -3.9057      2.00000
      4      -0.7330      2.00000
      5       1.5882      0.00000
      6       2.4415      0.00000
      7       3.9762      0.00000
      8       4.7164      0.00000
      9       5.1827      0.00000
     10       6.5020      0.00000
     11       7.0777      0.00000
     12       7.8618      0.00000
     13       8.3918      0.00000
     14       9.0770      0.00000
     15      10.1054      0.00000
     16      11.8525      0.00000

 k-point    35 :      -0.3636    0.4545    0.0000
  band No.  band energies     occupation 
      1     -10.0302      2.00000
      2      -5.6532      2.00000
      3      -4.2529      2.00000
      4      -1.8343      2.00000
      5      -1.0371      2.00000
      6       2.2075      0.00000
      7       3.9381      0.00000
      8       4.5968      0.00000
      9       4.9238      0.00000
     10       6.4911      0.00000
     11       6.9909      0.00000
     12       7.2034      0.00000
     13       8.4343      0.00000
     14       9.1645      0.00000
     15       9.6280      0.00000
     16      11.7094      0.00000

 k-point    36 :       0.0909    0.3636    0.0000
  band No.  band energies     occupation 
      1      -9.9431      2.00000
      2      -7.2639      2.00000
      3      -3.6816      2.00000
      4      -1.4976      2.00000
      5       0.7789      2.00000
      6       2.3472      0.00000
      7       3.2713      0.00000
      8       4.5764      0.00000
      9       5.1593      0.00000
     10       6.0719      0.00000
     11       6.8131      0.00000
     12       7.6370      0.00000
     13       8.1873      0.00000
     14       9.4016      0.00000
     15      10.7506      0.00000
     16      12.9579      0.00000

 k-point    37 :       0.4545   -0.0909    0.0000
  band No.  band energies     occupation 
      1     -10.4955      2.00000
      2      -7.6250      2.00000
      3      -3.6956      2.00000
      4      -1.2766      2.00000
      5       0.6012      2.00000
      6       3.1155      0.00000
      7       3.7157      0.00000
      8       4.7612      0.00000
      9       5.6915      0.00000
     10       6.3947      0.00000
     11       7.1967      0.00000
     12       8.0792      0.00000
     13       8.9933      0.00000
     14       9.7001      0.00000
     15      10.0483      0.00000
     16      11.0478      0.00000

 k-point    38 :       0.4545    0.0909    0.0000
  band No.  band energies     occupation 
      1      -9.3055      2.00000
      2      -7.8736      2.00000
      3      -3.1354      2.00000
      4      -2.4223      2.00000
      5      -0.1746      2.00000
      6       2.2241      0.00000
      7       2.7066      0.00000
      8       3.9754      0.00000
      9       5.6119      0.00000
     10       5.9306      0.00000
     11       6.5056      0.00000
     12       7.3709      0.00000
     13       7.7114      0.00000
     14       9.2870      0.00000
     15      10.5407      0.00000
     16      11.8736      0.00000

 k-point    39 :      -0.0909   -0.4545    0.0000
  band No.  band energies     occupation 
      1      -8.6933      2.00000
      2      -7.5555      2.00000
      3      -4.2810      2.00000
      4      -2.0700      2.00000
      5      -0.2018      2.00000
      6       3.4735      0.00000
      7       4.0204      0.00000
      8       4.7713      0.00000
      9       5.6390      0.00000
     10       5.8593      0.00000
     11       6.3742      0.00000
     12       7.7484      0.00000
     13       8.5749      0.00000
     14       9.8049      0.00000
     15      10.8163      0.00000
     16      11.3682      0.00000

 k-point    40 :       0.4545    0.4545    0.0000
  band No.  band energies     occupation 
      1      -9.2668      2.00000
      2      -8.4712      2.00000
      3      -3.5689      2.00000
      4      -1.2171      2.00000
      5       0.9619      2.00000
      6       2.5714      0.00000
      7       4.3707      0.00000
      8       5.5741      0.00000
      9       5.7513      0.00000
     10       6.1398      0.00000
     11       6.5049      0.00000
     12       7.3725      0.00000
     13       7.8424      0.00000
     14      10.2583      0.00000
     15      10.5418      0.00000
     16      12.0616      0.00000

 k-point    41 :       0.1818    0.1818    0.0000
  band No.  band energies     occupation 
      1     -11.5190      2.00000
      2      -6.0106      2.00000
      3      -3.8487      2.00000
      4      -3.1328      2.00000
      5      -0.9575      2.00000
      6       2.0548      0.00000
      7       3.3084      0.00000
      8       3.7587      0.00000
      9       4.6196      0.00000
     10       5.9828      0.00000
     11       6.9022      0.00000
     12       7.5590      0.00000
     13       8.4127      0.00000
     14       9.1134      0.00000
     15       9.9361      0.00000
     16      10.4538      0.00000

 k-point    42 :      -0.1818    0.3636    0.0000
  band No.  band energies     occupation 
      1     -11.7998      2.00000
      2      -6.1908      2.00000
      3      -3.4795      2.00000
      4      -2.0766      2.00000
      5      -0.3697      2.00000
      6       2.6977      0.00000
      7       3.4260      0.00000
      8       4.1726      0.00000
      9       5.2933      0.00000
     10       6.5523      0.00000
     11       7.2961      0.00000
     12       8.5482      0.00000
     13       9.2435      0.00000
     14       9.6570      0.00000
     15      10.5395      0.00000
     16      11.4183      0.00000

 k-point    43 :      -0.3636    0.1818    0.0000
  band No.  band energies     occupation 
      1     -10.7109      2.00000
      2      -6.1624      2.00000
      3      -4.0994      2.00000
      4      -1.4311      2.00000
      5       0.3624      2.00000
      6       2.8949      0.00000
      7       3.6921      0.00000
      8       4.2041      0.00000
      9       4.8236      0.00000
     10       5.8324      0.00000
     11       7.0120      0.00000
     12       7.3072      0.00000
     13       8.4392      0.00000
     14       9.2346      0.00000
     15      11.7177      0.00000
     16      12.3428      0.00000

 k-point    44 :       0.2727    0.1818    0.0000
  band No.  band energies     occupation 
      1     -10.3871      2.00000
      2      -7.7058      2.00000
      3      -3.8676      2.00000
      4      -3.5909      2.00000
      5      -0.2791      2.00000
      6       2.4674      0.00000
      7       2.9425      0.00000
      8       4.6664      0.00000
      9       5.2964      0.00000
     10       6.8557      0.00000
     11       7.1170      0.00000
     12       7.5460      0.00000
     13       8.2424      0.00000
     14       9.5410      0.00000
     15      10.7988      0.00000
     16      11.2896      0.00000

 k-point    45 :      -0.1818    0.4545    0.0000
  band No.  band energies     occupation 
      1     -12.0285      2.00000
      2      -8.2030      2.00000
      3      -5.1200      2.00000
      4      -4.5745      2.00000
      5      -2.1679      2.00000
      6       1.4956      0.00000
      7       2.0290      0.00000
      8       3.8289      0.00000
      9       4.3761      0.00000
     10       4.5805      0.00000
     11       6.4913      0.00000
     12       6.6246      0.00000
     13       6.8230      0.00000
     14       7.5058      0.00000
     15       8.5772      0.00000
     16       9.3467      0.00000

 k-point    46 :      -0.4545    0.2727    0.0000
  band No.  band energies     occupation 
      1     -11.2931      2.00000
      2      -8.5869      2.00000
      3      -4.8480      2.00000
      4      -4.4492      2.00000
      5      -2.1272      2.00000
      6       1.0508      2.00000
      7       3.0967      0.00000
      8       4.0019      0.00000
      9       4.3035      0.00000
     10       5.5434      0.00000
     11       5.8967      0.00000
     12       6.6093      0.00000
     13       7.3345      0.00000
     14       7.7752      0.00000
     15       8.6219      0.00000
     16       9.8327      0.00000

 k-point    47 :      -0.2727    0.4545    0.0000
  band No.  band energies     occupation 
      1     -11.9169      2.00000
      2      -8.0062      2.00000
      3      -5.1731      2.00000
      4      -4.3662      2.00000
      5      -2.5116      2.00000
      6       1.1952      1.09259
      7       1.9388      0.00000
      8       4.0568      0.00000
      9       4.2338      0.00000
     10       4.6855      0.00000
     11       5.0859      0.00000
     12       6.2872      0.00000
     13       7.0077      0.00000
     14       7.8188      0.00000
     15       8.2414      0.00000
     16       8.4782      0.00000

 k-point    48 :       0.1818    0.2727    0.0000
  band No.  band energies     occupation 
      1     -10.8037      2.00000
      2      -5.9955      2.00000
      3      -4.1651      2.00000
      4      -2.9883      2.00000
      5      -0.6029      2.00000
      6       2.5450      0.00000
      7       3.6631      0.00000
      8       4.4010      0.00000
      9       4.7591      0.00000
     10       6.1991      0.00000
     11       8.0958      0.00000
     12       8.3707      0.00000
     13       9.2341      0.00000
     14       9.6596      0.00000
     15      10.4210      0.00000
     16      11.8813      0.00000

 k-point    49 :       0.4545   -0.1818    0.0000
  band No.  band energies     occupation 
      1     -10.0631      2.00000
      2      -6.1868      2.00000
      3      -3.7788      2.00000
      4      -0.8736      2.00000
      5       0.6464      2.00000
      6       2.8992      0.00000
      7       4.0457      0.00000
      8       4.4285      0.00000
      9       6.0935      0.00000
     10       6.6487      0.00000
     11       7.7050      0.00000
     12       8.1264      0.00000
     13       9.1611      0.00000
     14       9.3819      0.00000
     15       9.9220      0.00000
     16      10.8137      0.00000

 k-point    50 :       0.3636    0.1818    0.0000
[...]
    total drift (improves with k-points):  -0.00000 -0.00002  0.00090




--------------------------------------------------------------------------------------------------------


  LATTYP: Found a hexagonal cell.
 ALAT       =     4.1133665497
 C/A-ratio  =     3.8897578922
  
  Lattice vectors:
  
 A1 = (   4.1133665497,   0.0000000000,   0.0000000000)
 A2 = (  -2.0566832748,   3.5622799271,   0.0000000000)
 A3 = (   0.0000000000,   0.0000000000,  16.0000000000)


Analysis of symmetry for initial positions (statically):
=====================================================================
 Subroutine PRICEL returns:
 Original cell was already a primitive cell.
 

 Routine SETGRP: Setting up the symmetry group for a 
 hexagonal supercell.


 Subroutine GETGRP returns: Found  2 space group operations
 (whereof  2 operations were pure point group operations)
 out of a pool of 24 trial point group operations.


The static configuration has the point symmetry S_2 .


Analysis of symmetry for dynamics (positions and initial velocities):
=====================================================================
 Subroutine PRICEL returns:
 Original cell was already a primitive cell.
 

 Routine SETGRP: Setting up the symmetry group for a 
 hexagonal supercell.


 Subroutine GETGRP returns: Found  2 space group operations
 (whereof  2 operations were pure point group operations)
 out of a pool of 24 trial point group operations.


The dynamic configuration has the point symmetry S_2 .


 Subroutine INISYM returns: Found  2 space group operations
 (whereof  2 operations are pure point group operations),
 and found     1 'primitive' translations

 
 KPOINTS: kpoints                                 

Automatic generation of k-mesh.
 Grid dimensions read from file:
 generate k-points for:   11   11    1

 Generating k-lattice:

  Cartesian coordinates                     Fractional coordinates (reciprocal lattice)
     0.022100897  0.012759959  0.000000000     0.090909091  0.000000000  0.000000000
     0.000000000  0.025519918  0.000000000     0.000000000  0.090909091  0.000000000
     0.000000000  0.000000000  0.062500000     0.000000000  0.000000000  1.000000000

  Length of vectors
     0.025519918  0.025519918  0.062500000

  Shift w.r.t. Gamma in fractional coordinates (k-lattice)
     0.000000000  0.000000000  0.000000000

 
 Subroutine IBZKPT returns following result:
 ===========================================
 
 Found     61 irreducible k-points:
 
 Following reciprocal coordinates:
            Coordinates               Weight
  0.000000  0.000000  0.000000      1.000000
  0.090909  0.000000  0.000000      2.000000
  0.000000  0.090909  0.000000      2.000000
 -0.090909  0.090909  0.000000      2.000000
  0.181818  0.000000  0.000000      2.000000
  0.000000  0.181818  0.000000      2.000000
 -0.181818  0.181818  0.000000      2.000000
  0.272727  0.000000  0.000000      2.000000
  0.000000  0.272727  0.000000      2.000000
 -0.272727  0.272727  0.000000      2.000000
  0.363636  0.000000  0.000000      2.000000
  0.000000  0.363636  0.000000      2.000000
 -0.363636  0.363636  0.000000      2.000000
  0.454545  0.000000  0.000000      2.000000
  0.000000  0.454545  0.000000      2.000000
 -0.454545  0.454545  0.000000      2.000000
  0.090909  0.090909  0.000000      2.000000
 -0.090909  0.181818  0.000000      2.000000
 -0.181818  0.090909  0.000000      2.000000
  0.181818  0.090909  0.000000      2.000000
 -0.090909  0.272727  0.000000      2.000000
 -0.272727  0.181818  0.000000      2.000000
 -0.181818  0.272727  0.000000      2.000000
  0.090909  0.181818  0.000000      2.000000
  0.272727 -0.090909  0.000000      2.000000
  0.272727  0.090909  0.000000      2.000000
 -0.090909  0.363636  0.000000      2.000000
 -0.363636  0.272727  0.000000      2.000000
 -0.272727  0.363636  0.000000      2.000000
  0.090909  0.272727  0.000000      2.000000
  0.363636 -0.090909  0.000000      2.000000
  0.363636  0.090909  0.000000      2.000000
 -0.090909  0.454545  0.000000      2.000000
 -0.454545  0.363636  0.000000      2.000000
 -0.363636  0.454545  0.000000      2.000000
  0.090909  0.363636  0.000000      2.000000
  0.454545 -0.090909  0.000000      2.000000
  0.454545  0.090909  0.000000      2.000000
 -0.090909 -0.454545  0.000000      2.000000
  0.454545  0.454545  0.000000      2.000000
  0.181818  0.181818  0.000000      2.000000
 -0.181818  0.363636  0.000000      2.000000
 -0.363636  0.181818  0.000000      2.000000
  0.272727  0.181818  0.000000      2.000000
 -0.181818  0.454545  0.000000      2.000000
 -0.454545  0.272727  0.000000      2.000000
 -0.272727  0.454545  0.000000      2.000000
  0.181818  0.272727  0.000000      2.000000
  0.454545 -0.181818  0.000000      2.000000
  0.363636  0.181818  0.000000      2.000000
 -0.181818 -0.454545  0.000000      2.000000
  0.454545  0.363636  0.000000      2.000000
 -0.363636 -0.454545  0.000000      2.000000
  0.181818  0.363636  0.000000      2.000000
 -0.454545 -0.181818  0.000000      2.000000
  0.272727  0.272727  0.000000      2.000000
 -0.272727 -0.454545  0.000000      2.000000
  0.454545  0.272727  0.000000      2.000000
  0.363636  0.272727  0.000000      2.000000
 -0.272727 -0.363636  0.000000      2.000000
  0.363636  0.363636  0.000000      2.000000
 
 Following cartesian coordinates:
            Coordinates               Weight
  0.000000  0.000000  0.000000      1.000000
  0.022101  0.012760  0.000000      2.000000
  0.000000  0.025520  0.000000      2.000000
 -0.022101  0.012760  0.000000      2.000000
  0.044202  0.025520  0.000000      2.000000
  0.000000  0.051040  0.000000      2.000000
 -0.044202  0.025520  0.000000      2.000000
  0.066303  0.038280  0.000000      2.000000
  0.000000  0.076560  0.000000      2.000000
 -0.066303  0.038280  0.000000      2.000000
  0.088404  0.051040  0.000000      2.000000
  0.000000  0.102080  0.000000      2.000000
 -0.088404  0.051040  0.000000      2.000000
  0.110504  0.063800  0.000000      2.000000
  0.000000  0.127600  0.000000      2.000000
 -0.110504  0.063800  0.000000      2.000000
  0.022101  0.038280  0.000000      2.000000
 -0.022101  0.038280  0.000000      2.000000
 -0.044202  0.000000  0.000000      2.000000
  0.044202  0.051040  0.000000      2.000000
 -0.022101  0.063800  0.000000      2.000000
 -0.066303  0.012760  0.000000      2.000000
 -0.044202  0.051040  0.000000      2.000000
  0.022101  0.063800  0.000000      2.000000
  0.066303  0.012760  0.000000      2.000000
  0.066303  0.063800  0.000000      2.000000
 -0.022101  0.089320  0.000000      2.000000
 -0.088404  0.025520  0.000000      2.000000
 -0.066303  0.063800  0.000000      2.000000
  0.022101  0.089320  0.000000      2.000000
  0.088404  0.025520  0.000000      2.000000
  0.088404  0.076560  0.000000      2.000000
 -0.022101  0.114840  0.000000      2.000000
 -0.110504  0.038280  0.000000      2.000000
 -0.088404  0.076560  0.000000      2.000000
  0.022101  0.114840  0.000000      2.000000
  0.110504  0.038280  0.000000      2.000000
  0.110504  0.089320  0.000000      2.000000
 -0.022101 -0.140360  0.000000      2.000000
  0.110504  0.191399  0.000000      2.000000
  0.044202  0.076560  0.000000      2.000000
 -0.044202  0.076560  0.000000      2.000000
 -0.088404  0.000000  0.000000      2.000000
  0.066303  0.089320  0.000000      2.000000
 -0.044202  0.102080  0.000000      2.000000
 -0.110504  0.012760  0.000000      2.000000
 -0.066303  0.089320  0.000000      2.000000
  0.044202  0.102080  0.000000      2.000000
  0.110504  0.012760  0.000000      2.000000
  0.088404  0.102080  0.000000      2.000000
 -0.044202 -0.153120  0.000000      2.000000
  0.110504  0.165879  0.000000      2.000000
 -0.088404 -0.178639  0.000000      2.000000
  0.044202  0.127600  0.000000      2.000000
 -0.110504 -0.114840  0.000000      2.000000
  0.066303  0.114840  0.000000      2.000000
 -0.066303 -0.165879  0.000000      2.000000
  0.110504  0.140360  0.000000      2.000000
  0.088404  0.127600  0.000000      2.000000
 -0.066303 -0.140360  0.000000      2.000000
  0.088404  0.153120  0.000000      2.000000
 


 MACROSCOPIC STATIC DIELECTRIC TENSOR (including local field effects in DFT)
 ------------------------------------------------------
           5.735426     0.001078     0.000045
           0.001078     5.651810     0.001855
           0.000044     0.001854     1.395816
 ------------------------------------------------------



--------------------------------------------------------------------------------------------------------


  LATTYP: Found a hexagonal cell.
 ALAT       =     4.1133665497
 C/A-ratio  =     3.8897578922
  
  Lattice vectors:
  
 A1 = (   4.1133665497,   0.0000000000,   0.0000000000)
 A2 = (  -2.0566832748,   3.5622799271,   0.0000000000)
 A3 = (   0.0000000000,   0.0000000000,  16.0000000000)


Analysis of symmetry for initial positions (statically):
=====================================================================
 Subroutine PRICEL returns:
 Original cell was already a primitive cell.
 

 Routine SETGRP: Setting up the symmetry group for a 
 hexagonal supercell.


 Subroutine GETGRP returns: Found  2 space group operations
 (whereof  2 operations were pure point group operations)
 out of a pool of 24 trial point group operations.


The static configuration has the point symmetry S_2 .


Analysis of symmetry for dynamics (positions and initial velocities):
=====================================================================
 Subroutine PRICEL returns:
 Original cell was already a primitive cell.
 

 Routine SETGRP: Setting up the symmetry group for a 
 hexagonal supercell.


 Subroutine GETGRP returns: Found  2 space group operations
 (whereof  2 operations were pure point group operations)
 out of a pool of 24 trial point group operations.


The dynamic configuration has the point symmetry S_2 .


 Subroutine INISYM returns: Found  2 space group operations
 (whereof  2 operations are pure point group operations),
 and found     1 'primitive' translations

 
 KPOINTS: kpoints                                 

Automatic generation of k-mesh.
 Grid dimensions read from file:
 generate k-points for:   11   11    1

 Generating k-lattice:

  Cartesian coordinates                     Fractional coordinates (reciprocal lattice)
     0.022100897  0.012759959  0.000000000     0.090909091  0.000000000  0.000000000
     0.000000000  0.025519918  0.000000000     0.000000000  0.090909091  0.000000000
     0.000000000  0.000000000  0.062500000     0.000000000  0.000000000  1.000000000

  Length of vectors
     0.025519918  0.025519918  0.062500000

  Shift w.r.t. Gamma in fractional coordinates (k-lattice)
     0.000000000  0.000000000  0.000000000

 
 Subroutine IBZKPT returns following result:
 ===========================================
 
 Found     61 irreducible k-points:
 
 Following reciprocal coordinates:
            Coordinates               Weight
  0.000000  0.000000  0.000000      1.000000
  0.090909  0.000000  0.000000      2.000000
  0.000000  0.090909  0.000000      2.000000
 -0.090909  0.090909  0.000000      2.000000
  0.181818  0.000000  0.000000      2.000000
  0.000000  0.181818  0.000000      2.000000
 -0.181818  0.181818  0.000000      2.000000
  0.272727  0.000000  0.000000      2.000000
  0.000000  0.272727  0.000000      2.000000
 -0.272727  0.272727  0.000000      2.000000
  0.363636  0.000000  0.000000      2.000000
  0.000000  0.363636  0.000000      2.000000
 -0.363636  0.363636  0.000000      2.000000
  0.454545  0.000000  0.000000      2.000000
  0.000000  0.454545  0.000000      2.000000
 -0.454545  0.454545  0.000000      2.000000
  0.090909  0.090909  0.000000      2.000000
 -0.090909  0.181818  0.000000      2.000000
 -0.181818  0.090909  0.000000      2.000000
  0.181818  0.090909  0.000000      2.000000
 -0.090909  0.272727  0.000000      2.000000
 -0.272727  0.181818  0.000000      2.000000
 -0.181818  0.272727  0.000000      2.000000
  0.090909  0.181818  0.000000      2.000000
  0.272727 -0.090909  0.000000      2.000000
  0.272727  0.090909  0.000000      2.000000
 -0.090909  0.363636  0.000000      2.000000
 -0.363636  0.272727  0.000000      2.000000
 -0.272727  0.363636  0.000000      2.000000
  0.090909  0.272727  0.000000      2.000000
  0.363636 -0.090909  0.000000      2.000000
  0.363636  0.090909  0.000000      2.000000
 -0.090909  0.454545  0.000000      2.000000
 -0.454545  0.363636  0.000000      2.000000
 -0.363636  0.454545  0.000000      2.000000
  0.090909  0.363636  0.000000      2.000000
  0.454545 -0.090909  0.000000      2.000000
  0.454545  0.090909  0.000000      2.000000
 -0.090909 -0.454545  0.000000      2.000000
  0.454545  0.454545  0.000000      2.000000
  0.181818  0.181818  0.000000      2.000000
 -0.181818  0.363636  0.000000      2.000000
 -0.363636  0.181818  0.000000      2.000000
  0.272727  0.181818  0.000000      2.000000
 -0.181818  0.454545  0.000000      2.000000
 -0.454545  0.272727  0.000000      2.000000
 -0.272727  0.454545  0.000000      2.000000
  0.181818  0.272727  0.000000      2.000000
  0.454545 -0.181818  0.000000      2.000000
  0.363636  0.181818  0.000000      2.000000
 -0.181818 -0.454545  0.000000      2.000000
  0.454545  0.363636  0.000000      2.000000
 -0.363636 -0.454545  0.000000      2.000000
  0.181818  0.363636  0.000000      2.000000
 -0.454545 -0.181818  0.000000      2.000000
  0.272727  0.272727  0.000000      2.000000
 -0.272727 -0.454545  0.000000      2.000000
  0.454545  0.272727  0.000000      2.000000
  0.363636  0.272727  0.000000      2.000000
 -0.272727 -0.363636  0.000000      2.000000
  0.363636  0.363636  0.000000      2.000000
 
 Following cartesian coordinates:
            Coordinates               Weight
  0.000000  0.000000  0.000000      1.000000
  0.022101  0.012760  0.000000      2.000000
  0.000000  0.025520  0.000000      2.000000
 -0.022101  0.012760  0.000000      2.000000
  0.044202  0.025520  0.000000      2.000000
  0.000000  0.051040  0.000000      2.000000
 -0.044202  0.025520  0.000000      2.000000
  0.066303  0.038280  0.000000      2.000000
  0.000000  0.076560  0.000000      2.000000
 -0.066303  0.038280  0.000000      2.000000
  0.088404  0.051040  0.000000      2.000000
  0.000000  0.102080  0.000000      2.000000
 -0.088404  0.051040  0.000000      2.000000
  0.110504  0.063800  0.000000      2.000000
  0.000000  0.127600  0.000000      2.000000
 -0.110504  0.063800  0.000000      2.000000
  0.022101  0.038280  0.000000      2.000000
 -0.022101  0.038280  0.000000      2.000000
 -0.044202  0.000000  0.000000      2.000000
  0.044202  0.051040  0.000000      2.000000
 -0.022101  0.063800  0.000000      2.000000
 -0.066303  0.012760  0.000000      2.000000
 -0.044202  0.051040  0.000000      2.000000
  0.022101  0.063800  0.000000      2.000000
  0.066303  0.012760  0.000000      2.000000
  0.066303  0.063800  0.000000      2.000000
 -0.022101  0.089320  0.000000      2.000000
 -0.088404  0.025520  0.000000      2.000000
 -0.066303  0.063800  0.000000      2.000000
  0.022101  0.089320  0.000000      2.000000
  0.088404  0.025520  0.000000      2.000000
  0.088404  0.076560  0.000000      2.000000
 -0.022101  0.114840  0.000000      2.000000
 -0.110504  0.038280  0.000000      2.000000
 -0.088404  0.076560  0.000000      2.000000
  0.022101  0.114840  0.000000      2.000000
  0.110504  0.038280  0.000000      2.000000
  0.110504  0.089320  0.000000      2.000000
 -0.022101 -0.140360  0.000000      2.000000
  0.110504  0.191399  0.000000      2.000000
  0.044202  0.076560  0.000000      2.000000
 -0.044202  0.076560  0.000000      2.000000
 -0.088404  0.000000  0.000000      2.000000
  0.066303  0.089320  0.000000      2.000000
 -0.044202  0.102080  0.000000      2.000000
 -0.110504  0.012760  0.000000      2.000000
 -0.066303  0.089320  0.000000      2.000000
  0.044202  0.102080  0.000000      2.000000
  0.110504  0.012760  0.000000      2.000000
  0.088404  0.102080  0.000000      2.000000
 -0.044202 -0.153120  0.000000      2.000000
  0.110504  0.165879  0.000000      2.000000
 -0.088404 -0.178639  0.000000      2.000000
  0.044202  0.127600  0.000000      2.000000
 -0.110504 -0.114840  0.000000      2.000000
  0.066303  0.114840  0.000000      2.000000
 -0.066303 -0.165879  0.000000      2.000000
  0.110504  0.140360  0.000000      2.000000
  0.088404  0.127600  0.000000      2.000000
 -0.066303 -0.140360  0.000000      2.000000
  0.088404  0.153120  0.000000      2.000000
 


--------------------------------------------------------------------------------------------------------




 MACROSCOPIC STATIC DIELECTRIC TENSOR (including local field effects in DFT)
 ------------------------------------------------------
           5.735426     0.001078     0.000045
           0.001078     5.651810     0.001855
           0.000044     0.001854     1.395816
 ------------------------------------------------------


 PIEZOELECTRIC TENSOR (including local field effects)  for field in x, y, z        (e  Angst)
          XX          YY          ZZ          XY          YZ          ZX
  --------------------------------------------------------------------------------
  x     0.00000     0.00000     0.00000     0.00000     0.00000     0.00000
  y     0.00000     0.00000     0.00000     0.00000     0.00000     0.00000
  z     0.00000     0.00000     0.00000     0.00000     0.00000     0.00000

 PIEZOELECTRIC TENSOR (including local field effects)  for field in x, y, z        (C/m^2)
          XX          YY          ZZ          XY          YZ          ZX
  --------------------------------------------------------------------------------
  x     0.00000     0.00000     0.00000     0.00000     0.00000     0.00000
  y     0.00000     0.00000     0.00000     0.00000     0.00000     0.00000
  z     0.00000     0.00000     0.00000     0.00000     0.00000     0.00000
 
 BORN EFFECTIVE CHARGES (including local field effects) (in |e|, cummulative output)
 ---------------------------------------------------------------------------------
 ion    1
    1     0.00000     0.00000     0.00000
    2     0.00000     0.00000     0.00000
    3     0.00000     0.00000     0.00000
 ion    2
    1     0.00000     0.00000     0.00000
    2     0.00000     0.00000     0.00000
    3     0.00000     0.00000     0.00000


--------------------------------------------------------------------------------------------------------


     LOOP+:  cpu time    106.0849: real time    111.0280
    4ORBIT:  cpu time      0.0000: real time      0.0000



 total charge

# of ion       s       p       d       f       tot
--------------------------------------------------
    1        1.581   1.846   0.079   0.012   3.518
    2        1.581   1.846   0.079   0.012   3.518
--------------------------------------------------
tot          3.162   3.692   0.158   0.025   7.037
 

 total amount of memory used by VASP MPI-rank0    59114. kBytes
=======================================================================

   base      :      30000. kBytes
   nonl-proj :      22783. kBytes
   fftplans  :       2535. kBytes
   grid      :       2215. kBytes
   one-center:         98. kBytes
   wavefun   :       1483. kBytes
 
  
  
 General timing and accounting informations for this job:
 ========================================================
  
                  Total CPU time used (sec):      106.868
                            User time (sec):      106.520
                          System time (sec):        0.348
                         Elapsed time (sec):      113.054
  
                   Maximum memory used (kb):      191796.
                   Average memory used (kb):          N/A
  
                          Minor page faults:        67930
                          Major page faults:         2903
                 Voluntary context switches:          636
