 vasp.6.4.2 20Jul23 (build Nov 14 2023 12:59:38) complex                        
  
 executed on             LinuxIFC date 2023.12.29  16:10:02
 running   16 mpi-ranks, on    1 nodes
 distrk:  each k-point on   16 cores,    1 groups
 distr:  one band on NCORE=   1 cores,   16 groups


--------------------------------------------------------------------------------------------------------


 INCAR:
   ENCUT = 193.577625
   ALGO = Normal
   NELM = 200
   NELMIN = 6
   NELMDL = -12
   EDIFF = 1.0E-6
   AMIX = 0.1
   BMIX = 0.0001
   PREC = Accurate
   IVDW = 0
   ISPIN = 1
   ADDGRID = .TRUE.
   LASPH = .TRUE.
   LREAL = .FALSE.
   LEPSILON = .TRUE.
   ISMEAR = 0
   SIGMA = 0.01
   LORBIT = 10
   NEDOS = 6001
   NWRITE = 3
   LWAVE = .FALSE.
   LCHARG = .FALSE.
   ICHARG = 2
   LELF = .FALSE.
   LVTOT = .FALSE.
   LPLANE = .TRUE.

 POTCAR:    PAW_PBE Sb_GW 21Mar2012               
 -----------------------------------------------------------------------------
|                                                                             |
|           W    W    AA    RRRRR   N    N  II  N    N   GGGG   !!!           |
|           W    W   A  A   R    R  NN   N  II  NN   N  G    G  !!!           |
|           W    W  A    A  R    R  N N  N  II  N N  N  G       !!!           |
|           W WW W  AAAAAA  RRRRR   N  N N  II  N  N N  G  GGG   !            |
|           WW  WW  A    A  R   R   N   NN  II  N   NN  G    G                |
|           W    W  A    A  R    R  N    N  II  N    N   GGGG   !!!           |
|                                                                             |
|     For optimal performance we recommend to set                             |
|       NCORE = 2 up to number-of-cores-per-socket                            |
|     NCORE specifies how many cores store one orbital (NPAR=cpu/NCORE).      |
|     This setting can greatly improve the performance of VASP for DFT.       |
|     The default, NCORE=1 might be grossly inefficient on modern             |
|     multi-core architectures or massively parallel machines. Do your        |
|     own testing! More info at https://www.vasp.at/wiki/index.php/NCORE      |
|     Unfortunately you need to use the default for GW and RPA                |
|     calculations (for HF NCORE is supported but not extensively tested      |
|     yet).                                                                   |
|                                                                             |
 -----------------------------------------------------------------------------

 POTCAR:    PAW_PBE Sb_GW 21Mar2012               
   SHA256 =  0189e04b98a9f0fe6ba073dab8a951dafd9b30e3c29e8799017462f750df8077 Sb_GW/POTCAR          
   COPYR  = (c) Copyright 21Mar2012 Georg Kresse                                                    
   COPYR  = This file is part of the software VASP. Any use, copying, and all other rights are regul
   COPYR  = If you do not have a valid VASP license, you may not use, copy or distribute this file. 
   VRHFIN =Sb: s2p3                                                                                 
   LEXCH  = PE                                                                                      
   EATOM  =   149.9515 eV,   11.0211 Ry                                                             
                                                                                                    
   TITEL  = PAW_PBE Sb_GW 21Mar2012                                                                 
   LULTRA =        F    use ultrasoft PP ?                                                          
   IUNSCR =        1    unscreen: 0-lin 1-nonlin 2-no                                               
   RPACOR =    2.200    partial core radius                                                         
   POMASS =  121.750; ZVAL   =    5.000    mass and valenz                                          
   RCORE  =    2.700    outmost cutoff radius                                                       
   RWIGS  =    2.700; RWIGS  =    1.429    wigner-seitz radius (au A)                               
   ENMAX  =  172.069; ENMIN  =  129.052 eV                                                          
   RCLOC  =    1.607    cutoff for local pot                                                        
   LCOR   =        T    correct aug charges                                                         
   LPAW   =        T    paw PP                                                                      
   EAUG   =  560.612                                                                                
   DEXC   =    0.000                                                                                
   RMAX   =    2.753    core radius for proj-oper                                                   
   RAUG   =    1.300    factor for augmentation sphere                                              
   RDEP   =    2.859    radius for radial grids                                                     
   RDEPT  =    2.199    core radius for aug-charge                                                  
                                                                                                    
   Atomic configuration                                                                             
   13 entries                                                                                       
     n  l   j            E        occ.                                                              
     1  0  0.50    -30298.2797   2.0000                                                             
     2  0  0.50     -4610.2252   2.0000                                                             
     2  1  1.50     -4138.3407   6.0000                                                             
     3  0  0.50      -903.8815   2.0000                                                             
     3  1  1.50      -750.1337   6.0000                                                             
     3  2  2.50      -515.7092  10.0000                                                             
     4  0  0.50      -148.8034   2.0000                                                             
     4  1  1.50      -101.7581   6.0000                                                             
     4  2  2.50       -33.5048  10.0000                                                             
     5  0  0.50       -12.8298   2.0000                                                             
     5  1  0.50        -4.8276   3.0000                                                             
     5  2  1.50        -5.4423   0.0000                                                             
     4  3  2.50        -5.4423   0.0000                                                             
   Description                                                                                      
     l       E           TYP  RCUT    TYP  RCUT                                                     
     0    -12.8297861     23  2.300                                                                 
     0     68.0291300     23  2.300                                                                 
     1     -4.8275512     23  2.300                                                                 
     1     68.0291300     23  2.300                                                                 
     2      2.7211652     23  2.700                                                                 
     2     68.0291300     23  2.700                                                                 
     3     13.6058260     23  2.500                                                                 
     3     40.8174780     23  2.500                                                                 
  local pseudopotential read in
  partial core-charges read in
  partial kinetic energy density read in
  kinetic energy density of atom read in
  atomic valenz-charges read in
  non local Contribution for L=           0  read in
    real space projection operators read in
  non local Contribution for L=           0  read in
    real space projection operators read in
  non local Contribution for L=           1  read in
    real space projection operators read in
  non local Contribution for L=           1  read in
    real space projection operators read in
  non local Contribution for L=           2  read in
    real space projection operators read in
  non local Contribution for L=           2  read in
    real space projection operators read in
  non local Contribution for L=           3  read in
    real space projection operators read in
  non local Contribution for L=           3  read in
    real space projection operators read in
    PAW grid and wavefunctions read in
 
   number of l-projection  operators is LMAX  =           8
   number of lm-projection operators is LMMAX =          32
 
  PAW_PBE Sb_GW 21Mar2012               :
 energy of atom  1       EATOM= -149.9515
 kinetic energy error for atom=    0.0054 (will be added to EATOM!!)
 
 
 POSCAR: OUTCAR.0001.-1.out 1.0e-02
  positions in cartesian coordinates
  No initial velocities read in
 exchange correlation table for  LEXCH =        8
   RHO(1)=    0.500       N(1)  =     2000
   RHO(2)=  100.500       N(2)  =     4000
 


--------------------------------------------------------------------------------------------------------


 ion  position               nearest neighbor table
   1  0.667  0.333  0.448-   2 2.90   2 2.90   2 2.90
   2  0.333  0.667  0.552-   1 2.90   1 2.90   1 2.90
 
  LATTYP: Found a hexagonal cell.
 ALAT       =     4.1133665497
 C/A-ratio  =     3.8897578922
  
  Lattice vectors:
  
 A1 = (   4.1133665497,   0.0000000000,   0.0000000000)
 A2 = (  -2.0566832748,   3.5622799271,   0.0000000000)
 A3 = (   0.0000000000,   0.0000000000,  16.0000000000)


Analysis of symmetry for initial positions (statically):
=====================================================================
 Subroutine PRICEL returns:
 Original cell was already a primitive cell.
 

 Routine SETGRP: Setting up the symmetry group for a 
 hexagonal supercell.


 Subroutine GETGRP returns: Found 12 space group operations
 (whereof 12 operations were pure point group operations)
 out of a pool of 24 trial point group operations.


The static configuration has the point symmetry D_3d.


Analysis of symmetry for dynamics (positions and initial velocities):
=====================================================================
 Subroutine PRICEL returns:
 Original cell was already a primitive cell.
 

 Routine SETGRP: Setting up the symmetry group for a 
 hexagonal supercell.


 Subroutine GETGRP returns: Found 12 space group operations
 (whereof 12 operations were pure point group operations)
 out of a pool of 24 trial point group operations.


The dynamic configuration has the point symmetry D_3d.


 Subroutine INISYM returns: Found 12 space group operations
 (whereof 12 operations are pure point group operations),
 and found     1 'primitive' translations



 irot  :   1
 --------------------------------------------------------------------
 isymop:   1   0   0
           0   1   0
           0   0   1

 gtrans:     0.0000000     0.0000000     0.0000000

 ptrans:     0.0000000     0.0000000     0.0000000
 
 rotmap:
 (   1->   1)  (   2->   2) 


 irot  :   2
 --------------------------------------------------------------------
 isymop:  -1   0   0
           0  -1   0
           0   0  -1

 gtrans:     0.0000000     0.0000000     0.0000000

 ptrans:     0.0000000     0.0000000     0.0000000
 
 rotmap:
 (   1->   2)  (   2->   1) 


 irot  :   3
 --------------------------------------------------------------------
 isymop:   0  -1   0
           1  -1   0
           0   0   1

 gtrans:     0.0000000     0.0000000     0.0000000

 ptrans:     0.0000000     0.0000000     0.0000000
 
 rotmap:
 (   1->   1)  (   2->   2) 


 irot  :   4
 --------------------------------------------------------------------
 isymop:   0   1   0
          -1   1   0
           0   0  -1

 gtrans:     0.0000000     0.0000000     0.0000000

 ptrans:     0.0000000     0.0000000     0.0000000
 
 rotmap:
 (   1->   2)  (   2->   1) 


 irot  :   5
 --------------------------------------------------------------------
 isymop:  -1   1   0
          -1   0   0
           0   0   1

 gtrans:     0.0000000     0.0000000     0.0000000

 ptrans:     0.0000000     0.0000000     0.0000000
 
 rotmap:
 (   1->   1)  (   2->   2) 


 irot  :   6
 --------------------------------------------------------------------
 isymop:   1  -1   0
           1   0   0
           0   0  -1

 gtrans:     0.0000000     0.0000000     0.0000000

 ptrans:     0.0000000     0.0000000     0.0000000
 
 rotmap:
 (   1->   2)  (   2->   1) 


 irot  :   7
 --------------------------------------------------------------------
 isymop:   1  -1   0
           0  -1   0
           0   0  -1

 gtrans:     0.0000000     0.0000000     0.0000000

 ptrans:     0.0000000     0.0000000     0.0000000
 
 rotmap:
 (   1->   2)  (   2->   1) 


 irot  :   8
 --------------------------------------------------------------------
 isymop:  -1   1   0
           0   1   0
           0   0   1

 gtrans:     0.0000000     0.0000000     0.0000000

 ptrans:     0.0000000     0.0000000     0.0000000
 
 rotmap:
 (   1->   1)  (   2->   2) 


 irot  :   9
 --------------------------------------------------------------------
 isymop:  -1   0   0
          -1   1   0
           0   0  -1

 gtrans:     0.0000000     0.0000000     0.0000000

 ptrans:     0.0000000     0.0000000     0.0000000
 
 rotmap:
 (   1->   2)  (   2->   1) 


 irot  :  10
 --------------------------------------------------------------------
 isymop:   1   0   0
           1  -1   0
           0   0   1

 gtrans:     0.0000000     0.0000000     0.0000000

 ptrans:     0.0000000     0.0000000     0.0000000
 
 rotmap:
 (   1->   1)  (   2->   2) 


 irot  :  11
 --------------------------------------------------------------------
 isymop:   0   1   0
           1   0   0
           0   0  -1

 gtrans:     0.0000000     0.0000000     0.0000000

 ptrans:     0.0000000     0.0000000     0.0000000
 
 rotmap:
 (   1->   2)  (   2->   1) 


 irot  :  12
 --------------------------------------------------------------------
 isymop:   0  -1   0
          -1   0   0
           0   0   1

 gtrans:     0.0000000     0.0000000     0.0000000

 ptrans:     0.0000000     0.0000000     0.0000000
 
 rotmap:
 (   1->   1)  (   2->   2) 

----------------------------------------------------------------------------------------

                                     Primitive cell                                     

  volume of cell :     234.4474

  direct lattice vectors                    reciprocal lattice vectors
     4.113366550  0.000000000  0.000000000     0.243109868  0.140359548  0.000000000
    -2.056683275  3.562279927  0.000000000     0.000000000  0.280719096  0.000000000
     0.000000000  0.000000000 16.000000000     0.000000000  0.000000000  0.062500000

  length of vectors
     4.113366550  4.113366550 16.000000000     0.280719096  0.280719096  0.062500000

  position of ions in fractional coordinates (direct lattice)
     0.666666667  0.333333333  0.448183457
     0.333333333  0.666666667  0.551816543

  ion indices of the primitive-cell ions
   primitive index   ion index
                 1           1
                 2           2

----------------------------------------------------------------------------------------

 
 
 KPOINTS: kpoints                                 

Automatic generation of k-mesh.
 Grid dimensions read from file:
 generate k-points for:   11   11    1

 Generating k-lattice:

  Cartesian coordinates                     Fractional coordinates (reciprocal lattice)
     0.022100897  0.012759959  0.000000000     0.090909091  0.000000000  0.000000000
     0.000000000  0.025519918  0.000000000     0.000000000  0.090909091  0.000000000
     0.000000000  0.000000000  0.062500000     0.000000000  0.000000000  1.000000000

  Length of vectors
     0.025519918  0.025519918  0.062500000

  Shift w.r.t. Gamma in fractional coordinates (k-lattice)
     0.000000000  0.000000000  0.000000000

 
 Subroutine IBZKPT returns following result:
 ===========================================
 
 Found     16 irreducible k-points:
 
 Following reciprocal coordinates:
            Coordinates               Weight
  0.000000  0.000000  0.000000      1.000000
  0.090909  0.000000  0.000000      6.000000
  0.181818  0.000000  0.000000      6.000000
  0.272727  0.000000  0.000000      6.000000
  0.363636  0.000000  0.000000      6.000000
  0.454545  0.000000  0.000000      6.000000
  0.090909  0.090909  0.000000      6.000000
  0.181818  0.090909  0.000000     12.000000
  0.272727  0.090909  0.000000     12.000000
  0.363636  0.090909  0.000000     12.000000
  0.454545  0.090909  0.000000      6.000000
  0.181818  0.181818  0.000000      6.000000
  0.272727  0.181818  0.000000     12.000000
  0.363636  0.181818  0.000000     12.000000
  0.272727  0.272727  0.000000      6.000000
  0.363636  0.272727  0.000000      6.000000
 
 Following cartesian coordinates:
            Coordinates               Weight
  0.000000  0.000000  0.000000      1.000000
  0.022101  0.012760  0.000000      6.000000
  0.044202  0.025520  0.000000      6.000000
  0.066303  0.038280  0.000000      6.000000
  0.088404  0.051040  0.000000      6.000000
  0.110504  0.063800  0.000000      6.000000
  0.022101  0.038280  0.000000      6.000000
  0.044202  0.051040  0.000000     12.000000
  0.066303  0.063800  0.000000     12.000000
  0.088404  0.076560  0.000000     12.000000
  0.110504  0.089320  0.000000      6.000000
  0.044202  0.076560  0.000000      6.000000
  0.066303  0.089320  0.000000     12.000000
  0.088404  0.102080  0.000000     12.000000
  0.066303  0.114840  0.000000      6.000000
  0.088404  0.127600  0.000000      6.000000
 
 
 Subroutine IBZKPT_HF returns following result:
 ==============================================
 
 Found    121 k-points in 1st BZ
 the following    121 k-points will be used (e.g. in the exchange kernel)
 Following reciprocal coordinates:   # in IRBZ
  0.000000  0.000000  0.000000    0.00826446   1 t-inv F
  0.090909  0.000000  0.000000    0.00826446   2 t-inv F
  0.181818  0.000000  0.000000    0.00826446   3 t-inv F
  0.272727  0.000000  0.000000    0.00826446   4 t-inv F
  0.363636  0.000000  0.000000    0.00826446   5 t-inv F
  0.454545  0.000000  0.000000    0.00826446   6 t-inv F
  0.090909  0.090909  0.000000    0.00826446   7 t-inv F
  0.181818  0.090909  0.000000    0.00826446   8 t-inv F
  0.272727  0.090909  0.000000    0.00826446   9 t-inv F
  0.363636  0.090909  0.000000    0.00826446  10 t-inv F
  0.454545  0.090909  0.000000    0.00826446  11 t-inv F
  0.181818  0.181818  0.000000    0.00826446  12 t-inv F
  0.272727  0.181818  0.000000    0.00826446  13 t-inv F
  0.363636  0.181818  0.000000    0.00826446  14 t-inv F
  0.272727  0.272727  0.000000    0.00826446  15 t-inv F
  0.363636  0.272727  0.000000    0.00826446  16 t-inv F
 -0.090909 -0.000000  0.000000    0.00826446   2 t-inv F
 -0.090909  0.090909  0.000000    0.00826446   2 t-inv F
  0.090909 -0.090909  0.000000    0.00826446   2 t-inv F
  0.000000 -0.090909  0.000000    0.00826446   2 t-inv F
 -0.000000  0.090909  0.000000    0.00826446   2 t-inv F
 -0.181818 -0.000000  0.000000    0.00826446   3 t-inv F
 -0.181818  0.181818  0.000000    0.00826446   3 t-inv F
  0.181818 -0.181818  0.000000    0.00826446   3 t-inv F
  0.000000 -0.181818  0.000000    0.00826446   3 t-inv F
 -0.000000  0.181818  0.000000    0.00826446   3 t-inv F
 -0.272727  0.000000  0.000000    0.00826446   4 t-inv F
 -0.272727  0.272727  0.000000    0.00826446   4 t-inv F
  0.272727 -0.272727  0.000000    0.00826446   4 t-inv F
  0.000000 -0.272727  0.000000    0.00826446   4 t-inv F
  0.000000  0.272727  0.000000    0.00826446   4 t-inv F
 -0.363636  0.000000  0.000000    0.00826446   5 t-inv F
 -0.363636  0.363636  0.000000    0.00826446   5 t-inv F
  0.363636 -0.363636  0.000000    0.00826446   5 t-inv F
  0.000000 -0.363636  0.000000    0.00826446   5 t-inv F
  0.000000  0.363636  0.000000    0.00826446   5 t-inv F
 -0.454545  0.000000  0.000000    0.00826446   6 t-inv F
 -0.454545  0.454545  0.000000    0.00826446   6 t-inv F
  0.454545 -0.454545  0.000000    0.00826446   6 t-inv F
  0.000000 -0.454545  0.000000    0.00826446   6 t-inv F
  0.000000  0.454545  0.000000    0.00826446   6 t-inv F
 -0.090909 -0.090909  0.000000    0.00826446   7 t-inv F
 -0.181818  0.090909  0.000000    0.00826446   7 t-inv F
  0.181818 -0.090909  0.000000    0.00826446   7 t-inv F
  0.090909 -0.181818  0.000000    0.00826446   7 t-inv F
 -0.090909  0.181818  0.000000    0.00826446   7 t-inv F
 -0.181818 -0.090909  0.000000    0.00826446   8 t-inv F
 -0.272727  0.181818  0.000000    0.00826446   8 t-inv F
  0.272727 -0.181818  0.000000    0.00826446   8 t-inv F
  0.090909 -0.272727  0.000000    0.00826446   8 t-inv F
 -0.090909  0.272727  0.000000    0.00826446   8 t-inv F
  0.181818 -0.272727  0.000000    0.00826446   8 t-inv F
 -0.181818  0.272727  0.000000    0.00826446   8 t-inv F
 -0.272727  0.090909  0.000000    0.00826446   8 t-inv F
  0.272727 -0.090909  0.000000    0.00826446   8 t-inv F
  0.090909  0.181818  0.000000    0.00826446   8 t-inv F
 -0.090909 -0.181818  0.000000    0.00826446   8 t-inv F
 -0.272727 -0.090909  0.000000    0.00826446   9 t-inv F
 -0.363636  0.272727  0.000000    0.00826446   9 t-inv F
  0.363636 -0.272727  0.000000    0.00826446   9 t-inv F
  0.090909 -0.363636  0.000000    0.00826446   9 t-inv F
 -0.090909  0.363636  0.000000    0.00826446   9 t-inv F
  0.272727 -0.363636  0.000000    0.00826446   9 t-inv F
 -0.272727  0.363636  0.000000    0.00826446   9 t-inv F
 -0.363636  0.090909  0.000000    0.00826446   9 t-inv F
  0.363636 -0.090909  0.000000    0.00826446   9 t-inv F
  0.090909  0.272727  0.000000    0.00826446   9 t-inv F
 -0.090909 -0.272727  0.000000    0.00826446   9 t-inv F
 -0.363636 -0.090909  0.000000    0.00826446  10 t-inv F
 -0.454545  0.363636  0.000000    0.00826446  10 t-inv F
  0.454545 -0.363636  0.000000    0.00826446  10 t-inv F
  0.090909 -0.454545  0.000000    0.00826446  10 t-inv F
 -0.090909  0.454545  0.000000    0.00826446  10 t-inv F
  0.363636 -0.454545  0.000000    0.00826446  10 t-inv F
 -0.363636  0.454545  0.000000    0.00826446  10 t-inv F
 -0.454545  0.090909  0.000000    0.00826446  10 t-inv F
  0.454545 -0.090909  0.000000    0.00826446  10 t-inv F
  0.090909  0.363636  0.000000    0.00826446  10 t-inv F
 -0.090909 -0.363636  0.000000    0.00826446  10 t-inv F
 -0.454545 -0.090909  0.000000    0.00826446  11 t-inv F
 -0.545455  0.454545  0.000000    0.00826446  11 t-inv F
  0.545455 -0.454545  0.000000    0.00826446  11 t-inv F
  0.090909 -0.545455  0.000000    0.00826446  11 t-inv F
 -0.090909  0.545455  0.000000    0.00826446  11 t-inv F
 -0.181818 -0.181818  0.000000    0.00826446  12 t-inv F
 -0.363636  0.181818  0.000000    0.00826446  12 t-inv F
  0.363636 -0.181818  0.000000    0.00826446  12 t-inv F
  0.181818 -0.363636  0.000000    0.00826446  12 t-inv F
 -0.181818  0.363636  0.000000    0.00826446  12 t-inv F
 -0.272727 -0.181818  0.000000    0.00826446  13 t-inv F
 -0.454545  0.272727  0.000000    0.00826446  13 t-inv F
  0.454545 -0.272727  0.000000    0.00826446  13 t-inv F
  0.181818 -0.454545  0.000000    0.00826446  13 t-inv F
 -0.181818  0.454545  0.000000    0.00826446  13 t-inv F
  0.272727 -0.454545  0.000000    0.00826446  13 t-inv F
 -0.272727  0.454545  0.000000    0.00826446  13 t-inv F
 -0.454545  0.181818  0.000000    0.00826446  13 t-inv F
  0.454545 -0.181818  0.000000    0.00826446  13 t-inv F
  0.181818  0.272727  0.000000    0.00826446  13 t-inv F
 -0.181818 -0.272727  0.000000    0.00826446  13 t-inv F
 -0.363636 -0.181818  0.000000    0.00826446  14 t-inv F
 -0.545455  0.363636  0.000000    0.00826446  14 t-inv F
  0.545455 -0.363636  0.000000    0.00826446  14 t-inv F
  0.181818 -0.545455  0.000000    0.00826446  14 t-inv F
 -0.181818  0.545455  0.000000    0.00826446  14 t-inv F
  0.363636 -0.545455  0.000000    0.00826446  14 t-inv F
 -0.363636  0.545455  0.000000    0.00826446  14 t-inv F
 -0.545455  0.181818  0.000000    0.00826446  14 t-inv F
  0.545455 -0.181818  0.000000    0.00826446  14 t-inv F
  0.181818  0.363636  0.000000    0.00826446  14 t-inv F
 -0.181818 -0.363636  0.000000    0.00826446  14 t-inv F
 -0.272727 -0.272727  0.000000    0.00826446  15 t-inv F
 -0.545455  0.272727  0.000000    0.00826446  15 t-inv F
  0.545455 -0.272727  0.000000    0.00826446  15 t-inv F
  0.272727 -0.545455  0.000000    0.00826446  15 t-inv F
 -0.272727  0.545455  0.000000    0.00826446  15 t-inv F
 -0.363636 -0.272727  0.000000    0.00826446  16 t-inv F
 -0.636364  0.363636  0.000000    0.00826446  16 t-inv F
  0.636364 -0.363636  0.000000    0.00826446  16 t-inv F
  0.272727 -0.636364  0.000000    0.00826446  16 t-inv F
 -0.272727  0.636364  0.000000    0.00826446  16 t-inv F


--------------------------------------------------------------------------------------------------------




 Dimension of arrays:
   k-points           NKPTS =     16   k-points in BZ     NKDIM =     16   number of bands    NBANDS=     16
   number of dos      NEDOS =   6001   number of ions     NIONS =      2
   non local maximal  LDIM  =      8   non local SUM 2l+1 LMDIM =     32
   total plane-waves  NPLWV =  32000
   max r-space proj   IRMAX =      1   max aug-charges    IRDMAX=  60791
   dimension x,y,z NGX =    20 NGY =   20 NGZ =   80
   dimension x,y,z NGXF=    40 NGYF=   40 NGZF=  160
   support grid    NGXF=    80 NGYF=   80 NGZF=  320
   ions per type =               2
   NGX,Y,Z   is equivalent  to a cutoff of   8.08,  8.08,  8.31 a.u.
   NGXF,Y,Z  is equivalent  to a cutoff of  16.17, 16.17, 16.62 a.u.

 SYSTEM =  unknown system                          
 POSCAR =  OUTCAR.0001.-1.out 1.0e-02              

 Startparameter for this run:
   NWRITE =      3    write-flag & timer
   PREC   = accura    normal or accurate (medium, high low for compatibility)
   ISTART =      0    job   : 0-new  1-cont  2-samecut
   ICHARG =      2    charge: 1-file 2-atom 10-const
   ISPIN  =      1    spin polarized calculation?
   LNONCOLLINEAR =      F non collinear calculations
   LSORBIT =      F    spin-orbit coupling
   INIWAV =      1    electr: 0-lowe 1-rand  2-diag
   LASPH  =      T    aspherical Exc in radial PAW
 Electronic Relaxation 1
   ENCUT  =  193.6 eV  14.23 Ry    3.77 a.u.   4.67  4.67 18.15*2*pi/ulx,y,z
   ENINI  =  193.6     initial cutoff
   ENAUG  =  560.6 eV  augmentation charge cutoff
   NELM   =    200;   NELMIN=  6; NELMDL=-12     # of ELM steps 
   EDIFF  = 0.1E-05   stopping-criterion for ELM
   LREAL  =      F    real-space projection
   NLSPLINE    = F    spline interpolate recip. space projectors
   LCOMPAT=      F    compatible to vasp.4.4
   GGA_COMPAT  = T    GGA compatible to vasp.4.4-vasp.4.6
   LMAXPAW     = -100 max onsite density
   LMAXMIX     =    2 max onsite mixed and CHGCAR
   VOSKOWN=      0    Vosko Wilk Nusair interpolation
   ROPT   =    0.00000
 Ionic relaxation
   EDIFFG = 0.1E-04   stopping-criterion for IOM
   NSW    =      0    number of steps for IOM
   NBLOCK =      1;   KBLOCK =      1    inner block; outer block 
   IBRION =     -1    ionic relax: 0-MD 1-quasi-New 2-CG
   NFREE  =      0    steps in history (QN), initial steepest desc. (CG)
   ISIF   =      2    stress and relaxation
   IWAVPR =     10    prediction:  0-non 1-charg 2-wave 3-comb
   ISYM   =      2    0-nonsym 1-usesym 2-fastsym
   LCORR  =      T    Harris-Foulkes like correction to forces

   POTIM  = 0.5000    time-step for ionic-motion
   TEIN   =    0.0    initial temperature
   TEBEG  =    0.0;   TEEND  =   0.0 temperature during run
   SMASS  =  -3.00    Nose mass-parameter (am)
   estimated Nose-frequenzy (Omega)   =  0.10E-29 period in steps = 0.13E+47 mass=  -0.387E-27a.u.
   SCALEE = 1.0000    scale energy and forces
   NPACO  =    256;   APACO  = 10.0  distance and # of slots for P.C.
   PSTRESS=    0.0 pullay stress

  Mass of Ions in am
   POMASS = 121.75
  Ionic Valenz
   ZVAL   =   5.00
  Atomic Wigner-Seitz radii
   RWIGS  =  -1.00
  virtual crystal weights 
   VCA    =   1.00
   NELECT =      10.0000    total number of electrons
   NUPDOWN=      -1.0000    fix difference up-down

 DOS related values:
   EMIN   =  10.00;   EMAX   =-10.00  energy-range for DOS
   EFERMI =   0.00;   METHOD = LEGACY      
   ISMEAR =     0;   SIGMA  =   0.01  broadening in eV -4-tet -1-fermi 0-gaus

 Electronic relaxation 2 (details)
   IALGO  =     38    algorithm
   LDIAG  =      T    sub-space diagonalisation (order eigenvalues)
   LSUBROT=      F    optimize rotation matrix (better conditioning)
   TURBO    =      0    0=normal 1=particle mesh
   IRESTART =      0    0=no restart 2=restart with 2 vectors
   NREBOOT  =      0    no. of reboots
   NMIN     =      0    reboot dimension
   EREF     =   0.00    reference energy to select bands
   IMIX   =      4    mixing-type and parameters
     AMIX     =   0.10;   BMIX     =  0.00
     AMIX_MAG =   0.40;   BMIX_MAG =  0.00
     AMIN     =   0.10
     WC   =   100.;   INIMIX=   1;  MIXPRE=   1;  MAXMIX= -45

 Intra band minimization:
   WEIMIN = 0.0000     energy-eigenvalue tresh-hold
   EBREAK =  0.16E-07  absolut break condition
   DEPER  =   0.30     relativ break condition  

   TIME   =   0.40     timestep for ELM

  volume/ion in A,a.u.               =     117.22       791.06
  Fermi-wavevector in a.u.,A,eV,Ry     =   0.571996  1.080916  4.451547  0.327179
  Thomas-Fermi vector in A             =   1.612688
 
 Write flags
   LWAVE        =      F    write WAVECAR
   LDOWNSAMPLE  =      F    k-point downsampling of WAVECAR
   LCHARG       =      F    write CHGCAR
   LVTOT        =      F    write LOCPOT, total local potential
   LVHAR        =      F    write LOCPOT, Hartree potential only
   LELF         =      F    write electronic localiz. function (ELF)
   LORBIT       =     10    0 simple, 1 ext, 2 COOP (PROOUT), +10 PAW based schemes


 Dipole corrections
   LMONO  =      F    monopole corrections only (constant potential shift)
   LDIPOL =      F    correct potential (dipole corrections)
   IDIPOL =      0    1-x, 2-y, 3-z, 4-all directions 
   EPSILON=  1.0000000 bulk dielectric constant

 Exchange correlation treatment:
   GGA     =    --    GGA type
   LEXCH   =     8    internal setting for exchange type
   LIBXC   =     F    Libxc                    
   VOSKOWN =     0    Vosko Wilk Nusair interpolation
   LHFCALC =     F    Hartree Fock is set to
   LHFONE  =     F    Hartree Fock one center treatment
   AEXX    =    0.0000 exact exchange contribution

 Linear response parameters
   LEPSILON=     T    determine dielectric tensor
   LRPA    =     F    only Hartree local field effects (RPA)
   LNABLA  =     F    use nabla operator in PAW spheres
   LVEL    =     F    velocity operator in full k-point grid
   CSHIFT  =0.1000    complex shift for real part using Kramers Kronig
   OMEGAMAX=  -1.0    maximum frequency
   DEG_THRESHOLD= 0.2000000E-02 threshold for treating states as degnerate
   RTIME   =   -0.100 relaxation time in fs
  (WPLASMAI=    0.000 imaginary part of plasma frequency in eV, 0.658/RTIME)
   DFIELD  = 0.0000000 0.0000000 0.0000000 field for delta impulse in time
 
  Optional k-point grid parameters
   LKPOINTS_OPT  =     F    use optional k-point grid
   KPOINTS_OPT_MODE=     1    mode for optional k-point grid
 
 Orbital magnetization related:
   ORBITALMAG=     F  switch on orbital magnetization
   LCHIMAG   =     F  perturbation theory with respect to B field
   DQ        =  0.001000  dq finite difference perturbation B field
   LLRAUG    =     F  two centre corrections for induced B field
   LBONE     =     F  B-component reconstruction in AE one-centre
   LVGVCALC  =     T  calculate vGv susceptibility
   LVGVAPPL  =     F  apply vGv susceptibility instead of pGv for G=0

 Random number generation:
   RANDOM_GENERATOR = DEFAULT
   PCG_SEED         = not used


--------------------------------------------------------------------------------------------------------


 Static calculation
 charge density and potential will be updated during run
 non-spin polarized calculation
 Variant of blocked Davidson
 Davidson routine will perform the subspace rotation
 perform sub-space diagonalisation
    after iterative eigenvector-optimisation
 modified Broyden-mixing scheme, WC =      100.0
 initial mixing is a Kerker type mixing with AMIX =  0.1000 and BMIX =      0.0001
 Hartree-type preconditioning will be used
 using additional bands           11
 reciprocal scheme for non local part
 use partial core corrections
 calculate Harris-corrections to forces 
   (improved forces if not selfconsistent)
 use gradient corrections 
 use of overlap-Matrix (Vanderbilt PP)
 Gauss-broadening in eV      SIGMA  =   0.01


--------------------------------------------------------------------------------------------------------


  energy-cutoff  :      193.58
  volume of cell :      234.45
      direct lattice vectors                 reciprocal lattice vectors
     4.113366550  0.000000000  0.000000000     0.243109868  0.140359548  0.000000000
    -2.056683275  3.562279927  0.000000000     0.000000000  0.280719096  0.000000000
     0.000000000  0.000000000 16.000000000     0.000000000  0.000000000  0.062500000

  length of vectors
     4.113366550  4.113366550 16.000000000     0.280719096  0.280719096  0.062500000


 
 k-points in units of 2pi/SCALE and weight: kpoints                                 
   0.00000000  0.00000000  0.00000000       0.008
   0.02210090  0.01275996  0.00000000       0.050
   0.04420179  0.02551992  0.00000000       0.050
   0.06630269  0.03827988  0.00000000       0.050
   0.08840359  0.05103984  0.00000000       0.050
   0.11050449  0.06379979  0.00000000       0.050
   0.02210090  0.03827988  0.00000000       0.050
   0.04420179  0.05103984  0.00000000       0.099
   0.06630269  0.06379979  0.00000000       0.099
   0.08840359  0.07655975  0.00000000       0.099
   0.11050449  0.08931971  0.00000000       0.050
   0.04420179  0.07655975  0.00000000       0.050
   0.06630269  0.08931971  0.00000000       0.099
   0.08840359  0.10207967  0.00000000       0.099
   0.06630269  0.11483963  0.00000000       0.050
   0.08840359  0.12759959  0.00000000       0.050
 
 k-points in reciprocal lattice and weights: kpoints                                 
   0.00000000  0.00000000  0.00000000       0.008
   0.09090909  0.00000000  0.00000000       0.050
   0.18181818  0.00000000  0.00000000       0.050
   0.27272727  0.00000000  0.00000000       0.050
   0.36363636  0.00000000  0.00000000       0.050
   0.45454545  0.00000000  0.00000000       0.050
   0.09090909  0.09090909  0.00000000       0.050
   0.18181818  0.09090909  0.00000000       0.099
   0.27272727  0.09090909  0.00000000       0.099
   0.36363636  0.09090909  0.00000000       0.099
   0.45454545  0.09090909  0.00000000       0.050
   0.18181818  0.18181818  0.00000000       0.050
   0.27272727  0.18181818  0.00000000       0.099
   0.36363636  0.18181818  0.00000000       0.099
   0.27272727  0.27272727  0.00000000       0.050
   0.36363636  0.27272727  0.00000000       0.050
 
 position of ions in fractional coordinates (direct lattice) 
   0.66666667  0.33333333  0.44818346
   0.33333333  0.66666667  0.55181654
 
 position of ions in cartesian coordinates  (Angst):
   2.05668327  1.18742664  7.17093531
   0.00000000  2.37485328  8.82906469
 


--------------------------------------------------------------------------------------------------------


 k-point   1 :   0.0000 0.0000 0.0000  plane waves:    1453
 k-point   2 :   0.0909 0.0000 0.0000  plane waves:    1428
 k-point   3 :   0.1818 0.0000 0.0000  plane waves:    1446
 k-point   4 :   0.2727 0.0000 0.0000  plane waves:    1440
 k-point   5 :   0.3636 0.0000 0.0000  plane waves:    1436
 k-point   6 :   0.4545 0.0000 0.0000  plane waves:    1444
 k-point   7 :   0.0909 0.0909 0.0000  plane waves:    1451
 k-point   8 :   0.1818 0.0909 0.0000  plane waves:    1438
 k-point   9 :   0.2727 0.0909 0.0000  plane waves:    1431
 k-point  10 :   0.3636 0.0909 0.0000  plane waves:    1433
 k-point  11 :   0.4545 0.0909 0.0000  plane waves:    1442
 k-point  12 :   0.1818 0.1818 0.0000  plane waves:    1427
 k-point  13 :   0.2727 0.1818 0.0000  plane waves:    1434
 k-point  14 :   0.3636 0.1818 0.0000  plane waves:    1424
 k-point  15 :   0.2727 0.2727 0.0000  plane waves:    1411
 k-point  16 :   0.3636 0.2727 0.0000  plane waves:    1410

 maximum and minimum number of plane-waves per node :      1453     1410

 maximum number of plane-waves:      1453
 maximum index in each direction: 
   IXMAX=    4   IYMAX=    4   IZMAX=   18
   IXMIN=   -5   IYMIN=   -4   IZMIN=  -18


 serial   3D FFT for wavefunctions
 parallel 3D FFT for charge:
    minimum data exchange during FFTs selected (reduces bandwidth)


 total amount of memory used by VASP MPI-rank0    41247. kBytes
=======================================================================

   base      :      30000. kBytes
   nonl-proj :       6010. kBytes
   fftplans  :       2535. kBytes
   grid      :       2215. kBytes
   one-center:         98. kBytes
   wavefun   :        389. kBytes
 
     INWAV:  cpu time      0.0000: real time      0.0000
 Broyden mixing: mesh for mixing (old mesh)
   NGX =  9   NGY =  9   NGZ = 37
  (NGX  = 40   NGY  = 40   NGZ  =160)
  gives a total of   2997 points

 initial charge density was supplied:
 charge density of overlapping atoms calculated
 number of electron      10.0000000 magnetization 
 keeping initial charge density in first step


--------------------------------------------------------------------------------------------------------


 Maximum index for augmentation-charges         3588 (set IRDMAX)


--------------------------------------------------------------------------------------------------------


 First call to EWALD:  gamma=   0.287
 Maximum number of real-space cells 4x 4x 1
 Maximum number of reciprocal cells 2x 2x 6

    FEWALD:  cpu time      0.0010: real time      0.0010


--------------------------------------- Ionic step        1  -------------------------------------------




--------------------------------------- Iteration      1(   1)  ---------------------------------------


    POTLOK:  cpu time      0.0106: real time      0.0106
    SETDIJ:  cpu time      0.2987: real time      0.2990
     EDDAV:  cpu time      0.1353: real time      0.1355
       DOS:  cpu time      0.0005: real time      0.0005
    --------------------------------------------
      LOOP:  cpu time      0.4450: real time      0.4456

 eigenvalue-minimisations  :   544
 total energy-change (2. order) : 0.1806121E+02  (-0.2153178E+03)
 number of electron      10.0000000 magnetization 
 augmentation part       10.0000000 magnetization 

 Free energy of the ion-electron system (eV)
  ---------------------------------------------------
  alpha Z        PSCENC =         2.97593478
  Ewald energy   TEWEN  =       212.48101127
  -Hartree energ DENC   =      -466.52634807
  -exchange      EXHF   =         0.00000000
  -V(xc)+E(xc)   XCENC  =       -92.71545966
  PAW double counting   =       327.35893868     -219.44694627
  entropy T*S    EENTRO =        -0.00000000
  eigenvalues    EBANDS =       -45.95809004
  atomic energy  EATOM  =       299.89217194
  Solvation  Ediel_sol  =         0.00000000
  ---------------------------------------------------
  free energy    TOTEN  =        18.06121264 eV

  energy without entropy =       18.06121264  energy(sigma->0) =       18.06121264


--------------------------------------------------------------------------------------------------------




 average (electrostatic) potential at core
  the test charge radii are     1.1712
  (the norm of the test charge is              1.0000)
       1 -81.4235       2 -81.4235
 
 
 
 E-fermi :   1.3286     XC(G=0):  -3.4426     alpha+bet : -2.6626

 Fermi energy:         1.3285965201

 k-point     1 :       0.0000    0.0000    0.0000
  band No.  band energies     occupation 
      1     -12.3766      2.00000
      2      -7.3778      2.00000
      3      -1.7955      2.00000
      4      -1.0098      2.00000
      5       1.0643      2.00000
      6       2.2081      0.00000
      7       2.4484      0.00000
      8       3.8631      0.00000
      9       4.4106      0.00000
     10       6.1692      0.00000
     11       7.0194      0.00000
     12       8.7258      0.00000
     13       9.9205      0.00000
     14      11.2676      0.00000
     15      11.7491      0.00000
     16      13.3483      0.00000

 k-point     2 :       0.0909    0.0000    0.0000
  band No.  band energies     occupation 
      1     -13.2163      2.00000
      2      -7.3377      2.00000
      3      -1.3959      2.00000
      4       0.8219      2.00000
      5       2.4110      0.00000
      6       2.5895      0.00000
      7       2.8271      0.00000
      8       4.4464      0.00000
      9       5.2685      0.00000
     10       6.1058      0.00000
     11       6.6112      0.00000
     12       7.8780      0.00000
     13       9.1900      0.00000
     14       9.9907      0.00000
     15      11.4660      0.00000
     16      12.6916      0.00000

 k-point     3 :       0.1818    0.0000    0.0000
  band No.  band energies     occupation 
      1     -12.4089      2.00000
      2      -4.4145      2.00000
      3      -2.2615      2.00000
      4      -0.5979      2.00000
      5       0.3250      2.00000
      6       2.6437      0.00000
      7       3.0201      0.00000
      8       4.5810      0.00000
      9       5.1504      0.00000
     10       5.6976      0.00000
     11       6.5862      0.00000
     12       8.8842      0.00000
     13       9.7530      0.00000
     14      11.6002      0.00000
     15      12.0368      0.00000
     16      12.6224      0.00000

 k-point     4 :       0.2727    0.0000    0.0000
  band No.  band energies     occupation 
      1     -11.9677      2.00000
      2      -5.4242      2.00000
      3      -3.0384      2.00000
      4      -1.1783      2.00000
      5      -0.3581      2.00000
      6       2.3372      0.00000
      7       3.2680      0.00000
      8       3.6317      0.00000
      9       5.3461      0.00000
     10       5.7504      0.00000
     11       6.8548      0.00000
     12       8.2878      0.00000
     13       8.7581      0.00000
     14      10.1676      0.00000
     15      11.0867      0.00000
     16      12.4746      0.00000

 k-point     5 :       0.3636    0.0000    0.0000
  band No.  band energies     occupation 
      1     -10.4249      2.00000
      2      -6.9829      2.00000
      3      -4.8624      2.00000
      4      -1.1558      2.00000
      5       0.3034      2.00000
      6       1.7001      0.00000
      7       3.7877      0.00000
      8       4.1166      0.00000
      9       4.6748      0.00000
     10       5.5841      0.00000
     11       6.9235      0.00000
     12       7.6311      0.00000
     13       8.1722      0.00000
     14       9.0337      0.00000
     15      10.1106      0.00000
     16      10.2781      0.00000

 k-point     6 :       0.4545    0.0000    0.0000
  band No.  band energies     occupation 
      1      -9.1959      2.00000
      2      -6.8162      2.00000
      3      -4.1490      2.00000
      4      -2.6176      2.00000
      5      -0.8812      2.00000
      6       2.1855      0.00000
      7       3.9986      0.00000
      8       4.5388      0.00000
      9       4.8514      0.00000
     10       5.9627      0.00000
     11       6.7878      0.00000
     12       6.9913      0.00000
     13       7.9110      0.00000
     14       8.3790      0.00000
     15       9.2839      0.00000
     16      10.4774      0.00000

 k-point     7 :       0.0909    0.0909    0.0000
  band No.  band energies     occupation 
      1     -13.5404      2.00000
      2      -8.5248      2.00000
      3      -3.3485      2.00000
      4      -2.3788      2.00000
      5      -2.1023      2.00000
      6       1.4469      0.00000
      7       2.2452      0.00000
      8       2.6261      0.00000
      9       3.8002      0.00000
     10       4.2332      0.00000
     11       4.7985      0.00000
     12       5.2276      0.00000
     13       6.6912      0.00000
     14       6.8924      0.00000
     15       8.2777      0.00000
     16       9.1506      0.00000

 k-point     8 :       0.1818    0.0909    0.0000
  band No.  band energies     occupation 
      1     -11.9200      2.00000
      2      -6.5590      2.00000
      3      -2.8017      2.00000
      4      -0.9592      2.00000
      5      -0.5913      2.00000
      6       1.4683      0.00000
      7       2.9472      0.00000
      8       3.4078      0.00000
      9       5.4010      0.00000
     10       5.9418      0.00000
     11       6.6759      0.00000
     12       7.3992      0.00000
     13       8.7516      0.00000
     14       9.5551      0.00000
     15      10.4151      0.00000
     16      11.1088      0.00000

 k-point     9 :       0.2727    0.0909    0.0000
  band No.  band energies     occupation 
      1     -10.4793      2.00000
      2      -4.5189      2.00000
      3      -3.7890      2.00000
      4      -0.3755      2.00000
      5       0.2383      2.00000
      6       2.4994      0.00000
      7       3.0963      0.00000
      8       4.0032      0.00000
      9       5.6836      0.00000
     10       5.8424      0.00000
     11       7.2641      0.00000
     12       7.9859      0.00000
     13       9.1459      0.00000
     14       9.8066      0.00000
     15      10.6286      0.00000
     16      11.2878      0.00000

 k-point    10 :       0.3636    0.0909    0.0000
  band No.  band energies     occupation 
      1     -11.1373      2.00000
      2      -8.3889      2.00000
      3      -5.0975      2.00000
      4      -3.2912      2.00000
      5      -2.7723      2.00000
      6       0.7223      2.00000
      7       1.8677      0.00000
      8       4.0313      0.00000
      9       4.4226      0.00000
     10       4.7643      0.00000
     11       6.3545      0.00000
     12       6.6535      0.00000
     13       6.8594      0.00000
     14       7.7116      0.00000
     15       8.3150      0.00000
     16       9.5232      0.00000

 k-point    11 :       0.4545    0.0909    0.0000
  band No.  band energies     occupation 
      1      -9.6370      2.00000
      2      -6.8338      2.00000
      3      -3.5683      2.00000
      4      -1.3183      2.00000
      5       1.2862      2.00000
      6       3.0483      0.00000
      7       4.2997      0.00000
      8       5.3154      0.00000
      9       5.8443      0.00000
     10       6.5310      0.00000
     11       6.8846      0.00000
     12       7.4713      0.00000
     13       8.4405      0.00000
     14       9.8500      0.00000
     15      10.3739      0.00000
     16      11.5699      0.00000

 k-point    12 :       0.1818    0.1818    0.0000
  band No.  band energies     occupation 
      1     -11.6013      2.00000
      2      -6.3314      2.00000
      3      -4.2209      2.00000
      4      -2.6326      2.00000
      5       0.6309      2.00000
      6       3.4796      0.00000
      7       3.6162      0.00000
      8       4.0116      0.00000
      9       6.0912      0.00000
     10       6.4549      0.00000
     11       6.8684      0.00000
     12       7.5052      0.00000
     13       8.3093      0.00000
     14       9.9130      0.00000
     15      10.5965      0.00000
     16      10.9681      0.00000

 k-point    13 :       0.2727    0.1818    0.0000
  band No.  band energies     occupation 
      1     -10.3254      2.00000
      2      -7.4210      2.00000
      3      -4.0011      2.00000
      4      -2.9450      2.00000
      5      -0.4273      2.00000
      6       3.1434      0.00000
      7       3.8436      0.00000
      8       4.8127      0.00000
      9       5.2748      0.00000
     10       6.1873      0.00000
     11       7.4787      0.00000
     12       8.2199      0.00000
     13       8.3327      0.00000
     14       9.6113      0.00000
     15      10.4860      0.00000
     16      11.9453      0.00000

 k-point    14 :       0.3636    0.1818    0.0000
  band No.  band energies     occupation 
      1      -9.0841      2.00000
      2      -6.3969      2.00000
      3      -2.9125      2.00000
      4      -1.2759      2.00000
      5       0.3848      2.00000
      6       3.9509      0.00000
      7       4.5921      0.00000
      8       5.1605      0.00000
      9       6.1756      0.00000
     10       6.5968      0.00000
     11       7.0346      0.00000
     12       8.1784      0.00000
     13       8.7861      0.00000
     14       9.7222      0.00000
     15      10.0961      0.00000
     16      11.3171      0.00000

 k-point    15 :       0.2727    0.2727    0.0000
  band No.  band energies     occupation 
      1      -9.3089      2.00000
      2      -6.3938      2.00000
      3      -3.1182      2.00000
      4      -2.1145      2.00000
      5       1.5495      0.00000
      6       3.9131      0.00000
      7       4.9210      0.00000
      8       5.8172      0.00000
      9       6.2316      0.00000
     10       7.0622      0.00000
     11       7.6895      0.00000
     12       8.2039      0.00000
     13       8.4274      0.00000
     14       9.4131      0.00000
     15      10.4991      0.00000
     16      10.9179      0.00000

 k-point    16 :       0.3636    0.2727    0.0000
  band No.  band energies     occupation 
      1      -9.1293      2.00000
      2      -6.3940      2.00000
      3      -4.3248      2.00000
      4      -2.4059      2.00000
      5      -1.0323      2.00000
      6       2.8059      0.00000
      7       4.8084      0.00000
      8       5.6592      0.00000
      9       6.1741      0.00000
     10       6.6147      0.00000
     11       7.2046      0.00000
     12       7.5297      0.00000
     13       7.9732      0.00000
     14       8.6973      0.00000
     15      10.1542      0.00000
     16      11.9627      0.00000


--------------------------------------------------------------------------------------------------------


 soft charge-density along one line, spin component           1
         0         1         2         3         4         5         6         7         8         9
 total charge-density along one line
 
 pseudopotential strength for first ion, spin component:           1
 34.104 -21.134   0.000   0.024  -0.000  -0.000  -0.038   0.000
-21.134  31.183  -0.000  -0.008   0.000   0.000   0.007  -0.000
  0.000  -0.000   7.217   0.000   0.000 -12.170  -0.000  -0.000
  0.024  -0.008   0.000   7.216  -0.000  -0.000 -12.169   0.000
 -0.000   0.000   0.000  -0.000   7.217  -0.000   0.000 -12.170
 -0.000   0.000 -12.170  -0.000  -0.000  31.636   0.000   0.000
 -0.038   0.007  -0.000 -12.169   0.000   0.000  31.634  -0.000
  0.000  -0.000  -0.000   0.000 -12.170   0.000  -0.000  31.636
  0.000  -0.000  -0.000  -0.000   0.003   0.000   0.000  -0.003
  0.000  -0.000   0.012   0.000  -0.000  -0.016  -0.000   0.000
 -0.001   0.001   0.000   0.009  -0.000  -0.000  -0.014   0.000
 -0.000   0.000  -0.000  -0.000   0.012   0.000   0.000  -0.016
 -0.000   0.000   0.003   0.000   0.000  -0.003  -0.000  -0.000
 -0.000   0.000   0.000   0.000  -0.004  -0.000  -0.000   0.005
 -0.000   0.000  -0.020  -0.000   0.000   0.030   0.000  -0.000
  0.002  -0.001  -0.000  -0.017   0.000   0.000   0.027  -0.000
  0.000  -0.000   0.000   0.000  -0.020  -0.000  -0.000   0.030
  0.000  -0.000  -0.004  -0.000  -0.000   0.005   0.000   0.000
  0.001   0.002  -0.000   0.000   0.000   0.000   0.000  -0.000
 -0.000  -0.000  -0.000   0.000   0.000   0.000  -0.000   0.000
  0.000   0.000  -0.000   0.000  -0.000   0.000   0.000  -0.000
 -0.001  -0.002   0.000  -0.000  -0.000   0.000  -0.000  -0.000
 -0.000  -0.000  -0.000  -0.000  -0.000  -0.000  -0.000   0.000
  0.000   0.000   0.000  -0.000  -0.000   0.000   0.000   0.000
  0.000   0.000  -0.000   0.000  -0.000  -0.000   0.000  -0.000
 -0.006  -0.002   0.000  -0.002  -0.000  -0.000   0.001   0.000
  0.000   0.000   0.000  -0.000  -0.002  -0.000   0.000   0.001
 -0.000  -0.000   0.000  -0.000   0.000  -0.000   0.000  -0.000
  0.006   0.001  -0.000   0.002   0.000   0.000  -0.002  -0.000
  0.000   0.000   0.000   0.000   0.000  -0.000  -0.000  -0.000
 -0.000  -0.000  -0.002   0.000   0.000   0.001  -0.000  -0.000
 -0.000  -0.000   0.000  -0.000   0.000  -0.000   0.000  -0.000
 total augmentation occupancy for first ion, spin component:           1
  2.000   0.000   0.000   0.000   0.000   0.000   0.000   0.000   0.000   0.000   0.000   0.000   0.000   0.000   0.000   0.000
  0.000   0.000   0.000   0.000   0.000   0.000   0.000   0.000   0.000   0.000   0.000   0.000   0.000   0.000   0.000   0.000
  0.000   0.000   1.000   0.000   0.000   0.000   0.000   0.000   0.000   0.000   0.000   0.000   0.000   0.000   0.000   0.000
  0.000   0.000   0.000   1.000   0.000   0.000   0.000   0.000   0.000   0.000   0.000   0.000   0.000   0.000   0.000   0.000
  0.000   0.000   0.000   0.000   1.000   0.000   0.000   0.000   0.000   0.000   0.000   0.000   0.000   0.000   0.000   0.000
  0.000   0.000   0.000   0.000   0.000   0.000   0.000   0.000   0.000   0.000   0.000   0.000   0.000   0.000   0.000   0.000
  0.000   0.000   0.000   0.000   0.000   0.000   0.000   0.000   0.000   0.000   0.000   0.000   0.000   0.000   0.000   0.000
  0.000   0.000   0.000   0.000   0.000   0.000   0.000   0.000   0.000   0.000   0.000   0.000   0.000   0.000   0.000   0.000
  0.000   0.000   0.000   0.000   0.000   0.000   0.000   0.000   0.000   0.000   0.000   0.000   0.000   0.000   0.000   0.000
  0.000   0.000   0.000   0.000   0.000   0.000   0.000   0.000   0.000   0.000   0.000   0.000   0.000   0.000   0.000   0.000
  0.000   0.000   0.000   0.000   0.000   0.000   0.000   0.000   0.000   0.000   0.000   0.000   0.000   0.000   0.000   0.000
  0.000   0.000   0.000   0.000   0.000   0.000   0.000   0.000   0.000   0.000   0.000   0.000   0.000   0.000   0.000   0.000
  0.000   0.000   0.000   0.000   0.000   0.000   0.000   0.000   0.000   0.000   0.000   0.000   0.000   0.000   0.000   0.000
  0.000   0.000   0.000   0.000   0.000   0.000   0.000   0.000   0.000   0.000   0.000   0.000   0.000   0.000   0.000   0.000
  0.000   0.000   0.000   0.000   0.000   0.000   0.000   0.000   0.000   0.000   0.000   0.000   0.000   0.000   0.000   0.000
  0.000   0.000   0.000   0.000   0.000   0.000   0.000   0.000   0.000   0.000   0.000   0.000   0.000   0.000   0.000   0.000
  0.000   0.000   0.000   0.000   0.000   0.000   0.000   0.000   0.000   0.000   0.000   0.000   0.000   0.000   0.000   0.000
  0.000   0.000   0.000   0.000   0.000   0.000   0.000   0.000   0.000   0.000   0.000   0.000   0.000   0.000   0.000   0.000
  0.000   0.000   0.000   0.000   0.000   0.000   0.000   0.000   0.000   0.000   0.000   0.000   0.000   0.000   0.000   0.000
  0.000   0.000   0.000   0.000   0.000   0.000   0.000   0.000   0.000   0.000   0.000   0.000   0.000   0.000   0.000   0.000
  0.000   0.000   0.000   0.000   0.000   0.000   0.000   0.000   0.000   0.000   0.000   0.000   0.000   0.000   0.000   0.000
  0.000   0.000   0.000   0.000   0.000   0.000   0.000   0.000   0.000   0.000   0.000   0.000   0.000   0.000   0.000   0.000
  0.000   0.000   0.000   0.000   0.000   0.000   0.000   0.000   0.000   0.000   0.000   0.000   0.000   0.000   0.000   0.000
  0.000   0.000   0.000   0.000   0.000   0.000   0.000   0.000   0.000   0.000   0.000   0.000   0.000   0.000   0.000   0.000
  0.000   0.000   0.000   0.000   0.000   0.000   0.000   0.000   0.000   0.000   0.000   0.000   0.000   0.000   0.000   0.000
  0.000   0.000   0.000   0.000   0.000   0.000   0.000   0.000   0.000   0.000   0.000   0.000   0.000   0.000   0.000   0.000
  0.000   0.000   0.000   0.000   0.000   0.000   0.000   0.000   0.000   0.000   0.000   0.000   0.000   0.000   0.000   0.000
  0.000   0.000   0.000   0.000   0.000   0.000   0.000   0.000   0.000   0.000   0.000   0.000   0.000   0.000   0.000   0.000
  0.000   0.000   0.000   0.000   0.000   0.000   0.000   0.000   0.000   0.000   0.000   0.000   0.000   0.000   0.000   0.000
  0.000   0.000   0.000   0.000   0.000   0.000   0.000   0.000   0.000   0.000   0.000   0.000   0.000   0.000   0.000   0.000
  0.000   0.000   0.000   0.000   0.000   0.000   0.000   0.000   0.000   0.000   0.000   0.000   0.000   0.000   0.000   0.000
  0.000   0.000   0.000   0.000   0.000   0.000   0.000   0.000   0.000   0.000   0.000   0.000   0.000   0.000   0.000   0.000


--------------------------------------- Iteration      1(   2)  ---------------------------------------


     EDDAV:  cpu time      0.1855: real time      0.1861
       DOS:  cpu time      0.0004: real time      0.0004
    --------------------------------------------
      LOOP:  cpu time      0.1860: real time      0.1866

 eigenvalue-minimisations  :   768
 total energy-change (2. order) :-0.2578506E+02  (-0.2527818E+02)
 number of electron      10.0000000 magnetization 
 augmentation part       10.0000000 magnetization 

 Free energy of the ion-electron system (eV)
  ---------------------------------------------------
  alpha Z        PSCENC =         2.97593478
  Ewald energy   TEWEN  =       212.48101127
  -Hartree energ DENC   =      -466.52634807
  -exchange      EXHF   =         0.00000000
  -V(xc)+E(xc)   XCENC  =       -92.71545966
  PAW double counting   =       327.35893868     -219.44694627
  entropy T*S    EENTRO =        -0.00000000
  eigenvalues    EBANDS =       -71.74314772
  atomic energy  EATOM  =       299.89217194
  Solvation  Ediel_sol  =         0.00000000
  ---------------------------------------------------
  free energy    TOTEN  =        -7.72384504 eV

  energy without entropy =       -7.72384504  energy(sigma->0) =       -7.72384504


--------------------------------------------------------------------------------------------------------




 average (electrostatic) potential at core
  the test charge radii are     1.1712
  (the norm of the test charge is              1.0000)
       1 -81.4235       2 -81.4235
 
 
 
 E-fermi :  -2.5754     XC(G=0):  -3.4426     alpha+bet : -2.6626

 Fermi energy:        -2.5754089945

 k-point     1 :       0.0000    0.0000    0.0000
  band No.  band energies     occupation 
      1     -14.0270      2.00000
      2      -9.0644      2.00000
      3      -3.2908      2.00000
      4      -2.7480      2.00000
      5      -2.6165      2.00000
      6      -1.1216      0.00000
      7       0.1997      0.00000
      8       0.2368      0.00000
      9       2.0325      0.00000
     10       2.1894      0.00000
     11       3.6282      0.00000
     12       4.4764      0.00000
     13       4.5847      0.00000
     14       5.5933      0.00000
     15       6.1252      0.00000
     16       6.4490      0.00000

 k-point     2 :       0.0909    0.0000    0.0000
  band No.  band energies     occupation 
      1     -13.9499      2.00000
      2      -9.0623      2.00000
      3      -3.4942      2.00000
      4      -3.2494      2.00000
      5      -2.8685      2.00000
      6      -0.5415      0.00000
      7       0.1354      0.00000
      8       0.4058      0.00000
      9       2.1447      0.00000
     10       2.2870      0.00000
     11       3.7048      0.00000
     12       4.5599      0.00000
     13       4.5882      0.00000
     14       5.3847      0.00000
     15       5.5698      0.00000
     16       6.2772      0.00000

 k-point     3 :       0.1818    0.0000    0.0000
  band No.  band energies     occupation 
      1     -13.6824      2.00000
      2      -9.0812      2.00000
      3      -4.6736      2.00000
      4      -3.3244      2.00000
      5      -3.1680      2.00000
      6      -0.9406      0.00000
      7       0.7624      0.00000
      8       1.1131      0.00000
      9       2.3903      0.00000
     10       2.6056      0.00000
     11       3.6793      0.00000
     12       4.4336      0.00000
     13       4.8853      0.00000
     14       5.2362      0.00000
     15       5.9774      0.00000
     16       6.5536      0.00000

 k-point     4 :       0.2727    0.0000    0.0000
  band No.  band energies     occupation 
      1     -13.2729      2.00000
      2      -9.3492      2.00000
      3      -5.4820      2.00000
      4      -3.7538      2.00000
      5      -3.3188      2.00000
      6      -1.3884      0.00000
      7       0.7333      0.00000
      8       0.8730      0.00000
      9       2.6811      0.00000
     10       2.9463      0.00000
     11       3.7162      0.00000
     12       4.7826      0.00000
     13       5.1349      0.00000
     14       5.4363      0.00000
     15       6.1156      0.00000
     16       6.3617      0.00000

 k-point     5 :       0.3636    0.0000    0.0000
  band No.  band energies     occupation 
      1     -12.7220      2.00000
      2      -9.8625      2.00000
      3      -5.7610      2.00000
      4      -4.0418      2.00000
      5      -3.6935      2.00000
      6      -1.3429      0.00000
      7       0.2808      0.00000
      8       1.0175      0.00000
      9       2.8493      0.00000
     10       3.3677      0.00000
     11       4.0151      0.00000
     12       5.1786      0.00000
     13       5.8067      0.00000
     14       5.9666      0.00000
     15       6.5167      0.00000
     16       6.9193      0.00000

 k-point     6 :       0.4545    0.0000    0.0000
  band No.  band energies     occupation 
      1     -12.2089      2.00000
      2     -10.3926      2.00000
      3      -5.6925      2.00000
      4      -4.2453      2.00000
      5      -4.1113      2.00000
      6      -1.0904      0.00000
      7      -0.1341      0.00000
      8       0.9573      0.00000
      9       2.5579      0.00000
     10       4.1424      0.00000
     11       4.5617      0.00000
     12       5.0506      0.00000
     13       5.4106      0.00000
     14       5.9797      0.00000
     15       6.5425      0.00000
     16       6.8358      0.00000

 k-point     7 :       0.0909    0.0909    0.0000
  band No.  band energies     occupation 
      1     -13.7808      2.00000
      2      -9.0988      2.00000
      3      -4.3599      2.00000
      4      -3.4022      2.00000
      5      -3.2196      2.00000
      6      -0.3732      0.00000
      7      -0.1622      0.00000
      8       0.7988      0.00000
      9       2.3412      0.00000
     10       2.4390      0.00000
     11       3.5607      0.00000
     12       4.3548      0.00000
     13       4.7316      0.00000
     14       5.1197      0.00000
     15       5.8634      0.00000
     16       5.8917      0.00000

 k-point     8 :       0.1818    0.0909    0.0000
  band No.  band energies     occupation 
      1     -13.4287      2.00000
      2      -9.2125      2.00000
      3      -5.1356      2.00000
      4      -3.9557      2.00000
      5      -3.1845      2.00000
      6      -0.7909      0.00000
      7       0.4052      0.00000
      8       1.1054      0.00000
      9       2.5928      0.00000
     10       2.7871      0.00000
     11       3.5048      0.00000
     12       4.6475      0.00000
     13       4.9978      0.00000
     14       5.1992      0.00000
     15       6.3958      0.00000
     16       7.1517      0.00000

 k-point     9 :       0.2727    0.0909    0.0000
  band No.  band energies     occupation 
      1     -12.8678      2.00000
      2      -9.4358      2.00000
      3      -5.6024      2.00000
      4      -4.2963      2.00000
      5      -3.3059      2.00000
      6      -0.8800      0.00000
      7       0.6255      0.00000
      8       0.9927      0.00000
      9       3.0615      0.00000
     10       3.2841      0.00000
     11       3.9351      0.00000
     12       5.1852      0.00000
     13       5.6223      0.00000
     14       5.9568      0.00000
     15       6.7375      0.00000
     16       7.7427      0.00000

 k-point    10 :       0.3636    0.0909    0.0000
  band No.  band energies     occupation 
      1     -12.3926      2.00000
      2     -10.2070      2.00000
      3      -5.7219      2.00000
      4      -4.6036      2.00000
      5      -3.8726      2.00000
      6      -0.8591      0.00000
      7       0.0278      0.00000
      8       0.7893      0.00000
      9       2.8068      0.00000
     10       3.8307      0.00000
     11       4.3666      0.00000
     12       5.2592      0.00000
     13       5.6696      0.00000
     14       5.9382      0.00000
     15       6.3792      0.00000
     16       6.6732      0.00000

 k-point    11 :       0.4545    0.0909    0.0000
  band No.  band energies     occupation 
      1     -11.9898      2.00000
      2     -10.4167      2.00000
      3      -5.6153      2.00000
      4      -4.3994      2.00000
      5      -4.0988      2.00000
      6      -0.3087      0.00000
      7      -0.0254      0.00000
      8       1.0745      0.00000
      9       2.7846      0.00000
     10       4.7886      0.00000
     11       4.9304      0.00000
     12       5.3515      0.00000
     13       5.4709      0.00000
     14       6.0937      0.00000
     15       6.8782      0.00000
     16       7.6562      0.00000

 k-point    12 :       0.1818    0.1818    0.0000
  band No.  band energies     occupation 
      1     -13.0229      2.00000
      2      -9.5059      2.00000
      3      -5.4014      2.00000
      4      -4.7773      2.00000
      5      -3.1955      2.00000
      6      -0.3869      0.00000
      7       0.0816      0.00000
      8       1.1539      0.00000
      9       2.9201      0.00000
     10       3.0972      0.00000
     11       3.6618      0.00000
     12       4.6229      0.00000
     13       4.9943      0.00000
     14       5.6479      0.00000
     15       6.3691      0.00000
     16       7.0940      0.00000

 k-point    13 :       0.2727    0.1818    0.0000
  band No.  band energies     occupation 
      1     -12.4876      2.00000
      2     -10.0323      2.00000
      3      -5.5592      2.00000
      4      -5.1594      2.00000
      5      -3.5831      2.00000
      6      -0.4168      0.00000
      7       0.0471      0.00000
      8       1.1178      0.00000
      9       3.2277      0.00000
     10       3.7207      0.00000
     11       4.2071      0.00000
     12       4.5566      0.00000
     13       5.2610      0.00000
     14       6.2313      0.00000
     15       6.3407      0.00000
     16       6.9172      0.00000

 k-point    14 :       0.3636    0.1818    0.0000
  band No.  band energies     occupation 
      1     -11.9448      2.00000
      2     -10.5343      2.00000
      3      -5.8109      2.00000
      4      -4.8669      2.00000
      5      -4.0330      2.00000
      6      -0.6018      0.00000
      7       0.4551      0.00000
      8       0.7854      0.00000
      9       3.0460      0.00000
     10       4.4932      0.00000
     11       4.8364      0.00000
     12       5.4196      0.00000
     13       5.6200      0.00000
     14       5.9932      0.00000
     15       6.4862      0.00000
     16       7.0110      0.00000

 k-point    15 :       0.2727    0.2727    0.0000
  band No.  band energies     occupation 
      1     -11.9241      2.00000
      2     -10.5348      2.00000
      3      -5.9108      2.00000
      4      -4.9880      2.00000
      5      -3.9607      2.00000
      6      -0.8499      0.00000
      7       0.4604      0.00000
      8       1.2918      0.00000
      9       3.9435      0.00000
     10       4.2156      0.00000
     11       4.4335      0.00000
     12       4.5706      0.00000
     13       5.2538      0.00000
     14       6.5423      0.00000
     15       6.6466      0.00000
     16       6.7435      0.00000

 k-point    16 :       0.3636    0.2727    0.0000
  band No.  band energies     occupation 
      1     -11.5219      2.00000
      2     -10.9271      2.00000
      3      -6.1487      2.00000
      4      -4.6849      2.00000
      5      -4.3024      2.00000
      6      -0.9966      0.00000
      7       0.7989      0.00000
      8       1.0566      0.00000
      9       4.0734      0.00000
     10       4.2636      0.00000
     11       5.2948      0.00000
     12       5.3844      0.00000
     13       5.5639      0.00000
     14       6.1959      0.00000
     15       6.2735      0.00000
     16       6.5315      0.00000


--------------------------------------------------------------------------------------------------------


 soft charge-density along one line, spin component           1
         0         1         2         3         4         5         6         7         8         9
 total charge-density along one line
 
 pseudopotential strength for first ion, spin component:           1
 34.104 -21.134   0.000   0.024  -0.000  -0.000  -0.038   0.000
-21.134  31.183  -0.000  -0.008   0.000   0.000   0.007  -0.000
  0.000  -0.000   7.217   0.000   0.000 -12.170  -0.000  -0.000
  0.024  -0.008   0.000   7.216  -0.000  -0.000 -12.169   0.000
 -0.000   0.000   0.000  -0.000   7.217  -0.000   0.000 -12.170
 -0.000   0.000 -12.170  -0.000  -0.000  31.636   0.000   0.000
 -0.038   0.007  -0.000 -12.169   0.000   0.000  31.634  -0.000
  0.000  -0.000  -0.000   0.000 -12.170   0.000  -0.000  31.636
  0.000  -0.000  -0.000  -0.000   0.003   0.000   0.000  -0.003
  0.000  -0.000   0.012   0.000  -0.000  -0.016  -0.000   0.000
 -0.001   0.001   0.000   0.009  -0.000  -0.000  -0.014   0.000
 -0.000   0.000  -0.000  -0.000   0.012   0.000   0.000  -0.016
 -0.000   0.000   0.003   0.000   0.000  -0.003  -0.000  -0.000
 -0.000   0.000   0.000   0.000  -0.004  -0.000  -0.000   0.005
 -0.000   0.000  -0.020  -0.000   0.000   0.030   0.000  -0.000
  0.002  -0.001  -0.000  -0.017   0.000   0.000   0.027  -0.000
  0.000  -0.000   0.000   0.000  -0.020  -0.000  -0.000   0.030
  0.000  -0.000  -0.004  -0.000  -0.000   0.005   0.000   0.000
  0.001   0.002  -0.000   0.000   0.000   0.000   0.000  -0.000
 -0.000  -0.000  -0.000   0.000   0.000   0.000  -0.000   0.000
  0.000   0.000  -0.000   0.000  -0.000   0.000   0.000  -0.000
 -0.001  -0.002   0.000  -0.000  -0.000   0.000  -0.000  -0.000
 -0.000  -0.000  -0.000  -0.000  -0.000  -0.000  -0.000   0.000
  0.000   0.000   0.000  -0.000  -0.000   0.000   0.000   0.000
  0.000   0.000  -0.000   0.000  -0.000  -0.000   0.000  -0.000
 -0.006  -0.002   0.000  -0.002  -0.000  -0.000   0.001   0.000
  0.000   0.000   0.000  -0.000  -0.002  -0.000   0.000   0.001
 -0.000  -0.000   0.000  -0.000   0.000  -0.000   0.000  -0.000
  0.006   0.001  -0.000   0.002   0.000   0.000  -0.002  -0.000
  0.000   0.000   0.000   0.000   0.000  -0.000  -0.000  -0.000
 -0.000  -0.000  -0.002   0.000   0.000   0.001  -0.000  -0.000
 -0.000  -0.000   0.000  -0.000   0.000  -0.000   0.000  -0.000
 total augmentation occupancy for first ion, spin component:           1
  2.000   0.000   0.000   0.000   0.000   0.000   0.000   0.000   0.000   0.000   0.000   0.000   0.000   0.000   0.000   0.000
  0.000   0.000   0.000   0.000   0.000   0.000   0.000   0.000   0.000   0.000   0.000   0.000   0.000   0.000   0.000   0.000
  0.000   0.000   1.000   0.000   0.000   0.000   0.000   0.000   0.000   0.000   0.000   0.000   0.000   0.000   0.000   0.000
  0.000   0.000   0.000   1.000   0.000   0.000   0.000   0.000   0.000   0.000   0.000   0.000   0.000   0.000   0.000   0.000
  0.000   0.000   0.000   0.000   1.000   0.000   0.000   0.000   0.000   0.000   0.000   0.000   0.000   0.000   0.000   0.000
  0.000   0.000   0.000   0.000   0.000   0.000   0.000   0.000   0.000   0.000   0.000   0.000   0.000   0.000   0.000   0.000
  0.000   0.000   0.000   0.000   0.000   0.000   0.000   0.000   0.000   0.000   0.000   0.000   0.000   0.000   0.000   0.000
  0.000   0.000   0.000   0.000   0.000   0.000   0.000   0.000   0.000   0.000   0.000   0.000   0.000   0.000   0.000   0.000
  0.000   0.000   0.000   0.000   0.000   0.000   0.000   0.000   0.000   0.000   0.000   0.000   0.000   0.000   0.000   0.000
  0.000   0.000   0.000   0.000   0.000   0.000   0.000   0.000   0.000   0.000   0.000   0.000   0.000   0.000   0.000   0.000
  0.000   0.000   0.000   0.000   0.000   0.000   0.000   0.000   0.000   0.000   0.000   0.000   0.000   0.000   0.000   0.000
  0.000   0.000   0.000   0.000   0.000   0.000   0.000   0.000   0.000   0.000   0.000   0.000   0.000   0.000   0.000   0.000
  0.000   0.000   0.000   0.000   0.000   0.000   0.000   0.000   0.000   0.000   0.000   0.000   0.000   0.000   0.000   0.000
  0.000   0.000   0.000   0.000   0.000   0.000   0.000   0.000   0.000   0.000   0.000   0.000   0.000   0.000   0.000   0.000
  0.000   0.000   0.000   0.000   0.000   0.000   0.000   0.000   0.000   0.000   0.000   0.000   0.000   0.000   0.000   0.000
  0.000   0.000   0.000   0.000   0.000   0.000   0.000   0.000   0.000   0.000   0.000   0.000   0.000   0.000   0.000   0.000
  0.000   0.000   0.000   0.000   0.000   0.000   0.000   0.000   0.000   0.000   0.000   0.000   0.000   0.000   0.000   0.000
  0.000   0.000   0.000   0.000   0.000   0.000   0.000   0.000   0.000   0.000   0.000   0.000   0.000   0.000   0.000   0.000
  0.000   0.000   0.000   0.000   0.000   0.000   0.000   0.000   0.000   0.000   0.000   0.000   0.000   0.000   0.000   0.000
  0.000   0.000   0.000   0.000   0.000   0.000   0.000   0.000   0.000   0.000   0.000   0.000   0.000   0.000   0.000   0.000
  0.000   0.000   0.000   0.000   0.000   0.000   0.000   0.000   0.000   0.000   0.000   0.000   0.000   0.000   0.000   0.000
  0.000   0.000   0.000   0.000   0.000   0.000   0.000   0.000   0.000   0.000   0.000   0.000   0.000   0.000   0.000   0.000
  0.000   0.000   0.000   0.000   0.000   0.000   0.000   0.000   0.000   0.000   0.000   0.000   0.000   0.000   0.000   0.000
  0.000   0.000   0.000   0.000   0.000   0.000   0.000   0.000   0.000   0.000   0.000   0.000   0.000   0.000   0.000   0.000
  0.000   0.000   0.000   0.000   0.000   0.000   0.000   0.000   0.000   0.000   0.000   0.000   0.000   0.000   0.000   0.000
  0.000   0.000   0.000   0.000   0.000   0.000   0.000   0.000   0.000   0.000   0.000   0.000   0.000   0.000   0.000   0.000
  0.000   0.000   0.000   0.000   0.000   0.000   0.000   0.000   0.000   0.000   0.000   0.000   0.000   0.000   0.000   0.000
  0.000   0.000   0.000   0.000   0.000   0.000   0.000   0.000   0.000   0.000   0.000   0.000   0.000   0.000   0.000   0.000
  0.000   0.000   0.000   0.000   0.000   0.000   0.000   0.000   0.000   0.000   0.000   0.000   0.000   0.000   0.000   0.000
  0.000   0.000   0.000   0.000   0.000   0.000   0.000   0.000   0.000   0.000   0.000   0.000   0.000   0.000   0.000   0.000
  0.000   0.000   0.000   0.000   0.000   0.000   0.000   0.000   0.000   0.000   0.000   0.000   0.000   0.000   0.000   0.000
  0.000   0.000   0.000   0.000   0.000   0.000   0.000   0.000   0.000   0.000   0.000   0.000   0.000   0.000   0.000   0.000


--------------------------------------- Iteration      1(   3)  ---------------------------------------


     EDDAV:  cpu time      0.1234: real time      0.1235
       DOS:  cpu time      0.0004: real time      0.0004
    --------------------------------------------
      LOOP:  cpu time      0.1238: real time      0.1239

 eigenvalue-minimisations  :   592
 total energy-change (2. order) :-0.4394644E+00  (-0.4394644E+00)
 number of electron      10.0000000 magnetization 
 augmentation part       10.0000000 magnetization 

 Free energy of the ion-electron system (eV)
  ---------------------------------------------------
  alpha Z        PSCENC =         2.97593478
  Ewald energy   TEWEN  =       212.48101127
  -Hartree energ DENC   =      -466.52634807
  -exchange      EXHF   =         0.00000000
  -V(xc)+E(xc)   XCENC  =       -92.71545966
  PAW double counting   =       327.35893868     -219.44694627
  entropy T*S    EENTRO =        -0.00000000
  eigenvalues    EBANDS =       -72.18261216
  atomic energy  EATOM  =       299.89217194
  Solvation  Ediel_sol  =         0.00000000
  ---------------------------------------------------
  free energy    TOTEN  =        -8.16330949 eV

  energy without entropy =       -8.16330949  energy(sigma->0) =       -8.16330949


--------------------------------------------------------------------------------------------------------




 average (electrostatic) potential at core
  the test charge radii are     1.1712
  (the norm of the test charge is              1.0000)
       1 -81.4235       2 -81.4235
 
 
 
 E-fermi :  -2.7149     XC(G=0):  -3.4426     alpha+bet : -2.6626

 Fermi energy:        -2.7148864951

 k-point     1 :       0.0000    0.0000    0.0000
  band No.  band energies     occupation 
      1     -14.0420      2.00000
      2      -9.0775      2.00000
      3      -3.3195      2.00000
      4      -2.7586      2.00000
      5      -2.7582      2.00000
      6      -1.1733      0.00000
      7       0.0609      0.00000
      8       0.0625      0.00000
      9       2.0201      0.00000
     10       2.1799      0.00000
     11       3.5975      0.00000
     12       4.4577      0.00000
     13       4.4883      0.00000
     14       5.4846      0.00000
     15       5.6750      0.00000
     16       6.3148      0.00000

 k-point     2 :       0.0909    0.0000    0.0000
  band No.  band energies     occupation 
      1     -13.9547      2.00000
      2      -9.0770      2.00000
      3      -3.5725      2.00000
      4      -3.2848      2.00000
      5      -2.9529      2.00000
      6      -0.6436      0.00000
      7      -0.0097      0.00000
      8       0.2482      0.00000
      9       2.1326      0.00000
     10       2.2774      0.00000
     11       3.6754      0.00000
     12       4.4706      0.00000
     13       4.5531      0.00000
     14       5.2627      0.00000
     15       5.4071      0.00000
     16       5.8585      0.00000

 k-point     3 :       0.1818    0.0000    0.0000
  band No.  band energies     occupation 
      1     -13.6960      2.00000
      2      -9.1240      2.00000
      3      -4.7048      2.00000
      4      -3.3690      2.00000
      5      -3.2304      2.00000
      6      -1.0313      0.00000
      7       0.5878      0.00000
      8       0.6565      0.00000
      9       2.3642      0.00000
     10       2.5650      0.00000
     11       3.5825      0.00000
     12       4.3215      0.00000
     13       4.8261      0.00000
     14       5.1729      0.00000
     15       5.5373      0.00000
     16       6.2861      0.00000

 k-point     4 :       0.2727    0.0000    0.0000
  band No.  band energies     occupation 
      1     -13.2797      2.00000
      2      -9.3603      2.00000
      3      -5.4961      2.00000
      4      -3.7878      2.00000
      5      -3.3340      2.00000
      6      -1.4129      0.00000
      7       0.6630      0.00000
      8       0.7878      0.00000
      9       2.6657      0.00000
     10       2.9328      0.00000
     11       3.6962      0.00000
     12       4.7362      0.00000
     13       5.0556      0.00000
     14       5.4088      0.00000
     15       6.0907      0.00000
     16       6.1498      0.00000

 k-point     5 :       0.3636    0.0000    0.0000
  band No.  band energies     occupation 
[...]
  rms(total) = 0.11087E-02    rms(broyden)= 0.11085E-02
  rms(prec ) = 0.13185E-02
  weight for this iteration     100.00

 eigenvalues of (default mixing * dielectric matrix)
  average eigenvalue GAMMA=   4.0371
  7.6222  7.6222  5.5675  1.4194  1.0080  0.9834

 Free energy of the ion-electron system (eV)
  ---------------------------------------------------
  -Hartree energ DENC   =        -0.19498996
  -V(xc)+E(xc)   XCENC  =         0.00989994
  PAW double counting   =         0.02802007       -0.02788249
  entropy T*S    EENTRO =         0.00000000
  eigenvalues    EBANDS =        -0.08757975
  ---------------------------------------------------
  free energy    TOTEN  =        -0.27253219 eV

  energy without entropy =       -0.27253219


----------------------------------------- Iteration    3(   9)  ---------------------------------------


   POT+DIJ:  cpu time      0.5709: real time      0.5712
    HAMIL1:  cpu time      0.0176: real time      0.0176
    LRDIAG:  cpu time      0.0080: real time      0.0080
    LRDIIS:  cpu time      0.0855: real time      0.0856
    LRDIAG:  cpu time      0.0069: real time      0.0069
    MIXING:  cpu time      0.0008: real time      0.0008
    --------------------------------------------
      LOOP:  cpu time      0.7208: real time      0.7213

 Broyden mixing:
  rms(total) = 0.24813E-03    rms(broyden)= 0.24798E-03
  rms(prec ) = 0.31979E-03
  weight for this iteration     100.00

 eigenvalues of (default mixing * dielectric matrix)
  average eigenvalue GAMMA=   3.7695
  9.2947  6.8980  5.5587  1.4196  0.9721  1.1913  1.0520

 Free energy of the ion-electron system (eV)
  ---------------------------------------------------
  -Hartree energ DENC   =        -0.19501516
  -V(xc)+E(xc)   XCENC  =         0.00998174
  PAW double counting   =         0.02738122       -0.02725230
  entropy T*S    EENTRO =         0.00000000
  eigenvalues    EBANDS =        -0.08772368
  ---------------------------------------------------
  free energy    TOTEN  =        -0.27262818 eV

  energy without entropy =       -0.27262818


----------------------------------------- Iteration    3(  10)  ---------------------------------------


   POT+DIJ:  cpu time      0.5637: real time      0.5639
    HAMIL1:  cpu time      0.0204: real time      0.0204
    LRDIAG:  cpu time      0.0081: real time      0.0081
    LRDIIS:  cpu time      0.0887: real time      0.0887
    LRDIAG:  cpu time      0.0086: real time      0.0086
    MIXING:  cpu time      0.0008: real time      0.0008
    --------------------------------------------
      LOOP:  cpu time      0.7207: real time      0.7211

 Broyden mixing:
  rms(total) = 0.13595E-03    rms(broyden)= 0.13592E-03
  rms(prec ) = 0.16319E-03
  weight for this iteration     100.00

 eigenvalues of (default mixing * dielectric matrix)
  average eigenvalue GAMMA=   4.0393
  9.6120  6.6968  5.7983  5.7983  1.4189  1.0286  0.9806  0.9806

 Free energy of the ion-electron system (eV)
  ---------------------------------------------------
  -Hartree energ DENC   =        -0.19509631
  -V(xc)+E(xc)   XCENC  =         0.00999681
  PAW double counting   =         0.02747941       -0.02735152
  entropy T*S    EENTRO =         0.00000000
  eigenvalues    EBANDS =        -0.08767593
  ---------------------------------------------------
  free energy    TOTEN  =        -0.27264753 eV

  energy without entropy =       -0.27264753


----------------------------------------- Iteration    3(  11)  ---------------------------------------


   POT+DIJ:  cpu time      0.5712: real time      0.5714
    HAMIL1:  cpu time      0.0174: real time      0.0174
    LRDIAG:  cpu time      0.0081: real time      0.0081
    LRDIIS:  cpu time      0.0957: real time      0.0958
    LRDIAG:  cpu time      0.0070: real time      0.0070
    MIXING:  cpu time      0.0007: real time      0.0007
    --------------------------------------------
      LOOP:  cpu time      0.7247: real time      0.7251

 Broyden mixing:
  rms(total) = 0.36413E-04    rms(broyden)= 0.36400E-04
  rms(prec ) = 0.43580E-04
  weight for this iteration     100.00

 eigenvalues of (default mixing * dielectric matrix)
  average eigenvalue GAMMA=   4.0966
 10.4599  8.4366  6.9358  5.5163  1.4190  0.9883  0.9883  1.0472  1.0776

 Free energy of the ion-electron system (eV)
  ---------------------------------------------------
  -Hartree energ DENC   =        -0.19507133
  -V(xc)+E(xc)   XCENC  =         0.01000230
  PAW double counting   =         0.02762021       -0.02749400
  entropy T*S    EENTRO =         0.00000000
  eigenvalues    EBANDS =        -0.08770984
  ---------------------------------------------------
  free energy    TOTEN  =        -0.27265265 eV

  energy without entropy =       -0.27265265


----------------------------------------- Iteration    3(  12)  ---------------------------------------


   POT+DIJ:  cpu time      0.5680: real time      0.5682
    HAMIL1:  cpu time      0.0175: real time      0.0175
    LRDIAG:  cpu time      0.0081: real time      0.0081
    LRDIIS:  cpu time      0.0877: real time      0.0878
    LRDIAG:  cpu time      0.0074: real time      0.0074
    MIXING:  cpu time      0.0016: real time      0.0016
    --------------------------------------------
      LOOP:  cpu time      0.7191: real time      0.7194

 Broyden mixing:
  rms(total) = 0.95115E-05    rms(broyden)= 0.95061E-05
  rms(prec ) = 0.11073E-04
  weight for this iteration     100.00

 eigenvalues of (default mixing * dielectric matrix)
  average eigenvalue GAMMA=   4.2426
 10.0991  8.0426  6.6394  6.6394  5.5894  1.4190  1.0218  0.9843  0.9954  0.9954

 Free energy of the ion-electron system (eV)
  ---------------------------------------------------
  -Hartree energ DENC   =        -0.19507795
  -V(xc)+E(xc)   XCENC  =         0.01000299
  PAW double counting   =         0.02763355       -0.02750777
  entropy T*S    EENTRO =         0.00000000
  eigenvalues    EBANDS =        -0.08770393
  ---------------------------------------------------
  free energy    TOTEN  =        -0.27265312 eV

  energy without entropy =       -0.27265312


------------------------ aborting loop because EDIFF is reached ----------------------------------------


 change of polarisation eV/A/(eV/A) component  3 :    -0.043     0.000     0.515
 dielectric tensor                  component  3 :    -0.033     0.000     1.397


--------------------------------------------------------------------------------------------------------


    FORLOC:  cpu time      0.0006: real time      0.0006
    FORNL :  cpu time      0.0691: real time      0.0692
    STRESS:  cpu time      0.3092: real time      0.3098
    FORCOR:  cpu time      0.0078: real time      0.0079
    OFIELD:  cpu time      0.0001: real time      0.0001
    FORLOC:  cpu time      0.0012: real time      0.0012
    FORNL :  cpu time      0.0572: real time      0.0573
    STRESS:  cpu time      0.3161: real time      0.3166
    FORCOR:  cpu time      0.0083: real time      0.0083
    OFIELD:  cpu time      0.0001: real time      0.0001
    FORNLD:  cpu time      0.0669: real time      0.0670

 PIEZOELECTRIC TENSOR FIELD DIRECTION 3  (e Angst)
 -----------------------------------------------------------------------------
    -0.00038  0.00000  0.00000           ( -0.00000  0.00000  0.00000)
     0.00000 -0.00038  0.00000           (  0.00000 -0.00000  0.00000)
     0.00000  0.00000  0.00031           (  0.00000  0.00000  0.00000)

 PIEZOELECTRIC TENSOR FIELD DIRECTION 3  (C/m^2)
 -----------------------------------------------------------------------------
    -0.00003  0.00000  0.00000
     0.00000 -0.00003  0.00000
     0.00000  0.00000  0.00002


      POSITION         DIRECTION 3           BORN EFFECTIVE CHARGE    (rigid.aug.   ionic)
 -----------------------------------------------------------------------------------------
      2.05668      1.18743      7.17094     0.00000 -0.00000  0.00013 (  0.81263  5.00000)
      0.00000      2.37485      8.82906     0.00000 -0.00000  0.00052 (  0.81263  5.00000)
 -----------------------------------------------------------------------------------------
    total drift (improves with k-points):   0.00000 -0.00000  0.00065




--------------------------------------------------------------------------------------------------------


  LATTYP: Found a hexagonal cell.
 ALAT       =     4.1133665497
 C/A-ratio  =     3.8897578922
  
  Lattice vectors:
  
 A1 = (   4.1133665497,   0.0000000000,   0.0000000000)
 A2 = (  -2.0566832748,   3.5622799271,   0.0000000000)
 A3 = (   0.0000000000,   0.0000000000,  16.0000000000)


Analysis of symmetry for initial positions (statically):
=====================================================================
 Subroutine PRICEL returns:
 Original cell was already a primitive cell.
 

 Routine SETGRP: Setting up the symmetry group for a 
 hexagonal supercell.


 Subroutine GETGRP returns: Found 12 space group operations
 (whereof 12 operations were pure point group operations)
 out of a pool of 24 trial point group operations.


The static configuration has the point symmetry D_3d.


Analysis of symmetry for dynamics (positions and initial velocities):
=====================================================================
 Subroutine PRICEL returns:
 Original cell was already a primitive cell.
 

 Routine SETGRP: Setting up the symmetry group for a 
 hexagonal supercell.


 Subroutine GETGRP returns: Found 12 space group operations
 (whereof 12 operations were pure point group operations)
 out of a pool of 24 trial point group operations.


The dynamic configuration has the point symmetry D_3d.


 Subroutine INISYM returns: Found 12 space group operations
 (whereof 12 operations are pure point group operations),
 and found     1 'primitive' translations

 
 KPOINTS: kpoints                                 

Automatic generation of k-mesh.
 Grid dimensions read from file:
 generate k-points for:   11   11    1

 Generating k-lattice:

  Cartesian coordinates                     Fractional coordinates (reciprocal lattice)
     0.022100897  0.012759959  0.000000000     0.090909091  0.000000000  0.000000000
     0.000000000  0.025519918  0.000000000     0.000000000  0.090909091  0.000000000
     0.000000000  0.000000000  0.062500000     0.000000000  0.000000000  1.000000000

  Length of vectors
     0.025519918  0.025519918  0.062500000

  Shift w.r.t. Gamma in fractional coordinates (k-lattice)
     0.000000000  0.000000000  0.000000000

 
 Subroutine IBZKPT returns following result:
 ===========================================
 
 Found     16 irreducible k-points:
 
 Following reciprocal coordinates:
            Coordinates               Weight
  0.000000  0.000000  0.000000      1.000000
  0.090909  0.000000  0.000000      6.000000
  0.181818  0.000000  0.000000      6.000000
  0.272727  0.000000  0.000000      6.000000
  0.363636  0.000000  0.000000      6.000000
  0.454545  0.000000  0.000000      6.000000
  0.090909  0.090909  0.000000      6.000000
  0.181818  0.090909  0.000000     12.000000
  0.272727  0.090909  0.000000     12.000000
  0.363636  0.090909  0.000000     12.000000
  0.454545  0.090909  0.000000      6.000000
  0.181818  0.181818  0.000000      6.000000
  0.272727  0.181818  0.000000     12.000000
  0.363636  0.181818  0.000000     12.000000
  0.272727  0.272727  0.000000      6.000000
  0.363636  0.272727  0.000000      6.000000
 
 Following cartesian coordinates:
            Coordinates               Weight
  0.000000  0.000000  0.000000      1.000000
  0.022101  0.012760  0.000000      6.000000
  0.044202  0.025520  0.000000      6.000000
  0.066303  0.038280  0.000000      6.000000
  0.088404  0.051040  0.000000      6.000000
  0.110504  0.063800  0.000000      6.000000
  0.022101  0.038280  0.000000      6.000000
  0.044202  0.051040  0.000000     12.000000
  0.066303  0.063800  0.000000     12.000000
  0.088404  0.076560  0.000000     12.000000
  0.110504  0.089320  0.000000      6.000000
  0.044202  0.076560  0.000000      6.000000
  0.066303  0.089320  0.000000     12.000000
  0.088404  0.102080  0.000000     12.000000
  0.066303  0.114840  0.000000      6.000000
  0.088404  0.127600  0.000000      6.000000
 


 MACROSCOPIC STATIC DIELECTRIC TENSOR (including local field effects in DFT)
 ------------------------------------------------------
           5.742751     0.000000     0.000000
           0.000000     5.742751    -0.000000
          -0.000000     0.000000     1.397387
 ------------------------------------------------------



--------------------------------------------------------------------------------------------------------


  LATTYP: Found a hexagonal cell.
 ALAT       =     4.1133665497
 C/A-ratio  =     3.8897578922
  
  Lattice vectors:
  
 A1 = (   4.1133665497,   0.0000000000,   0.0000000000)
 A2 = (  -2.0566832748,   3.5622799271,   0.0000000000)
 A3 = (   0.0000000000,   0.0000000000,  16.0000000000)


Analysis of symmetry for initial positions (statically):
=====================================================================
 Subroutine PRICEL returns:
 Original cell was already a primitive cell.
 

 Routine SETGRP: Setting up the symmetry group for a 
 hexagonal supercell.


 Subroutine GETGRP returns: Found 12 space group operations
 (whereof 12 operations were pure point group operations)
 out of a pool of 24 trial point group operations.


The static configuration has the point symmetry D_3d.


Analysis of symmetry for dynamics (positions and initial velocities):
=====================================================================
 Subroutine PRICEL returns:
 Original cell was already a primitive cell.
 

 Routine SETGRP: Setting up the symmetry group for a 
 hexagonal supercell.


 Subroutine GETGRP returns: Found 12 space group operations
 (whereof 12 operations were pure point group operations)
 out of a pool of 24 trial point group operations.


The dynamic configuration has the point symmetry D_3d.


 Subroutine INISYM returns: Found 12 space group operations
 (whereof 12 operations are pure point group operations),
 and found     1 'primitive' translations

 
 KPOINTS: kpoints                                 

Automatic generation of k-mesh.
 Grid dimensions read from file:
 generate k-points for:   11   11    1

 Generating k-lattice:

  Cartesian coordinates                     Fractional coordinates (reciprocal lattice)
     0.022100897  0.012759959  0.000000000     0.090909091  0.000000000  0.000000000
     0.000000000  0.025519918  0.000000000     0.000000000  0.090909091  0.000000000
     0.000000000  0.000000000  0.062500000     0.000000000  0.000000000  1.000000000

  Length of vectors
     0.025519918  0.025519918  0.062500000

  Shift w.r.t. Gamma in fractional coordinates (k-lattice)
     0.000000000  0.000000000  0.000000000

 
 Subroutine IBZKPT returns following result:
 ===========================================
 
 Found     16 irreducible k-points:
 
 Following reciprocal coordinates:
            Coordinates               Weight
  0.000000  0.000000  0.000000      1.000000
  0.090909  0.000000  0.000000      6.000000
  0.181818  0.000000  0.000000      6.000000
  0.272727  0.000000  0.000000      6.000000
  0.363636  0.000000  0.000000      6.000000
  0.454545  0.000000  0.000000      6.000000
  0.090909  0.090909  0.000000      6.000000
  0.181818  0.090909  0.000000     12.000000
  0.272727  0.090909  0.000000     12.000000
  0.363636  0.090909  0.000000     12.000000
  0.454545  0.090909  0.000000      6.000000
  0.181818  0.181818  0.000000      6.000000
  0.272727  0.181818  0.000000     12.000000
  0.363636  0.181818  0.000000     12.000000
  0.272727  0.272727  0.000000      6.000000
  0.363636  0.272727  0.000000      6.000000
 
 Following cartesian coordinates:
            Coordinates               Weight
  0.000000  0.000000  0.000000      1.000000
  0.022101  0.012760  0.000000      6.000000
  0.044202  0.025520  0.000000      6.000000
  0.066303  0.038280  0.000000      6.000000
  0.088404  0.051040  0.000000      6.000000
  0.110504  0.063800  0.000000      6.000000
  0.022101  0.038280  0.000000      6.000000
  0.044202  0.051040  0.000000     12.000000
  0.066303  0.063800  0.000000     12.000000
  0.088404  0.076560  0.000000     12.000000
  0.110504  0.089320  0.000000      6.000000
  0.044202  0.076560  0.000000      6.000000
  0.066303  0.089320  0.000000     12.000000
  0.088404  0.102080  0.000000     12.000000
  0.066303  0.114840  0.000000      6.000000
  0.088404  0.127600  0.000000      6.000000
 


--------------------------------------------------------------------------------------------------------




 MACROSCOPIC STATIC DIELECTRIC TENSOR (including local field effects in DFT)
 ------------------------------------------------------
           5.742751     0.000000     0.000000
           0.000000     5.742751    -0.000000
          -0.000000     0.000000     1.397387
 ------------------------------------------------------


 PIEZOELECTRIC TENSOR (including local field effects)  for field in x, y, z        (e  Angst)
          XX          YY          ZZ          XY          YZ          ZX
  --------------------------------------------------------------------------------
  x     0.00000     0.00000     0.00000     0.00000     0.00000     0.00000
  y     0.00000     0.00000     0.00000     0.00000     0.00000     0.00000
  z     0.00000     0.00000     0.00000     0.00000     0.00000     0.00000

 PIEZOELECTRIC TENSOR (including local field effects)  for field in x, y, z        (C/m^2)
          XX          YY          ZZ          XY          YZ          ZX
  --------------------------------------------------------------------------------
  x     0.00000     0.00000     0.00000     0.00000     0.00000     0.00000
  y     0.00000     0.00000     0.00000     0.00000     0.00000     0.00000
  z     0.00000     0.00000     0.00000     0.00000     0.00000     0.00000
 
 BORN EFFECTIVE CHARGES (including local field effects) (in |e|, cummulative output)
 ---------------------------------------------------------------------------------
 ion    1
    1     0.00000     0.00000     0.00000
    2     0.00000     0.00000     0.00000
    3     0.00000     0.00000     0.00000
 ion    2
    1     0.00000     0.00000     0.00000
    2     0.00000     0.00000     0.00000
    3     0.00000     0.00000     0.00000


--------------------------------------------------------------------------------------------------------


     LOOP+:  cpu time     69.4957: real time     74.0837
    4ORBIT:  cpu time      0.0000: real time      0.0000



 total charge

# of ion       s       p       d       f       tot
--------------------------------------------------
    1        1.582   1.840   0.077   0.012   3.511
    2        1.582   1.840   0.077   0.012   3.511
--------------------------------------------------
tot          3.163   3.680   0.155   0.024   7.022
 

 total amount of memory used by VASP MPI-rank0    41247. kBytes
=======================================================================

   base      :      30000. kBytes
   nonl-proj :       6010. kBytes
   fftplans  :       2535. kBytes
   grid      :       2215. kBytes
   one-center:         98. kBytes
   wavefun   :        389. kBytes
 
  
  
 General timing and accounting informations for this job:
 ========================================================
  
                  Total CPU time used (sec):       70.130
                            User time (sec):       69.786
                          System time (sec):        0.344
                         Elapsed time (sec):       75.619
  
                   Maximum memory used (kb):      176108.
                   Average memory used (kb):          N/A
  
                          Minor page faults:        60629
                          Major page faults:         2831
                 Voluntary context switches:          568
