 vasp.6.4.2 20Jul23 (build Nov 14 2023 12:59:38) complex                        
  
 executed on             LinuxIFC date 2023.12.29  16:09:13
 running   16 mpi-ranks, on    1 nodes
 distrk:  each k-point on   16 cores,    1 groups
 distr:  one band on NCORE=   1 cores,   16 groups


--------------------------------------------------------------------------------------------------------


 INCAR:
   ENCUT = 193.577625
   ALGO = Normal
   NELM = 200
   NELMIN = 6
   NELMDL = -12
   EDIFF = 1.0E-6
   AMIX = 0.1
   BMIX = 0.0001
   PREC = Accurate
   IVDW = 0
   ISPIN = 1
   ADDGRID = .TRUE.
   LASPH = .TRUE.
   LREAL = .FALSE.
   NSW = 1
   EDIFFG = -0.010
   IBRION = 8
   POTIM = 0.01
   STRESSTYPE = 2
   LEPSILON = .FALSE.
   ISMEAR = 0
   SIGMA = 0.01
   LORBIT = 10
   NEDOS = 6001
   NWRITE = 3
   LWAVE = .FALSE.
   LCHARG = .FALSE.
   ICHARG = 2
   LELF = .FALSE.
   LVTOT = .FALSE.
   LPLANE = .TRUE.

 POTCAR:    PAW_PBE Sb_GW 21Mar2012               
 -----------------------------------------------------------------------------
|                                                                             |
|           W    W    AA    RRRRR   N    N  II  N    N   GGGG   !!!           |
|           W    W   A  A   R    R  NN   N  II  NN   N  G    G  !!!           |
|           W    W  A    A  R    R  N N  N  II  N N  N  G       !!!           |
|           W WW W  AAAAAA  RRRRR   N  N N  II  N  N N  G  GGG   !            |
|           WW  WW  A    A  R   R   N   NN  II  N   NN  G    G                |
|           W    W  A    A  R    R  N    N  II  N    N   GGGG   !!!           |
|                                                                             |
|     For optimal performance we recommend to set                             |
|       NCORE = 2 up to number-of-cores-per-socket                            |
|     NCORE specifies how many cores store one orbital (NPAR=cpu/NCORE).      |
|     This setting can greatly improve the performance of VASP for DFT.       |
|     The default, NCORE=1 might be grossly inefficient on modern             |
|     multi-core architectures or massively parallel machines. Do your        |
|     own testing! More info at https://www.vasp.at/wiki/index.php/NCORE      |
|     Unfortunately you need to use the default for GW and RPA                |
|     calculations (for HF NCORE is supported but not extensively tested      |
|     yet).                                                                   |
|                                                                             |
 -----------------------------------------------------------------------------

 POTCAR:    PAW_PBE Sb_GW 21Mar2012               
   SHA256 =  0189e04b98a9f0fe6ba073dab8a951dafd9b30e3c29e8799017462f750df8077 Sb_GW/POTCAR          
   COPYR  = (c) Copyright 21Mar2012 Georg Kresse                                                    
   COPYR  = This file is part of the software VASP. Any use, copying, and all other rights are regul
   COPYR  = If you do not have a valid VASP license, you may not use, copy or distribute this file. 
   VRHFIN =Sb: s2p3                                                                                 
   LEXCH  = PE                                                                                      
   EATOM  =   149.9515 eV,   11.0211 Ry                                                             
                                                                                                    
   TITEL  = PAW_PBE Sb_GW 21Mar2012                                                                 
   LULTRA =        F    use ultrasoft PP ?                                                          
   IUNSCR =        1    unscreen: 0-lin 1-nonlin 2-no                                               
   RPACOR =    2.200    partial core radius                                                         
   POMASS =  121.750; ZVAL   =    5.000    mass and valenz                                          
   RCORE  =    2.700    outmost cutoff radius                                                       
   RWIGS  =    2.700; RWIGS  =    1.429    wigner-seitz radius (au A)                               
   ENMAX  =  172.069; ENMIN  =  129.052 eV                                                          
   RCLOC  =    1.607    cutoff for local pot                                                        
   LCOR   =        T    correct aug charges                                                         
   LPAW   =        T    paw PP                                                                      
   EAUG   =  560.612                                                                                
   DEXC   =    0.000                                                                                
   RMAX   =    2.753    core radius for proj-oper                                                   
   RAUG   =    1.300    factor for augmentation sphere                                              
   RDEP   =    2.859    radius for radial grids                                                     
   RDEPT  =    2.199    core radius for aug-charge                                                  
                                                                                                    
   Atomic configuration                                                                             
   13 entries                                                                                       
     n  l   j            E        occ.                                                              
     1  0  0.50    -30298.2797   2.0000                                                             
     2  0  0.50     -4610.2252   2.0000                                                             
     2  1  1.50     -4138.3407   6.0000                                                             
     3  0  0.50      -903.8815   2.0000                                                             
     3  1  1.50      -750.1337   6.0000                                                             
     3  2  2.50      -515.7092  10.0000                                                             
     4  0  0.50      -148.8034   2.0000                                                             
     4  1  1.50      -101.7581   6.0000                                                             
     4  2  2.50       -33.5048  10.0000                                                             
     5  0  0.50       -12.8298   2.0000                                                             
     5  1  0.50        -4.8276   3.0000                                                             
     5  2  1.50        -5.4423   0.0000                                                             
     4  3  2.50        -5.4423   0.0000                                                             
   Description                                                                                      
     l       E           TYP  RCUT    TYP  RCUT                                                     
     0    -12.8297861     23  2.300                                                                 
     0     68.0291300     23  2.300                                                                 
     1     -4.8275512     23  2.300                                                                 
     1     68.0291300     23  2.300                                                                 
     2      2.7211652     23  2.700                                                                 
     2     68.0291300     23  2.700                                                                 
     3     13.6058260     23  2.500                                                                 
     3     40.8174780     23  2.500                                                                 
  local pseudopotential read in
  partial core-charges read in
  partial kinetic energy density read in
  kinetic energy density of atom read in
  atomic valenz-charges read in
  non local Contribution for L=           0  read in
    real space projection operators read in
  non local Contribution for L=           0  read in
    real space projection operators read in
  non local Contribution for L=           1  read in
    real space projection operators read in
  non local Contribution for L=           1  read in
    real space projection operators read in
  non local Contribution for L=           2  read in
    real space projection operators read in
  non local Contribution for L=           2  read in
    real space projection operators read in
  non local Contribution for L=           3  read in
    real space projection operators read in
  non local Contribution for L=           3  read in
    real space projection operators read in
    PAW grid and wavefunctions read in
 
   number of l-projection  operators is LMAX  =           8
   number of lm-projection operators is LMMAX =          32
 
  PAW_PBE Sb_GW 21Mar2012               :
 energy of atom  1       EATOM= -149.9515
 kinetic energy error for atom=    0.0054 (will be added to EATOM!!)
 
 
 POSCAR: pnictogen honeycomb monolayer
  positions in direct lattice
  velocities in cartesian coordinates
 exchange correlation table for  LEXCH =        8
   RHO(1)=    0.500       N(1)  =     2000
   RHO(2)=  100.500       N(2)  =     4000
 -----------------------------------------------------------------------------
|                                                                             |
|           W    W    AA    RRRRR   N    N  II  N    N   GGGG   !!!           |
|           W    W   A  A   R    R  NN   N  II  NN   N  G    G  !!!           |
|           W    W  A    A  R    R  N N  N  II  N N  N  G       !!!           |
|           W WW W  AAAAAA  RRRRR   N  N N  II  N  N N  G  GGG   !            |
|           WW  WW  A    A  R   R   N   NN  II  N   NN  G    G                |
|           W    W  A    A  R    R  N    N  II  N    N   GGGG   !!!           |
|                                                                             |
|     The following INCAR tags have not been used:                            |
|     In line 28: STRESSTYPE                                                  |
|     Please check whether the tags are spelled correctly, have the           |
|     correct format, and do not appear multiple times in the file.           |
|                                                                             |
 -----------------------------------------------------------------------------

 


--------------------------------------------------------------------------------------------------------


 ion  position               nearest neighbor table
   1  0.667  0.333  0.449-   2 2.89   2 2.89   2 2.89
   2  0.333  0.667  0.551-   1 2.89   1 2.89   1 2.89
 
  LATTYP: Found a hexagonal cell.
 ALAT       =     4.1133665497
 C/A-ratio  =     3.8897578922
  
  Lattice vectors:
  
 A1 = (   4.1133665497,   0.0000000000,   0.0000000000)
 A2 = (  -2.0566832748,   3.5622799271,   0.0000000000)
 A3 = (   0.0000000000,   0.0000000000,  16.0000000000)


Analysis of symmetry for initial positions (statically):
=====================================================================
 Subroutine PRICEL returns:
 Original cell was already a primitive cell.
 

 Routine SETGRP: Setting up the symmetry group for a 
 hexagonal supercell.


 Subroutine GETGRP returns: Found 12 space group operations
 (whereof 12 operations were pure point group operations)
 out of a pool of 24 trial point group operations.


The static configuration has the point symmetry D_3d.


Analysis of symmetry for dynamics (positions and initial velocities):
=====================================================================
 Subroutine PRICEL returns:
 Original cell was already a primitive cell.
 

 Routine SETGRP: Setting up the symmetry group for a 
 hexagonal supercell.


 Subroutine GETGRP returns: Found 12 space group operations
 (whereof 12 operations were pure point group operations)
 out of a pool of 24 trial point group operations.


The dynamic configuration has the point symmetry D_3d.


 Subroutine INISYM returns: Found 12 space group operations
 (whereof 12 operations are pure point group operations),
 and found     1 'primitive' translations



 irot  :   1
 --------------------------------------------------------------------
 isymop:   1   0   0
           0   1   0
           0   0   1

 gtrans:     0.0000000     0.0000000     0.0000000

 ptrans:     0.0000000     0.0000000     0.0000000
 
 rotmap:
 (   1->   1)  (   2->   2) 


 irot  :   2
 --------------------------------------------------------------------
 isymop:  -1   0   0
           0  -1   0
           0   0  -1

 gtrans:     0.0000000     0.0000000     0.0000000

 ptrans:     0.0000000     0.0000000     0.0000000
 
 rotmap:
 (   1->   2)  (   2->   1) 


 irot  :   3
 --------------------------------------------------------------------
 isymop:   0  -1   0
           1  -1   0
           0   0   1

 gtrans:     0.0000000     0.0000000     0.0000000

 ptrans:     0.0000000     0.0000000     0.0000000
 
 rotmap:
 (   1->   1)  (   2->   2) 


 irot  :   4
 --------------------------------------------------------------------
 isymop:   0   1   0
          -1   1   0
           0   0  -1

 gtrans:     0.0000000     0.0000000     0.0000000

 ptrans:     0.0000000     0.0000000     0.0000000
 
 rotmap:
 (   1->   2)  (   2->   1) 


 irot  :   5
 --------------------------------------------------------------------
 isymop:  -1   1   0
          -1   0   0
           0   0   1

 gtrans:     0.0000000     0.0000000     0.0000000

 ptrans:     0.0000000     0.0000000     0.0000000
 
 rotmap:
 (   1->   1)  (   2->   2) 


 irot  :   6
 --------------------------------------------------------------------
 isymop:   1  -1   0
           1   0   0
           0   0  -1

 gtrans:     0.0000000     0.0000000     0.0000000

 ptrans:     0.0000000     0.0000000     0.0000000
 
 rotmap:
 (   1->   2)  (   2->   1) 


 irot  :   7
 --------------------------------------------------------------------
 isymop:   1  -1   0
           0  -1   0
           0   0  -1

 gtrans:     0.0000000     0.0000000     0.0000000

 ptrans:     0.0000000     0.0000000     0.0000000
 
 rotmap:
 (   1->   2)  (   2->   1) 


 irot  :   8
 --------------------------------------------------------------------
 isymop:  -1   1   0
           0   1   0
           0   0   1

 gtrans:     0.0000000     0.0000000     0.0000000

 ptrans:     0.0000000     0.0000000     0.0000000
 
 rotmap:
 (   1->   1)  (   2->   2) 


 irot  :   9
 --------------------------------------------------------------------
 isymop:  -1   0   0
          -1   1   0
           0   0  -1

 gtrans:     0.0000000     0.0000000     0.0000000

 ptrans:     0.0000000     0.0000000     0.0000000
 
 rotmap:
 (   1->   2)  (   2->   1) 


 irot  :  10
 --------------------------------------------------------------------
 isymop:   1   0   0
           1  -1   0
           0   0   1

 gtrans:     0.0000000     0.0000000     0.0000000

 ptrans:     0.0000000     0.0000000     0.0000000
 
 rotmap:
 (   1->   1)  (   2->   2) 


 irot  :  11
 --------------------------------------------------------------------
 isymop:   0   1   0
           1   0   0
           0   0  -1

 gtrans:     0.0000000     0.0000000     0.0000000

 ptrans:     0.0000000     0.0000000     0.0000000
 
 rotmap:
 (   1->   2)  (   2->   1) 


 irot  :  12
 --------------------------------------------------------------------
 isymop:   0  -1   0
          -1   0   0
           0   0   1

 gtrans:     0.0000000     0.0000000     0.0000000

 ptrans:     0.0000000     0.0000000     0.0000000
 
 rotmap:
 (   1->   1)  (   2->   2) 

----------------------------------------------------------------------------------------

                                     Primitive cell                                     

  volume of cell :     234.4474

  direct lattice vectors                    reciprocal lattice vectors
     4.113366550  0.000000000  0.000000000     0.243109868  0.140359548  0.000000000
    -2.056683275  3.562279927  0.000000000     0.000000000  0.280719096  0.000000000
     0.000000000  0.000000000 16.000000000     0.000000000  0.000000000  0.062500000

  length of vectors
     4.113366550  4.113366550 16.000000000     0.280719096  0.280719096  0.062500000

  position of ions in fractional coordinates (direct lattice)
     0.666666667  0.333333333  0.448625398
     0.333333333  0.666666667  0.551374602

  ion indices of the primitive-cell ions
   primitive index   ion index
                 1           1
                 2           2

----------------------------------------------------------------------------------------

 
 
 KPOINTS: kpoints                                 

Automatic generation of k-mesh.
 Grid dimensions read from file:
 generate k-points for:   11   11    1

 Generating k-lattice:

  Cartesian coordinates                     Fractional coordinates (reciprocal lattice)
     0.022100897  0.012759959  0.000000000     0.090909091  0.000000000  0.000000000
     0.000000000  0.025519918  0.000000000     0.000000000  0.090909091  0.000000000
     0.000000000  0.000000000  0.062500000     0.000000000  0.000000000  1.000000000

  Length of vectors
     0.025519918  0.025519918  0.062500000

  Shift w.r.t. Gamma in fractional coordinates (k-lattice)
     0.000000000  0.000000000  0.000000000

 
 Subroutine IBZKPT returns following result:
 ===========================================
 
 Found     16 irreducible k-points:
 
 Following reciprocal coordinates:
            Coordinates               Weight
  0.000000  0.000000  0.000000      1.000000
  0.090909  0.000000  0.000000      6.000000
  0.181818  0.000000  0.000000      6.000000
  0.272727  0.000000  0.000000      6.000000
  0.363636  0.000000  0.000000      6.000000
  0.454545  0.000000  0.000000      6.000000
  0.090909  0.090909  0.000000      6.000000
  0.181818  0.090909  0.000000     12.000000
  0.272727  0.090909  0.000000     12.000000
  0.363636  0.090909  0.000000     12.000000
  0.454545  0.090909  0.000000      6.000000
  0.181818  0.181818  0.000000      6.000000
  0.272727  0.181818  0.000000     12.000000
  0.363636  0.181818  0.000000     12.000000
  0.272727  0.272727  0.000000      6.000000
  0.363636  0.272727  0.000000      6.000000
 
 Following cartesian coordinates:
            Coordinates               Weight
  0.000000  0.000000  0.000000      1.000000
  0.022101  0.012760  0.000000      6.000000
  0.044202  0.025520  0.000000      6.000000
  0.066303  0.038280  0.000000      6.000000
  0.088404  0.051040  0.000000      6.000000
  0.110504  0.063800  0.000000      6.000000
  0.022101  0.038280  0.000000      6.000000
  0.044202  0.051040  0.000000     12.000000
  0.066303  0.063800  0.000000     12.000000
  0.088404  0.076560  0.000000     12.000000
  0.110504  0.089320  0.000000      6.000000
  0.044202  0.076560  0.000000      6.000000
  0.066303  0.089320  0.000000     12.000000
  0.088404  0.102080  0.000000     12.000000
  0.066303  0.114840  0.000000      6.000000
  0.088404  0.127600  0.000000      6.000000
 
 
 Subroutine IBZKPT_HF returns following result:
 ==============================================
 
 Found    121 k-points in 1st BZ
 the following    121 k-points will be used (e.g. in the exchange kernel)
 Following reciprocal coordinates:   # in IRBZ
  0.000000  0.000000  0.000000    0.00826446   1 t-inv F
  0.090909  0.000000  0.000000    0.00826446   2 t-inv F
  0.181818  0.000000  0.000000    0.00826446   3 t-inv F
  0.272727  0.000000  0.000000    0.00826446   4 t-inv F
  0.363636  0.000000  0.000000    0.00826446   5 t-inv F
  0.454545  0.000000  0.000000    0.00826446   6 t-inv F
  0.090909  0.090909  0.000000    0.00826446   7 t-inv F
  0.181818  0.090909  0.000000    0.00826446   8 t-inv F
  0.272727  0.090909  0.000000    0.00826446   9 t-inv F
  0.363636  0.090909  0.000000    0.00826446  10 t-inv F
  0.454545  0.090909  0.000000    0.00826446  11 t-inv F
  0.181818  0.181818  0.000000    0.00826446  12 t-inv F
  0.272727  0.181818  0.000000    0.00826446  13 t-inv F
  0.363636  0.181818  0.000000    0.00826446  14 t-inv F
  0.272727  0.272727  0.000000    0.00826446  15 t-inv F
  0.363636  0.272727  0.000000    0.00826446  16 t-inv F
 -0.090909 -0.000000  0.000000    0.00826446   2 t-inv F
 -0.090909  0.090909  0.000000    0.00826446   2 t-inv F
  0.090909 -0.090909  0.000000    0.00826446   2 t-inv F
  0.000000 -0.090909  0.000000    0.00826446   2 t-inv F
 -0.000000  0.090909  0.000000    0.00826446   2 t-inv F
 -0.181818 -0.000000  0.000000    0.00826446   3 t-inv F
 -0.181818  0.181818  0.000000    0.00826446   3 t-inv F
  0.181818 -0.181818  0.000000    0.00826446   3 t-inv F
  0.000000 -0.181818  0.000000    0.00826446   3 t-inv F
 -0.000000  0.181818  0.000000    0.00826446   3 t-inv F
 -0.272727  0.000000  0.000000    0.00826446   4 t-inv F
 -0.272727  0.272727  0.000000    0.00826446   4 t-inv F
  0.272727 -0.272727  0.000000    0.00826446   4 t-inv F
  0.000000 -0.272727  0.000000    0.00826446   4 t-inv F
  0.000000  0.272727  0.000000    0.00826446   4 t-inv F
 -0.363636  0.000000  0.000000    0.00826446   5 t-inv F
 -0.363636  0.363636  0.000000    0.00826446   5 t-inv F
  0.363636 -0.363636  0.000000    0.00826446   5 t-inv F
  0.000000 -0.363636  0.000000    0.00826446   5 t-inv F
  0.000000  0.363636  0.000000    0.00826446   5 t-inv F
 -0.454545  0.000000  0.000000    0.00826446   6 t-inv F
 -0.454545  0.454545  0.000000    0.00826446   6 t-inv F
  0.454545 -0.454545  0.000000    0.00826446   6 t-inv F
  0.000000 -0.454545  0.000000    0.00826446   6 t-inv F
  0.000000  0.454545  0.000000    0.00826446   6 t-inv F
 -0.090909 -0.090909  0.000000    0.00826446   7 t-inv F
 -0.181818  0.090909  0.000000    0.00826446   7 t-inv F
  0.181818 -0.090909  0.000000    0.00826446   7 t-inv F
  0.090909 -0.181818  0.000000    0.00826446   7 t-inv F
 -0.090909  0.181818  0.000000    0.00826446   7 t-inv F
 -0.181818 -0.090909  0.000000    0.00826446   8 t-inv F
 -0.272727  0.181818  0.000000    0.00826446   8 t-inv F
  0.272727 -0.181818  0.000000    0.00826446   8 t-inv F
  0.090909 -0.272727  0.000000    0.00826446   8 t-inv F
 -0.090909  0.272727  0.000000    0.00826446   8 t-inv F
  0.181818 -0.272727  0.000000    0.00826446   8 t-inv F
 -0.181818  0.272727  0.000000    0.00826446   8 t-inv F
 -0.272727  0.090909  0.000000    0.00826446   8 t-inv F
  0.272727 -0.090909  0.000000    0.00826446   8 t-inv F
  0.090909  0.181818  0.000000    0.00826446   8 t-inv F
 -0.090909 -0.181818  0.000000    0.00826446   8 t-inv F
 -0.272727 -0.090909  0.000000    0.00826446   9 t-inv F
 -0.363636  0.272727  0.000000    0.00826446   9 t-inv F
  0.363636 -0.272727  0.000000    0.00826446   9 t-inv F
  0.090909 -0.363636  0.000000    0.00826446   9 t-inv F
 -0.090909  0.363636  0.000000    0.00826446   9 t-inv F
  0.272727 -0.363636  0.000000    0.00826446   9 t-inv F
 -0.272727  0.363636  0.000000    0.00826446   9 t-inv F
 -0.363636  0.090909  0.000000    0.00826446   9 t-inv F
  0.363636 -0.090909  0.000000    0.00826446   9 t-inv F
  0.090909  0.272727  0.000000    0.00826446   9 t-inv F
 -0.090909 -0.272727  0.000000    0.00826446   9 t-inv F
 -0.363636 -0.090909  0.000000    0.00826446  10 t-inv F
 -0.454545  0.363636  0.000000    0.00826446  10 t-inv F
  0.454545 -0.363636  0.000000    0.00826446  10 t-inv F
  0.090909 -0.454545  0.000000    0.00826446  10 t-inv F
 -0.090909  0.454545  0.000000    0.00826446  10 t-inv F
  0.363636 -0.454545  0.000000    0.00826446  10 t-inv F
 -0.363636  0.454545  0.000000    0.00826446  10 t-inv F
 -0.454545  0.090909  0.000000    0.00826446  10 t-inv F
  0.454545 -0.090909  0.000000    0.00826446  10 t-inv F
  0.090909  0.363636  0.000000    0.00826446  10 t-inv F
 -0.090909 -0.363636  0.000000    0.00826446  10 t-inv F
 -0.454545 -0.090909  0.000000    0.00826446  11 t-inv F
 -0.545455  0.454545  0.000000    0.00826446  11 t-inv F
  0.545455 -0.454545  0.000000    0.00826446  11 t-inv F
  0.090909 -0.545455  0.000000    0.00826446  11 t-inv F
 -0.090909  0.545455  0.000000    0.00826446  11 t-inv F
 -0.181818 -0.181818  0.000000    0.00826446  12 t-inv F
 -0.363636  0.181818  0.000000    0.00826446  12 t-inv F
  0.363636 -0.181818  0.000000    0.00826446  12 t-inv F
  0.181818 -0.363636  0.000000    0.00826446  12 t-inv F
 -0.181818  0.363636  0.000000    0.00826446  12 t-inv F
 -0.272727 -0.181818  0.000000    0.00826446  13 t-inv F
 -0.454545  0.272727  0.000000    0.00826446  13 t-inv F
  0.454545 -0.272727  0.000000    0.00826446  13 t-inv F
  0.181818 -0.454545  0.000000    0.00826446  13 t-inv F
 -0.181818  0.454545  0.000000    0.00826446  13 t-inv F
  0.272727 -0.454545  0.000000    0.00826446  13 t-inv F
 -0.272727  0.454545  0.000000    0.00826446  13 t-inv F
 -0.454545  0.181818  0.000000    0.00826446  13 t-inv F
  0.454545 -0.181818  0.000000    0.00826446  13 t-inv F
  0.181818  0.272727  0.000000    0.00826446  13 t-inv F
 -0.181818 -0.272727  0.000000    0.00826446  13 t-inv F
 -0.363636 -0.181818  0.000000    0.00826446  14 t-inv F
 -0.545455  0.363636  0.000000    0.00826446  14 t-inv F
  0.545455 -0.363636  0.000000    0.00826446  14 t-inv F
  0.181818 -0.545455  0.000000    0.00826446  14 t-inv F
 -0.181818  0.545455  0.000000    0.00826446  14 t-inv F
  0.363636 -0.545455  0.000000    0.00826446  14 t-inv F
 -0.363636  0.545455  0.000000    0.00826446  14 t-inv F
 -0.545455  0.181818  0.000000    0.00826446  14 t-inv F
  0.545455 -0.181818  0.000000    0.00826446  14 t-inv F
  0.181818  0.363636  0.000000    0.00826446  14 t-inv F
 -0.181818 -0.363636  0.000000    0.00826446  14 t-inv F
 -0.272727 -0.272727  0.000000    0.00826446  15 t-inv F
 -0.545455  0.272727  0.000000    0.00826446  15 t-inv F
  0.545455 -0.272727  0.000000    0.00826446  15 t-inv F
  0.272727 -0.545455  0.000000    0.00826446  15 t-inv F
 -0.272727  0.545455  0.000000    0.00826446  15 t-inv F
 -0.363636 -0.272727  0.000000    0.00826446  16 t-inv F
 -0.636364  0.363636  0.000000    0.00826446  16 t-inv F
  0.636364 -0.363636  0.000000    0.00826446  16 t-inv F
  0.272727 -0.636364  0.000000    0.00826446  16 t-inv F
 -0.272727  0.636364  0.000000    0.00826446  16 t-inv F


--------------------------------------------------------------------------------------------------------




 Dimension of arrays:
   k-points           NKPTS =     16   k-points in BZ     NKDIM =     16   number of bands    NBANDS=     16
   number of dos      NEDOS =   6001   number of ions     NIONS =      2
   non local maximal  LDIM  =      8   non local SUM 2l+1 LMDIM =     32
   total plane-waves  NPLWV =  32000
   max r-space proj   IRMAX =      1   max aug-charges    IRDMAX=  60791
   dimension x,y,z NGX =    20 NGY =   20 NGZ =   80
   dimension x,y,z NGXF=    40 NGYF=   40 NGZF=  160
   support grid    NGXF=    80 NGYF=   80 NGZF=  320
   ions per type =               2
   NGX,Y,Z   is equivalent  to a cutoff of   8.08,  8.08,  8.31 a.u.
   NGXF,Y,Z  is equivalent  to a cutoff of  16.17, 16.17, 16.62 a.u.

 SYSTEM =  unknown system                          
 POSCAR =  pnictogen honeycomb monolayer           

 Startparameter for this run:
   NWRITE =      3    write-flag & timer
   PREC   = accura    normal or accurate (medium, high low for compatibility)
   ISTART =      0    job   : 0-new  1-cont  2-samecut
   ICHARG =      2    charge: 1-file 2-atom 10-const
   ISPIN  =      1    spin polarized calculation?
   LNONCOLLINEAR =      F non collinear calculations
   LSORBIT =      F    spin-orbit coupling
   INIWAV =      1    electr: 0-lowe 1-rand  2-diag
   LASPH  =      T    aspherical Exc in radial PAW
 Electronic Relaxation 1
   ENCUT  =  193.6 eV  14.23 Ry    3.77 a.u.   4.67  4.67 18.15*2*pi/ulx,y,z
   ENINI  =  193.6     initial cutoff
   ENAUG  =  560.6 eV  augmentation charge cutoff
   NELM   =    200;   NELMIN=  6; NELMDL=-12     # of ELM steps 
   EDIFF  = 0.1E-05   stopping-criterion for ELM
   LREAL  =      F    real-space projection
   NLSPLINE    = F    spline interpolate recip. space projectors
   LCOMPAT=      F    compatible to vasp.4.4
   GGA_COMPAT  = T    GGA compatible to vasp.4.4-vasp.4.6
   LMAXPAW     = -100 max onsite density
   LMAXMIX     =    2 max onsite mixed and CHGCAR
   VOSKOWN=      0    Vosko Wilk Nusair interpolation
   ROPT   =    0.00000
 Ionic relaxation
   EDIFFG = -.1E-01   stopping-criterion for IOM
   NSW    =      1    number of steps for IOM
   NBLOCK =      1;   KBLOCK =      1    inner block; outer block 
   IBRION =      8    ionic relax: 0-MD 1-quasi-New 2-CG
   NFREE  =      0    steps in history (QN), initial steepest desc. (CG)
   ISIF   =      2    stress and relaxation
   IWAVPR =     11    prediction:  0-non 1-charg 2-wave 3-comb
   ISYM   =      2    0-nonsym 1-usesym 2-fastsym
   LCORR  =      T    Harris-Foulkes like correction to forces

   POTIM  = 0.0100    time-step for ionic-motion
   TEIN   =    0.0    initial temperature
   TEBEG  =    0.0;   TEEND  =   0.0 temperature during run
   SMASS  =  -3.00    Nose mass-parameter (am)
   estimated Nose-frequenzy (Omega)   =  0.10E-29 period in steps = 0.63E+48 mass=  -0.387E-27a.u.
   SCALEE = 1.0000    scale energy and forces
   NPACO  =    256;   APACO  = 10.0  distance and # of slots for P.C.
   PSTRESS=    0.0 pullay stress

  Mass of Ions in am
   POMASS = 121.75
  Ionic Valenz
   ZVAL   =   5.00
  Atomic Wigner-Seitz radii
   RWIGS  =  -1.00
  virtual crystal weights 
   VCA    =   1.00
   NELECT =      10.0000    total number of electrons
   NUPDOWN=      -1.0000    fix difference up-down

 DOS related values:
   EMIN   =  10.00;   EMAX   =-10.00  energy-range for DOS
   EFERMI =   0.00;   METHOD = LEGACY      
   ISMEAR =     0;   SIGMA  =   0.01  broadening in eV -4-tet -1-fermi 0-gaus

 Electronic relaxation 2 (details)
   IALGO  =     38    algorithm
   LDIAG  =      T    sub-space diagonalisation (order eigenvalues)
   LSUBROT=      F    optimize rotation matrix (better conditioning)
   TURBO    =      0    0=normal 1=particle mesh
   IRESTART =      0    0=no restart 2=restart with 2 vectors
   NREBOOT  =      0    no. of reboots
   NMIN     =      0    reboot dimension
   EREF     =   0.00    reference energy to select bands
   IMIX   =      4    mixing-type and parameters
     AMIX     =   0.10;   BMIX     =  0.00
     AMIX_MAG =   0.40;   BMIX_MAG =  0.00
     AMIN     =   0.10
     WC   =   100.;   INIMIX=   1;  MIXPRE=   1;  MAXMIX= -45

 Intra band minimization:
   WEIMIN = 0.0010     energy-eigenvalue tresh-hold
   EBREAK =  0.16E-07  absolut break condition
   DEPER  =   0.30     relativ break condition  

   TIME   =   0.40     timestep for ELM

  volume/ion in A,a.u.               =     117.22       791.06
  Fermi-wavevector in a.u.,A,eV,Ry     =   0.571996  1.080916  4.451547  0.327179
  Thomas-Fermi vector in A             =   1.612688
 
 Write flags
   LWAVE        =      F    write WAVECAR
   LDOWNSAMPLE  =      F    k-point downsampling of WAVECAR
   LCHARG       =      F    write CHGCAR
   LVTOT        =      F    write LOCPOT, total local potential
   LVHAR        =      F    write LOCPOT, Hartree potential only
   LELF         =      F    write electronic localiz. function (ELF)
   LORBIT       =     10    0 simple, 1 ext, 2 COOP (PROOUT), +10 PAW based schemes


 Dipole corrections
   LMONO  =      F    monopole corrections only (constant potential shift)
   LDIPOL =      F    correct potential (dipole corrections)
   IDIPOL =      0    1-x, 2-y, 3-z, 4-all directions 
   EPSILON=  1.0000000 bulk dielectric constant

 Exchange correlation treatment:
   GGA     =    --    GGA type
   LEXCH   =     8    internal setting for exchange type
   LIBXC   =     F    Libxc                    
   VOSKOWN =     0    Vosko Wilk Nusair interpolation
   LHFCALC =     F    Hartree Fock is set to
   LHFONE  =     F    Hartree Fock one center treatment
   AEXX    =    0.0000 exact exchange contribution

 Linear response parameters
   LEPSILON=     F    determine dielectric tensor
   LRPA    =     F    only Hartree local field effects (RPA)
   LNABLA  =     F    use nabla operator in PAW spheres
   LVEL    =     F    velocity operator in full k-point grid
   CSHIFT  =0.1000    complex shift for real part using Kramers Kronig
   OMEGAMAX=  -1.0    maximum frequency
   DEG_THRESHOLD= 0.2000000E-02 threshold for treating states as degnerate
   RTIME   =   -0.100 relaxation time in fs
  (WPLASMAI=    0.000 imaginary part of plasma frequency in eV, 0.658/RTIME)
   DFIELD  = 0.0000000 0.0000000 0.0000000 field for delta impulse in time
 
  Optional k-point grid parameters
   LKPOINTS_OPT  =     F    use optional k-point grid
   KPOINTS_OPT_MODE=     1    mode for optional k-point grid
 
 Orbital magnetization related:
   ORBITALMAG=     F  switch on orbital magnetization
   LCHIMAG   =     F  perturbation theory with respect to B field
   DQ        =  0.001000  dq finite difference perturbation B field
   LLRAUG    =     F  two centre corrections for induced B field
   LBONE     =     F  B-component reconstruction in AE one-centre
   LVGVCALC  =     T  calculate vGv susceptibility
   LVGVAPPL  =     F  apply vGv susceptibility instead of pGv for G=0

 Random number generation:
   RANDOM_GENERATOR = DEFAULT
   PCG_SEED         = not used


--------------------------------------------------------------------------------------------------------


 linear response using symmetry
 charge density and potential will be updated during run
 non-spin polarized calculation
 Variant of blocked Davidson
 Davidson routine will perform the subspace rotation
 perform sub-space diagonalisation
    after iterative eigenvector-optimisation
 modified Broyden-mixing scheme, WC =      100.0
 initial mixing is a Kerker type mixing with AMIX =  0.1000 and BMIX =      0.0001
 Hartree-type preconditioning will be used
 using additional bands           11
 reciprocal scheme for non local part
 use partial core corrections
 calculate Harris-corrections to forces 
   (improved forces if not selfconsistent)
 use gradient corrections 
 use of overlap-Matrix (Vanderbilt PP)
 Gauss-broadening in eV      SIGMA  =   0.01


--------------------------------------------------------------------------------------------------------


  energy-cutoff  :      193.58
  volume of cell :      234.45
      direct lattice vectors                 reciprocal lattice vectors
     4.113366550  0.000000000  0.000000000     0.243109868  0.140359548  0.000000000
    -2.056683275  3.562279927  0.000000000     0.000000000  0.280719096  0.000000000
     0.000000000  0.000000000 16.000000000     0.000000000  0.000000000  0.062500000

  length of vectors
     4.113366550  4.113366550 16.000000000     0.280719096  0.280719096  0.062500000


 
 k-points in units of 2pi/SCALE and weight: kpoints                                 
   0.00000000  0.00000000  0.00000000       0.008
   0.02210090  0.01275996  0.00000000       0.050
   0.04420179  0.02551992  0.00000000       0.050
   0.06630269  0.03827988  0.00000000       0.050
   0.08840359  0.05103984  0.00000000       0.050
   0.11050449  0.06379979  0.00000000       0.050
   0.02210090  0.03827988  0.00000000       0.050
   0.04420179  0.05103984  0.00000000       0.099
   0.06630269  0.06379979  0.00000000       0.099
   0.08840359  0.07655975  0.00000000       0.099
   0.11050449  0.08931971  0.00000000       0.050
   0.04420179  0.07655975  0.00000000       0.050
   0.06630269  0.08931971  0.00000000       0.099
   0.08840359  0.10207967  0.00000000       0.099
   0.06630269  0.11483963  0.00000000       0.050
   0.08840359  0.12759959  0.00000000       0.050
 
 k-points in reciprocal lattice and weights: kpoints                                 
   0.00000000  0.00000000  0.00000000       0.008
   0.09090909  0.00000000  0.00000000       0.050
   0.18181818  0.00000000  0.00000000       0.050
   0.27272727  0.00000000  0.00000000       0.050
   0.36363636  0.00000000  0.00000000       0.050
   0.45454545  0.00000000  0.00000000       0.050
   0.09090909  0.09090909  0.00000000       0.050
   0.18181818  0.09090909  0.00000000       0.099
   0.27272727  0.09090909  0.00000000       0.099
   0.36363636  0.09090909  0.00000000       0.099
   0.45454545  0.09090909  0.00000000       0.050
   0.18181818  0.18181818  0.00000000       0.050
   0.27272727  0.18181818  0.00000000       0.099
   0.36363636  0.18181818  0.00000000       0.099
   0.27272727  0.27272727  0.00000000       0.050
   0.36363636  0.27272727  0.00000000       0.050
 
 position of ions in fractional coordinates (direct lattice) 
   0.66666667  0.33333333  0.44862540
   0.33333333  0.66666667  0.55137460
 
 position of ions in cartesian coordinates  (Angst):
   2.05668327  1.18742664  7.17800637
   0.00000000  2.37485328  8.82199363
 


--------------------------------------------------------------------------------------------------------


 k-point   1 :   0.0000 0.0000 0.0000  plane waves:    1453
 k-point   2 :   0.0909 0.0000 0.0000  plane waves:    1428
 k-point   3 :   0.1818 0.0000 0.0000  plane waves:    1446
 k-point   4 :   0.2727 0.0000 0.0000  plane waves:    1440
 k-point   5 :   0.3636 0.0000 0.0000  plane waves:    1436
 k-point   6 :   0.4545 0.0000 0.0000  plane waves:    1444
 k-point   7 :   0.0909 0.0909 0.0000  plane waves:    1451
 k-point   8 :   0.1818 0.0909 0.0000  plane waves:    1438
 k-point   9 :   0.2727 0.0909 0.0000  plane waves:    1431
 k-point  10 :   0.3636 0.0909 0.0000  plane waves:    1433
 k-point  11 :   0.4545 0.0909 0.0000  plane waves:    1442
 k-point  12 :   0.1818 0.1818 0.0000  plane waves:    1427
 k-point  13 :   0.2727 0.1818 0.0000  plane waves:    1434
 k-point  14 :   0.3636 0.1818 0.0000  plane waves:    1424
 k-point  15 :   0.2727 0.2727 0.0000  plane waves:    1411
 k-point  16 :   0.3636 0.2727 0.0000  plane waves:    1410

 maximum and minimum number of plane-waves per node :      1453     1410

 maximum number of plane-waves:      1453
 maximum index in each direction: 
   IXMAX=    4   IYMAX=    4   IZMAX=   18
   IXMIN=   -5   IYMIN=   -4   IZMIN=  -18


 serial   3D FFT for wavefunctions
 parallel 3D FFT for charge:
    minimum data exchange during FFTs selected (reduces bandwidth)


 total amount of memory used by VASP MPI-rank0    41247. kBytes
=======================================================================

   base      :      30000. kBytes
   nonl-proj :       6010. kBytes
   fftplans  :       2535. kBytes
   grid      :       2215. kBytes
   one-center:         98. kBytes
   wavefun   :        389. kBytes
 
     INWAV:  cpu time      0.0000: real time      0.0000
 Broyden mixing: mesh for mixing (old mesh)
   NGX =  9   NGY =  9   NGZ = 37
  (NGX  = 40   NGY  = 40   NGZ  =160)
  gives a total of   2997 points

 initial charge density was supplied:
 charge density of overlapping atoms calculated
 number of electron      10.0000000 magnetization 
 keeping initial charge density in first step


--------------------------------------------------------------------------------------------------------


 Maximum index for augmentation-charges         3590 (set IRDMAX)


--------------------------------------------------------------------------------------------------------


 First call to EWALD:  gamma=   0.287
 Maximum number of real-space cells 4x 4x 1
 Maximum number of reciprocal cells 2x 2x 6

    FEWALD:  cpu time      0.0010: real time      0.0010


--------------------------------------- Ionic step        1  -------------------------------------------




--------------------------------------- Iteration      1(   1)  ---------------------------------------


    POTLOK:  cpu time      0.0107: real time      0.0107
    SETDIJ:  cpu time      0.2711: real time      0.2712
     EDDAV:  cpu time      0.1053: real time      0.1054
       DOS:  cpu time      0.0005: real time      0.0005
    --------------------------------------------
      LOOP:  cpu time      0.3876: real time      0.3878

 eigenvalue-minimisations  :   544
 total energy-change (2. order) : 0.1753144E+02  (-0.2068727E+03)
 number of electron      10.0000000 magnetization 
 augmentation part       10.0000000 magnetization 

 Free energy of the ion-electron system (eV)
  ---------------------------------------------------
  alpha Z        PSCENC =         2.97593478
  Ewald energy   TEWEN  =       213.91894841
  -Hartree energ DENC   =      -467.82089709
  -exchange      EXHF   =         0.00000000
  -V(xc)+E(xc)   XCENC  =       -92.70009852
  PAW double counting   =       327.35893868     -219.44694627
  entropy T*S    EENTRO =        -0.00000000
  eigenvalues    EBANDS =       -46.64661148
  atomic energy  EATOM  =       299.89217194
  Solvation  Ediel_sol  =         0.00000000
  ---------------------------------------------------
  free energy    TOTEN  =        17.53144045 eV

  energy without entropy =       17.53144045  energy(sigma->0) =       17.53144045


--------------------------------------------------------------------------------------------------------




 average (electrostatic) potential at core
  the test charge radii are     1.1712
  (the norm of the test charge is              1.0000)
       1 -81.4303       2 -81.4303
 
 
 
 E-fermi :   1.6922     XC(G=0):  -3.4380     alpha+bet : -2.6626

 Fermi energy:         1.6922061044

 k-point     1 :       0.0000    0.0000    0.0000
  band No.  band energies     occupation 
      1     -13.4514      2.00000
      2      -7.1712      2.00000
      3      -1.4457      2.00000
      4       0.8114      2.00000
      5       1.6105      2.00000
      6       2.1732      0.00000
      7       2.5493      0.00000
      8       3.5681      0.00000
      9       4.5772      0.00000
     10       5.7549      0.00000
     11       6.7027      0.00000
     12       7.4792      0.00000
     13       9.1673      0.00000
     14      10.6661      0.00000
     15      11.4712      0.00000
     16      12.3331      0.00000

 k-point     2 :       0.0909    0.0000    0.0000
  band No.  band energies     occupation 
      1     -12.4156      2.00000
      2      -6.3457      2.00000
      3      -2.1975      2.00000
      4       0.3047      2.00000
      5       1.2497      2.00000
      6       2.3821      0.00000
      7       2.6700      0.00000
      8       4.0737      0.00000
      9       4.5433      0.00000
     10       5.0624      0.00000
     11       6.6865      0.00000
     12       8.0237      0.00000
     13       9.1219      0.00000
     14       9.5639      0.00000
     15      10.7224      0.00000
     16      12.0147      0.00000

 k-point     3 :       0.1818    0.0000    0.0000
  band No.  band energies     occupation 
      1     -12.4438      2.00000
      2      -6.2873      2.00000
      3      -1.9960      2.00000
      4      -0.9067      2.00000
      5       1.6315      2.00000
      6       2.4789      0.00000
      7       3.2141      0.00000
      8       3.7273      0.00000
      9       5.0583      0.00000
     10       6.0334      0.00000
     11       7.0557      0.00000
     12       7.6636      0.00000
     13       9.5684      0.00000
     14      11.0125      0.00000
     15      11.3873      0.00000
     16      12.3378      0.00000

 k-point     4 :       0.2727    0.0000    0.0000
  band No.  band energies     occupation 
      1     -13.1029      2.00000
      2      -7.4966      2.00000
      3      -4.4534      2.00000
      4      -2.7110      2.00000
      5      -1.8600      2.00000
      6      -0.4969      2.00000
      7       1.6494      2.00000
      8       3.0035      0.00000
      9       3.3267      0.00000
     10       4.7790      0.00000
     11       5.4370      0.00000
     12       6.3845      0.00000
     13       7.7972      0.00000
     14       7.8948      0.00000
     15       8.4181      0.00000
     16       9.3763      0.00000

 k-point     5 :       0.3636    0.0000    0.0000
  band No.  band energies     occupation 
      1     -10.1863      2.00000
      2      -6.7981      2.00000
      3      -4.3976      2.00000
      4      -1.4481      2.00000
      5       0.6317      2.00000
      6       2.0566      0.00000
      7       4.0303      0.00000
      8       4.3728      0.00000
      9       4.9092      0.00000
     10       5.9547      0.00000
     11       6.9413      0.00000
     12       7.4913      0.00000
     13       8.4725      0.00000
     14       9.3973      0.00000
     15      10.0319      0.00000
     16      11.1739      0.00000

 k-point     6 :       0.4545    0.0000    0.0000
  band No.  band energies     occupation 
      1      -9.3809      2.00000
      2      -6.6375      2.00000
      3      -4.1349      2.00000
      4      -1.5231      2.00000
      5       0.3959      2.00000
      6       2.5202      0.00000
      7       3.5418      0.00000
      8       5.0994      0.00000
      9       5.4361      0.00000
     10       6.1832      0.00000
     11       6.5077      0.00000
     12       7.6354      0.00000
     13       8.9615      0.00000
     14       9.2588      0.00000
     15       9.9290      0.00000
     16      11.8065      0.00000

 k-point     7 :       0.0909    0.0909    0.0000
  band No.  band energies     occupation 
      1     -11.6759      2.00000
      2      -6.9042      2.00000
      3      -2.0352      2.00000
      4      -1.2236      2.00000
      5       2.4780      0.00000
      6       2.6667      0.00000
      7       2.9206      0.00000
      8       4.4950      0.00000
      9       5.6881      0.00000
     10       6.7938      0.00000
     11       7.3313      0.00000
     12       7.9067      0.00000
     13       9.3245      0.00000
     14      11.0313      0.00000
     15      11.5250      0.00000
     16      12.9365      0.00000

 k-point     8 :       0.1818    0.0909    0.0000
  band No.  band energies     occupation 
      1     -11.8351      2.00000
      2      -7.3576      2.00000
      3      -3.9790      2.00000
      4      -1.1365      2.00000
      5       0.9326      2.00000
      6       2.7085      0.00000
      7       3.1541      0.00000
      8       3.7537      0.00000
      9       5.0457      0.00000
     10       5.8572      0.00000
     11       6.7268      0.00000
     12       7.8195      0.00000
     13       9.5127      0.00000
     14       9.8806      0.00000
     15      10.9301      0.00000
     16      11.7488      0.00000

 k-point     9 :       0.2727    0.0909    0.0000
  band No.  band energies     occupation 
      1     -11.5718      2.00000
      2      -6.7792      2.00000
      3      -3.7534      2.00000
      4      -2.6015      2.00000
      5      -0.9091      2.00000
      6       3.5616      0.00000
      7       4.0641      0.00000
      8       4.7862      0.00000
      9       5.6876      0.00000
     10       5.8499      0.00000
     11       6.6664      0.00000
     12       8.1264      0.00000
     13       8.6222      0.00000
     14       9.8936      0.00000
     15      11.2029      0.00000
     16      12.3166      0.00000

 k-point    10 :       0.3636    0.0909    0.0000
  band No.  band energies     occupation 
      1      -9.3216      2.00000
      2      -6.6519      2.00000
      3      -3.1732      2.00000
      4      -1.3808      2.00000
      5       0.1631      2.00000
      6       2.5217      0.00000
      7       3.3231      0.00000
      8       4.6869      0.00000
      9       5.3592      0.00000
     10       6.4519      0.00000
     11       6.7995      0.00000
     12       7.4852      0.00000
     13       7.9387      0.00000
     14       9.2229      0.00000
     15      10.1702      0.00000
     16      11.7595      0.00000

 k-point    11 :       0.4545    0.0909    0.0000
  band No.  band energies     occupation 
      1     -10.2930      2.00000
      2      -7.2714      2.00000
      3      -3.5739      2.00000
      4      -2.7238      2.00000
      5      -1.6754      2.00000
      6       2.5274      0.00000
      7       3.5695      0.00000
      8       5.1219      0.00000
      9       5.7006      0.00000
     10       6.1730      0.00000
     11       6.4502      0.00000
     12       7.4637      0.00000
     13       8.3468      0.00000
     14       8.9448      0.00000
     15      10.0183      0.00000
     16      10.9978      0.00000

 k-point    12 :       0.1818    0.1818    0.0000
  band No.  band energies     occupation 
      1     -11.0847      2.00000
      2      -6.8859      2.00000
      3      -4.0173      2.00000
      4      -2.2017      2.00000
      5      -0.3342      2.00000
      6       3.1699      0.00000
      7       3.5665      0.00000
      8       3.9238      0.00000
      9       5.1077      0.00000
     10       5.2345      0.00000
     11       7.3199      0.00000
     12       7.7980      0.00000
     13       9.4534      0.00000
     14       9.9950      0.00000
     15      11.2134      0.00000
     16      12.5197      0.00000

 k-point    13 :       0.2727    0.1818    0.0000
  band No.  band energies     occupation 
      1      -9.7736      2.00000
      2      -5.6264      2.00000
      3      -3.7394      2.00000
      4      -2.5858      2.00000
      5       2.4066      0.00000
      6       3.2360      0.00000
      7       4.4014      0.00000
      8       4.5355      0.00000
      9       4.9655      0.00000
     10       6.5158      0.00000
     11       6.9776      0.00000
     12       8.2172      0.00000
     13       8.9891      0.00000
     14      10.2134      0.00000
     15      10.9516      0.00000
     16      12.3086      0.00000

 k-point    14 :       0.3636    0.1818    0.0000
  band No.  band energies     occupation 
      1      -9.3456      2.00000
      2      -6.8832      2.00000
      3      -4.0876      2.00000
      4      -1.8073      2.00000
      5      -0.7333      2.00000
      6       2.4489      0.00000
      7       4.9434      0.00000
      8       5.5715      0.00000
      9       5.7300      0.00000
     10       6.2297      0.00000
     11       7.1029      0.00000
     12       7.4869      0.00000
     13       8.4904      0.00000
     14       9.2162      0.00000
     15       9.9068      0.00000
     16      10.9479      0.00000

 k-point    15 :       0.2727    0.2727    0.0000
  band No.  band energies     occupation 
      1     -10.9314      2.00000
      2      -9.3375      2.00000
      3      -5.3882      2.00000
      4      -4.2894      2.00000
      5      -2.3922      2.00000
      6       0.4871      2.00000
      7       1.8894      0.00000
      8       3.7025      0.00000
      9       4.8455      0.00000
     10       5.1931      0.00000
     11       5.6088      0.00000
     12       6.6439      0.00000
     13       6.7346      0.00000
     14       7.1232      0.00000
     15       7.7749      0.00000
     16       8.8724      0.00000

 k-point    16 :       0.3636    0.2727    0.0000
  band No.  band energies     occupation 
      1      -8.7906      2.00000
      2      -6.8068      2.00000
      3      -4.4166      2.00000
      4      -2.6542      2.00000
      5      -1.4281      2.00000
      6       1.9614      0.00000
      7       3.9573      0.00000
      8       4.9388      0.00000
      9       5.7391      0.00000
     10       6.0903      0.00000
     11       6.7404      0.00000
     12       7.3801      0.00000
     13       7.9224      0.00000
     14       9.4854      0.00000
     15      10.0208      0.00000
     16      11.3268      0.00000


--------------------------------------------------------------------------------------------------------


 soft charge-density along one line, spin component           1
         0         1         2         3         4         5         6         7         8         9
 total charge-density along one line
 
 pseudopotential strength for first ion, spin component:           1
 34.107 -21.135  -0.000   0.025   0.000   0.000  -0.039  -0.000
-21.135  31.182   0.000  -0.008  -0.000  -0.000   0.007   0.000
 -0.000   0.000   7.218   0.000   0.000 -12.170  -0.000  -0.000
  0.025  -0.008   0.000   7.217  -0.000  -0.000 -12.169   0.000
  0.000  -0.000   0.000  -0.000   7.218  -0.000   0.000 -12.170
  0.000  -0.000 -12.170  -0.000  -0.000  31.637   0.000   0.000
 -0.039   0.007  -0.000 -12.169   0.000   0.000  31.635  -0.000
 -0.000   0.000  -0.000   0.000 -12.170   0.000  -0.000  31.637
  0.000  -0.000  -0.000  -0.000   0.003   0.000   0.000  -0.003
  0.000  -0.000   0.012  -0.000  -0.000  -0.017   0.000   0.000
 -0.001   0.001  -0.000   0.009   0.000   0.000  -0.014  -0.000
 -0.000   0.000  -0.000   0.000   0.012   0.000  -0.000  -0.017
 -0.000   0.000   0.003   0.000   0.000  -0.003  -0.000  -0.000
 -0.000   0.000   0.000   0.000  -0.004  -0.000  -0.000   0.005
 -0.000   0.000  -0.020   0.000   0.000   0.031  -0.000  -0.000
  0.002  -0.001   0.000  -0.017  -0.000  -0.000   0.027   0.000
  0.000  -0.000   0.000  -0.000  -0.020  -0.000   0.000   0.031
  0.000  -0.000  -0.004  -0.000  -0.000   0.005   0.000   0.000
  0.001   0.003  -0.000   0.000   0.000   0.000   0.000  -0.000
 -0.000  -0.000  -0.000   0.000   0.000  -0.000  -0.000   0.000
 -0.000  -0.000  -0.000   0.000  -0.000   0.000   0.000  -0.000
 -0.001  -0.002  -0.000  -0.000   0.000   0.000  -0.000  -0.000
  0.000   0.000  -0.000  -0.000  -0.000  -0.000  -0.000   0.000
  0.000   0.000   0.000  -0.000  -0.000   0.000   0.000  -0.000
  0.000   0.000  -0.000   0.000  -0.000  -0.000   0.000  -0.000
 -0.007  -0.002   0.000  -0.002  -0.000  -0.000   0.001   0.000
  0.000   0.000   0.000  -0.000  -0.002  -0.000   0.000   0.001
  0.000   0.000   0.000  -0.000   0.000  -0.000   0.000  -0.000
  0.006   0.001   0.000   0.002  -0.000  -0.000  -0.002   0.000
 -0.000  -0.000   0.000   0.000   0.000  -0.000  -0.000  -0.000
 -0.000  -0.000  -0.002   0.000   0.000   0.001  -0.000  -0.000
 -0.000  -0.000   0.000  -0.000   0.000  -0.000   0.000  -0.000
 total augmentation occupancy for first ion, spin component:           1
  2.000   0.000   0.000   0.000   0.000   0.000   0.000   0.000   0.000   0.000   0.000   0.000   0.000   0.000   0.000   0.000
  0.000   0.000   0.000   0.000   0.000   0.000   0.000   0.000   0.000   0.000   0.000   0.000   0.000   0.000   0.000   0.000
  0.000   0.000   1.000   0.000   0.000   0.000   0.000   0.000   0.000   0.000   0.000   0.000   0.000   0.000   0.000   0.000
  0.000   0.000   0.000   1.000   0.000   0.000   0.000   0.000   0.000   0.000   0.000   0.000   0.000   0.000   0.000   0.000
  0.000   0.000   0.000   0.000   1.000   0.000   0.000   0.000   0.000   0.000   0.000   0.000   0.000   0.000   0.000   0.000
  0.000   0.000   0.000   0.000   0.000   0.000   0.000   0.000   0.000   0.000   0.000   0.000   0.000   0.000   0.000   0.000
  0.000   0.000   0.000   0.000   0.000   0.000   0.000   0.000   0.000   0.000   0.000   0.000   0.000   0.000   0.000   0.000
  0.000   0.000   0.000   0.000   0.000   0.000   0.000   0.000   0.000   0.000   0.000   0.000   0.000   0.000   0.000   0.000
  0.000   0.000   0.000   0.000   0.000   0.000   0.000   0.000   0.000   0.000   0.000   0.000   0.000   0.000   0.000   0.000
  0.000   0.000   0.000   0.000   0.000   0.000   0.000   0.000   0.000   0.000   0.000   0.000   0.000   0.000   0.000   0.000
  0.000   0.000   0.000   0.000   0.000   0.000   0.000   0.000   0.000   0.000   0.000   0.000   0.000   0.000   0.000   0.000
  0.000   0.000   0.000   0.000   0.000   0.000   0.000   0.000   0.000   0.000   0.000   0.000   0.000   0.000   0.000   0.000
  0.000   0.000   0.000   0.000   0.000   0.000   0.000   0.000   0.000   0.000   0.000   0.000   0.000   0.000   0.000   0.000
  0.000   0.000   0.000   0.000   0.000   0.000   0.000   0.000   0.000   0.000   0.000   0.000   0.000   0.000   0.000   0.000
  0.000   0.000   0.000   0.000   0.000   0.000   0.000   0.000   0.000   0.000   0.000   0.000   0.000   0.000   0.000   0.000
  0.000   0.000   0.000   0.000   0.000   0.000   0.000   0.000   0.000   0.000   0.000   0.000   0.000   0.000   0.000   0.000
  0.000   0.000   0.000   0.000   0.000   0.000   0.000   0.000   0.000   0.000   0.000   0.000   0.000   0.000   0.000   0.000
  0.000   0.000   0.000   0.000   0.000   0.000   0.000   0.000   0.000   0.000   0.000   0.000   0.000   0.000   0.000   0.000
  0.000   0.000   0.000   0.000   0.000   0.000   0.000   0.000   0.000   0.000   0.000   0.000   0.000   0.000   0.000   0.000
  0.000   0.000   0.000   0.000   0.000   0.000   0.000   0.000   0.000   0.000   0.000   0.000   0.000   0.000   0.000   0.000
  0.000   0.000   0.000   0.000   0.000   0.000   0.000   0.000   0.000   0.000   0.000   0.000   0.000   0.000   0.000   0.000
  0.000   0.000   0.000   0.000   0.000   0.000   0.000   0.000   0.000   0.000   0.000   0.000   0.000   0.000   0.000   0.000
  0.000   0.000   0.000   0.000   0.000   0.000   0.000   0.000   0.000   0.000   0.000   0.000   0.000   0.000   0.000   0.000
  0.000   0.000   0.000   0.000   0.000   0.000   0.000   0.000   0.000   0.000   0.000   0.000   0.000   0.000   0.000   0.000
  0.000   0.000   0.000   0.000   0.000   0.000   0.000   0.000   0.000   0.000   0.000   0.000   0.000   0.000   0.000   0.000
  0.000   0.000   0.000   0.000   0.000   0.000   0.000   0.000   0.000   0.000   0.000   0.000   0.000   0.000   0.000   0.000
  0.000   0.000   0.000   0.000   0.000   0.000   0.000   0.000   0.000   0.000   0.000   0.000   0.000   0.000   0.000   0.000
  0.000   0.000   0.000   0.000   0.000   0.000   0.000   0.000   0.000   0.000   0.000   0.000   0.000   0.000   0.000   0.000
  0.000   0.000   0.000   0.000   0.000   0.000   0.000   0.000   0.000   0.000   0.000   0.000   0.000   0.000   0.000   0.000
  0.000   0.000   0.000   0.000   0.000   0.000   0.000   0.000   0.000   0.000   0.000   0.000   0.000   0.000   0.000   0.000
  0.000   0.000   0.000   0.000   0.000   0.000   0.000   0.000   0.000   0.000   0.000   0.000   0.000   0.000   0.000   0.000
  0.000   0.000   0.000   0.000   0.000   0.000   0.000   0.000   0.000   0.000   0.000   0.000   0.000   0.000   0.000   0.000


--------------------------------------- Iteration      1(   2)  ---------------------------------------


     EDDAV:  cpu time      0.1680: real time      0.1686
       DOS:  cpu time      0.0004: real time      0.0004
    --------------------------------------------
      LOOP:  cpu time      0.1684: real time      0.1689

 eigenvalue-minimisations  :   784
 total energy-change (2. order) :-0.2533813E+02  (-0.2449231E+02)
 number of electron      10.0000000 magnetization 
 augmentation part       10.0000000 magnetization 

 Free energy of the ion-electron system (eV)
  ---------------------------------------------------
  alpha Z        PSCENC =         2.97593478
  Ewald energy   TEWEN  =       213.91894841
  -Hartree energ DENC   =      -467.82089709
  -exchange      EXHF   =         0.00000000
  -V(xc)+E(xc)   XCENC  =       -92.70009852
  PAW double counting   =       327.35893868     -219.44694627
  entropy T*S    EENTRO =        -0.00000000
  eigenvalues    EBANDS =       -71.98474289
  atomic energy  EATOM  =       299.89217194
  Solvation  Ediel_sol  =         0.00000000
  ---------------------------------------------------
  free energy    TOTEN  =        -7.80669095 eV

  energy without entropy =       -7.80669095  energy(sigma->0) =       -7.80669095


--------------------------------------------------------------------------------------------------------




 average (electrostatic) potential at core
  the test charge radii are     1.1712
  (the norm of the test charge is              1.0000)
       1 -81.4303       2 -81.4303
 
 
 
 E-fermi :  -2.6779     XC(G=0):  -3.4380     alpha+bet : -2.6626

 Fermi energy:        -2.6778786235

 k-point     1 :       0.0000    0.0000    0.0000
  band No.  band energies     occupation 
      1     -14.0748      2.00000
      2      -9.0452      2.00000
      3      -3.2570      2.00000
      4      -2.7385      2.00000
      5      -2.7209      2.00000
      6      -1.1474      0.00000
      7       0.1480      0.00000
      8       0.2229      0.00000
      9       2.0298      0.00000
     10       2.1968      0.00000
     11       3.6249      0.00000
     12       4.4895      0.00000
     13       4.5511      0.00000
     14       5.6570      0.00000
     15       6.3652      0.00000
     16       6.5569      0.00000

 k-point     2 :       0.0909    0.0000    0.0000
  band No.  band energies     occupation 
      1     -13.9786      2.00000
      2      -9.0339      2.00000
      3      -3.5399      2.00000
      4      -3.2468      2.00000
      5      -2.9466      2.00000
      6      -0.5871      0.00000
      7       0.1462      0.00000
      8       0.3767      0.00000
      9       2.1508      0.00000
     10       2.2878      0.00000
     11       3.6935      0.00000
     12       4.5727      0.00000
     13       4.5831      0.00000
     14       5.3298      0.00000
     15       5.9164      0.00000
     16       6.1775      0.00000

 k-point     3 :       0.1818    0.0000    0.0000
  band No.  band energies     occupation 
      1     -13.7251      2.00000
      2      -9.0684      2.00000
      3      -4.6704      2.00000
      4      -3.3534      2.00000
      5      -3.1912      2.00000
      6      -0.9258      0.00000
      7       0.7461      0.00000
      8       0.7912      0.00000
      9       2.3838      0.00000
     10       2.5904      0.00000
     11       3.6286      0.00000
     12       4.3580      0.00000
     13       4.9135      0.00000
     14       5.4737      0.00000
     15       5.7265      0.00000
     16       6.7604      0.00000

 k-point     4 :       0.2727    0.0000    0.0000
  band No.  band energies     occupation 
      1     -13.3145      2.00000
      2      -9.3487      2.00000
      3      -5.5182      2.00000
      4      -3.8217      2.00000
      5      -3.3182      2.00000
      6      -1.4095      0.00000
      7       0.6803      0.00000
      8       0.8392      0.00000
      9       2.6776      0.00000
     10       2.9414      0.00000
     11       3.7118      0.00000
     12       4.7513      0.00000
     13       5.0863      0.00000
     14       5.4182      0.00000
     15       6.1277      0.00000
     16       6.2467      0.00000

 k-point     5 :       0.3636    0.0000    0.0000
  band No.  band energies     occupation 
      1     -12.7477      2.00000
      2      -9.8551      2.00000
      3      -5.7672      2.00000
      4      -4.0880      2.00000
      5      -3.6911      2.00000
      6      -1.3198      0.00000
      7       0.2931      0.00000
      8       1.0698      0.00000
      9       2.8734      0.00000
     10       3.3625      0.00000
     11       4.0180      0.00000
     12       5.1277      0.00000
     13       5.7830      0.00000
     14       5.9289      0.00000
     15       6.5824      0.00000
     16       6.9368      0.00000

 k-point     6 :       0.4545    0.0000    0.0000
  band No.  band energies     occupation 
      1     -12.2424      2.00000
      2     -10.4183      2.00000
      3      -5.6958      2.00000
      4      -4.2418      2.00000
      5      -4.0770      2.00000
      6      -1.0900      0.00000
      7      -0.1047      0.00000
      8       0.9603      0.00000
      9       2.6228      0.00000
     10       4.1707      0.00000
     11       4.5840      0.00000
     12       5.0762      0.00000
     13       5.4673      0.00000
     14       6.0025      0.00000
     15       6.5697      0.00000
     16       6.7660      0.00000

 k-point     7 :       0.0909    0.0909    0.0000
  band No.  band energies     occupation 
      1     -13.7920      2.00000
      2      -9.0662      2.00000
      3      -4.3735      2.00000
      4      -3.2945      2.00000
      5      -3.1724      2.00000
      6      -0.2183      0.00000
      7      -0.0550      0.00000
      8       1.0678      0.00000
      9       2.3822      0.00000
     10       2.4501      0.00000
     11       3.5745      0.00000
     12       4.4659      0.00000
     13       4.7832      0.00000
     14       5.2846      0.00000
     15       5.9670      0.00000
     16       6.3965      0.00000

 k-point     8 :       0.1818    0.0909    0.0000
  band No.  band energies     occupation 
      1     -13.4604      2.00000
      2      -9.2111      2.00000
      3      -5.1906      2.00000
      4      -3.8415      2.00000
      5      -3.1681      2.00000
      6      -0.8060      0.00000
      7       0.4150      0.00000
      8       1.1498      0.00000
      9       2.5950      0.00000
     10       2.8034      0.00000
     11       3.5363      0.00000
     12       4.6284      0.00000
     13       5.0053      0.00000
     14       5.2712      0.00000
     15       6.6214      0.00000
     16       6.8218      0.00000

 k-point     9 :       0.2727    0.0909    0.0000
  band No.  band energies     occupation 
      1     -12.9824      2.00000
      2      -9.6189      2.00000
      3      -5.6232      2.00000
      4      -4.4470      2.00000
      5      -3.3717      2.00000
      6      -0.9426      0.00000
      7       0.6225      0.00000
      8       0.7730      0.00000
      9       2.9871      0.00000
     10       3.2171      0.00000
     11       3.8380      0.00000
     12       5.1129      0.00000
     13       5.1432      0.00000
     14       5.7176      0.00000
     15       6.7041      0.00000
     16       6.7752      0.00000

 k-point    10 :       0.3636    0.0909    0.0000
  band No.  band energies     occupation 
      1     -12.3826      2.00000
      2     -10.2038      2.00000
      3      -5.6987      2.00000
      4      -4.5851      2.00000
      5      -3.8437      2.00000
      6      -0.8240      0.00000
      7       0.1283      0.00000
      8       0.7464      0.00000
      9       2.8475      0.00000
     10       3.8485      0.00000
     11       4.3962      0.00000
     12       5.3237      0.00000
     13       5.7623      0.00000
     14       6.0355      0.00000
     15       6.3907      0.00000
     16       6.7621      0.00000

 k-point    11 :       0.4545    0.0909    0.0000
  band No.  band energies     occupation 
      1     -12.0914      2.00000
      2     -10.5713      2.00000
      3      -5.6895      2.00000
      4      -4.5868      2.00000
      5      -4.1480      2.00000
      6      -0.5259      0.00000
      7      -0.2605      0.00000
      8       0.8125      0.00000
      9       2.6450      0.00000
     10       4.6954      0.00000
     11       4.7463      0.00000
     12       5.0639      0.00000
     13       5.3888      0.00000
     14       5.8520      0.00000
     15       6.4590      0.00000
     16       7.3619      0.00000

 k-point    12 :       0.1818    0.1818    0.0000
  band No.  band energies     occupation 
      1     -13.0479      2.00000
      2      -9.5227      2.00000
      3      -5.4285      2.00000
      4      -4.8130      2.00000
      5      -3.2448      2.00000
      6      -0.3261      0.00000
      7       0.1340      0.00000
      8       1.1619      0.00000
      9       2.8647      0.00000
     10       3.1069      0.00000
     11       3.6561      0.00000
     12       4.7165      0.00000
     13       5.0369      0.00000
     14       5.6663      0.00000
     15       6.4804      0.00000
     16       7.4336      0.00000

 k-point    13 :       0.2727    0.1818    0.0000
  band No.  band energies     occupation 
      1     -12.5076      2.00000
      2     -10.0221      2.00000
      3      -5.5796      2.00000
      4      -5.1505      2.00000
      5      -3.4802      2.00000
      6      -0.4216      0.00000
      7       0.0606      0.00000
      8       1.0951      0.00000
      9       3.2290      0.00000
     10       3.7308      0.00000
     11       4.2180      0.00000
     12       4.5729      0.00000
     13       5.3246      0.00000
     14       6.1795      0.00000
     15       6.3124      0.00000
     16       6.9401      0.00000

 k-point    14 :       0.3636    0.1818    0.0000
  band No.  band energies     occupation 
      1     -11.9863      2.00000
      2     -10.5809      2.00000
      3      -5.8447      2.00000
      4      -4.9162      2.00000
      5      -4.0427      2.00000
      6      -0.6528      0.00000
      7       0.3585      0.00000
      8       0.8104      0.00000
      9       3.0563      0.00000
     10       4.5058      0.00000
     11       4.8322      0.00000
     12       5.1533      0.00000
     13       5.6047      0.00000
     14       5.8448      0.00000
     15       6.3801      0.00000
     16       7.1469      0.00000

 k-point    15 :       0.2727    0.2727    0.0000
  band No.  band energies     occupation 
      1     -11.9801      2.00000
      2     -10.5861      2.00000
      3      -5.9911      2.00000
      4      -5.0547      2.00000
      5      -4.0057      2.00000
      6      -0.8749      0.00000
      7       0.3381      0.00000
      8       1.1755      0.00000
      9       3.8502      0.00000
     10       4.1581      0.00000
     11       4.3887      0.00000
     12       4.5520      0.00000
     13       5.2453      0.00000
     14       6.4330      0.00000
     15       6.5406      0.00000
     16       6.9796      0.00000

 k-point    16 :       0.3636    0.2727    0.0000
  band No.  band energies     occupation 
      1     -11.5406      2.00000
      2     -10.9745      2.00000
      3      -6.1786      2.00000
      4      -4.7126      2.00000
      5      -4.2942      2.00000
      6      -1.0206      0.00000
      7       0.8223      0.00000
      8       1.0290      0.00000
      9       4.2132      0.00000
     10       4.2793      0.00000
     11       5.3248      0.00000
     12       5.4684      0.00000
     13       5.5651      0.00000
     14       6.1374      0.00000
     15       6.2520      0.00000
     16       6.5199      0.00000


--------------------------------------------------------------------------------------------------------


 soft charge-density along one line, spin component           1
         0         1         2         3         4         5         6         7         8         9
 total charge-density along one line
 
 pseudopotential strength for first ion, spin component:           1
 34.107 -21.135  -0.000   0.025   0.000   0.000  -0.039  -0.000
-21.135  31.182   0.000  -0.008  -0.000  -0.000   0.007   0.000
 -0.000   0.000   7.218   0.000   0.000 -12.170  -0.000  -0.000
  0.025  -0.008   0.000   7.217  -0.000  -0.000 -12.169   0.000
  0.000  -0.000   0.000  -0.000   7.218  -0.000   0.000 -12.170
  0.000  -0.000 -12.170  -0.000  -0.000  31.637   0.000   0.000
 -0.039   0.007  -0.000 -12.169   0.000   0.000  31.635  -0.000
 -0.000   0.000  -0.000   0.000 -12.170   0.000  -0.000  31.637
  0.000  -0.000  -0.000  -0.000   0.003   0.000   0.000  -0.003
  0.000  -0.000   0.012  -0.000  -0.000  -0.017   0.000   0.000
 -0.001   0.001  -0.000   0.009   0.000   0.000  -0.014  -0.000
 -0.000   0.000  -0.000   0.000   0.012   0.000  -0.000  -0.017
 -0.000   0.000   0.003   0.000   0.000  -0.003  -0.000  -0.000
 -0.000   0.000   0.000   0.000  -0.004  -0.000  -0.000   0.005
 -0.000   0.000  -0.020   0.000   0.000   0.031  -0.000  -0.000
  0.002  -0.001   0.000  -0.017  -0.000  -0.000   0.027   0.000
  0.000  -0.000   0.000  -0.000  -0.020  -0.000   0.000   0.031
  0.000  -0.000  -0.004  -0.000  -0.000   0.005   0.000   0.000
  0.001   0.003  -0.000   0.000   0.000   0.000   0.000  -0.000
 -0.000  -0.000  -0.000   0.000   0.000  -0.000  -0.000   0.000
 -0.000  -0.000  -0.000   0.000  -0.000   0.000   0.000  -0.000
 -0.001  -0.002  -0.000  -0.000   0.000   0.000  -0.000  -0.000
  0.000   0.000  -0.000  -0.000  -0.000  -0.000  -0.000   0.000
  0.000   0.000   0.000  -0.000  -0.000   0.000   0.000  -0.000
  0.000   0.000  -0.000   0.000  -0.000  -0.000   0.000  -0.000
 -0.007  -0.002   0.000  -0.002  -0.000  -0.000   0.001   0.000
  0.000   0.000   0.000  -0.000  -0.002  -0.000   0.000   0.001
  0.000   0.000   0.000  -0.000   0.000  -0.000   0.000  -0.000
  0.006   0.001   0.000   0.002  -0.000  -0.000  -0.002   0.000
 -0.000  -0.000   0.000   0.000   0.000  -0.000  -0.000  -0.000
 -0.000  -0.000  -0.002   0.000   0.000   0.001  -0.000  -0.000
 -0.000  -0.000   0.000  -0.000   0.000  -0.000   0.000  -0.000
 total augmentation occupancy for first ion, spin component:           1
  2.000   0.000   0.000   0.000   0.000   0.000   0.000   0.000   0.000   0.000   0.000   0.000   0.000   0.000   0.000   0.000
  0.000   0.000   0.000   0.000   0.000   0.000   0.000   0.000   0.000   0.000   0.000   0.000   0.000   0.000   0.000   0.000
  0.000   0.000   1.000   0.000   0.000   0.000   0.000   0.000   0.000   0.000   0.000   0.000   0.000   0.000   0.000   0.000
  0.000   0.000   0.000   1.000   0.000   0.000   0.000   0.000   0.000   0.000   0.000   0.000   0.000   0.000   0.000   0.000
  0.000   0.000   0.000   0.000   1.000   0.000   0.000   0.000   0.000   0.000   0.000   0.000   0.000   0.000   0.000   0.000
  0.000   0.000   0.000   0.000   0.000   0.000   0.000   0.000   0.000   0.000   0.000   0.000   0.000   0.000   0.000   0.000
  0.000   0.000   0.000   0.000   0.000   0.000   0.000   0.000   0.000   0.000   0.000   0.000   0.000   0.000   0.000   0.000
  0.000   0.000   0.000   0.000   0.000   0.000   0.000   0.000   0.000   0.000   0.000   0.000   0.000   0.000   0.000   0.000
  0.000   0.000   0.000   0.000   0.000   0.000   0.000   0.000   0.000   0.000   0.000   0.000   0.000   0.000   0.000   0.000
  0.000   0.000   0.000   0.000   0.000   0.000   0.000   0.000   0.000   0.000   0.000   0.000   0.000   0.000   0.000   0.000
  0.000   0.000   0.000   0.000   0.000   0.000   0.000   0.000   0.000   0.000   0.000   0.000   0.000   0.000   0.000   0.000
  0.000   0.000   0.000   0.000   0.000   0.000   0.000   0.000   0.000   0.000   0.000   0.000   0.000   0.000   0.000   0.000
  0.000   0.000   0.000   0.000   0.000   0.000   0.000   0.000   0.000   0.000   0.000   0.000   0.000   0.000   0.000   0.000
  0.000   0.000   0.000   0.000   0.000   0.000   0.000   0.000   0.000   0.000   0.000   0.000   0.000   0.000   0.000   0.000
  0.000   0.000   0.000   0.000   0.000   0.000   0.000   0.000   0.000   0.000   0.000   0.000   0.000   0.000   0.000   0.000
  0.000   0.000   0.000   0.000   0.000   0.000   0.000   0.000   0.000   0.000   0.000   0.000   0.000   0.000   0.000   0.000
  0.000   0.000   0.000   0.000   0.000   0.000   0.000   0.000   0.000   0.000   0.000   0.000   0.000   0.000   0.000   0.000
  0.000   0.000   0.000   0.000   0.000   0.000   0.000   0.000   0.000   0.000   0.000   0.000   0.000   0.000   0.000   0.000
  0.000   0.000   0.000   0.000   0.000   0.000   0.000   0.000   0.000   0.000   0.000   0.000   0.000   0.000   0.000   0.000
  0.000   0.000   0.000   0.000   0.000   0.000   0.000   0.000   0.000   0.000   0.000   0.000   0.000   0.000   0.000   0.000
  0.000   0.000   0.000   0.000   0.000   0.000   0.000   0.000   0.000   0.000   0.000   0.000   0.000   0.000   0.000   0.000
  0.000   0.000   0.000   0.000   0.000   0.000   0.000   0.000   0.000   0.000   0.000   0.000   0.000   0.000   0.000   0.000
  0.000   0.000   0.000   0.000   0.000   0.000   0.000   0.000   0.000   0.000   0.000   0.000   0.000   0.000   0.000   0.000
  0.000   0.000   0.000   0.000   0.000   0.000   0.000   0.000   0.000   0.000   0.000   0.000   0.000   0.000   0.000   0.000
  0.000   0.000   0.000   0.000   0.000   0.000   0.000   0.000   0.000   0.000   0.000   0.000   0.000   0.000   0.000   0.000
  0.000   0.000   0.000   0.000   0.000   0.000   0.000   0.000   0.000   0.000   0.000   0.000   0.000   0.000   0.000   0.000
  0.000   0.000   0.000   0.000   0.000   0.000   0.000   0.000   0.000   0.000   0.000   0.000   0.000   0.000   0.000   0.000
  0.000   0.000   0.000   0.000   0.000   0.000   0.000   0.000   0.000   0.000   0.000   0.000   0.000   0.000   0.000   0.000
  0.000   0.000   0.000   0.000   0.000   0.000   0.000   0.000   0.000   0.000   0.000   0.000   0.000   0.000   0.000   0.000
  0.000   0.000   0.000   0.000   0.000   0.000   0.000   0.000   0.000   0.000   0.000   0.000   0.000   0.000   0.000   0.000
  0.000   0.000   0.000   0.000   0.000   0.000   0.000   0.000   0.000   0.000   0.000   0.000   0.000   0.000   0.000   0.000
  0.000   0.000   0.000   0.000   0.000   0.000   0.000   0.000   0.000   0.000   0.000   0.000   0.000   0.000   0.000   0.000


--------------------------------------- Iteration      1(   3)  ---------------------------------------


     EDDAV:  cpu time      0.1257: real time      0.1258
       DOS:  cpu time      0.0004: real time      0.0004
    --------------------------------------------
      LOOP:  cpu time      0.1260: real time      0.1262

 eigenvalue-minimisations  :   640
 total energy-change (2. order) :-0.3572110E+00  (-0.3572110E+00)
 number of electron      10.0000000 magnetization 
 augmentation part       10.0000000 magnetization 

 Free energy of the ion-electron system (eV)
  ---------------------------------------------------
  alpha Z        PSCENC =         2.97593478
  Ewald energy   TEWEN  =       213.91894841
  -Hartree energ DENC   =      -467.82089709
  -exchange      EXHF   =         0.00000000
  -V(xc)+E(xc)   XCENC  =       -92.70009852
  PAW double counting   =       327.35893868     -219.44694627
  entropy T*S    EENTRO =        -0.00000000
  eigenvalues    EBANDS =       -72.34195390
  atomic energy  EATOM  =       299.89217194
  Solvation  Ediel_sol  =         0.00000000
  ---------------------------------------------------
  free energy    TOTEN  =        -8.16390197 eV

  energy without entropy =       -8.16390197  energy(sigma->0) =       -8.16390197


--------------------------------------------------------------------------------------------------------




 average (electrostatic) potential at core
  the test charge radii are     1.1712
  (the norm of the test charge is              1.0000)
       1 -81.4303       2 -81.4303
 
 
 
 E-fermi :  -2.7542     XC(G=0):  -3.4380     alpha+bet : -2.6626

 Fermi energy:        -2.7541991809

 k-point     1 :       0.0000    0.0000    0.0000
  band No.  band energies     occupation 
      1     -14.0794      2.00000
      2      -9.0552      2.00000
      3      -3.2977      2.00000
      4      -2.7959      2.00000
      5      -2.7959      2.00000
      6      -1.1997      0.00000
      7       0.0550      0.00000
      8       0.0550      0.00000
      9       2.0193      0.00000
     10       2.1821      0.00000
     11       3.5960      0.00000
     12       4.4647      0.00000
     13       4.4761      0.00000
     14       5.4692      0.00000
     15       5.5334      0.00000
     16       6.2590      0.00000

 k-point     2 :       0.0909    0.0000    0.0000
  band No.  band energies     occupation 
      1     -13.9917      2.00000
      2      -9.0558      2.00000
      3      -3.6100      2.00000
      4      -3.2637      2.00000
      5      -2.9904      2.00000
      6      -0.6628      0.00000
      7      -0.0165      0.00000
      8       0.2447      0.00000
      9       2.1306      0.00000
     10       2.2788      0.00000
     11       3.6714      0.00000
     12       4.4641      0.00000
     13       4.5606      0.00000
     14       5.2470      0.00000
     15       5.4164      0.00000
     16       5.8597      0.00000

 k-point     3 :       0.1818    0.0000    0.0000
  band No.  band energies     occupation 
[...]
     13       0.3671      0.00000
     14      -0.8696      0.00000
     15       0.3710      0.00000
     16      -0.8112      0.00000

 k-point   8 :       0.1818    0.0909    0.0000
  band No.  band energies     occupation 
      1      -3.3673      0.00000
      2       0.4555      0.00000
      3      -2.9029      0.00000
      4      -3.2408      0.00000
      5       0.8458      0.00000
      6      -0.3541      0.00000
      7      -0.2435      0.00000
      8       0.3878      0.00000
      9      -0.1280      0.00000
     10       0.0291      0.00000
     11      -0.9754      0.00000
     12       0.1626      0.00000
     13       0.3120      0.00000
     14       0.1789      0.00000
     15      -1.6718      0.00000
     16      -0.1840      0.00000

 k-point   9 :       0.2727    0.0909    0.0000
  band No.  band energies     occupation 
      1      -3.2497      0.00000
      2      -0.6477      0.00000
      3      -1.9502      0.00000
      4      -3.1831      0.00000
      5       0.3379      0.00000
      6       0.0379      0.00000
      7       1.0110      0.00000
      8      -0.1466      0.00000
      9       0.3379      0.00000
     10       0.2597      0.00000
     11       0.4074      0.00000
     12       0.7185      0.00000
     13      -1.8862      0.00000
     14       0.2164      0.00000
     15      -0.0806      0.00000
     16       0.8141      0.00000

 k-point  10 :       0.3636    0.0909    0.0000
  band No.  band energies     occupation 
      1      -3.0827      0.00000
      2      -1.6585      0.00000
      3      -1.2177      0.00000
      4      -2.9971      0.00000
      5      -0.0235      0.00000
      6      -0.0192      0.00000
      7       0.3885      0.00000
      8       1.2714      0.00000
      9       0.5319      0.00000
     10       0.5440      0.00000
     11       0.5712      0.00000
     12      -0.2393      0.00000
     13       0.8884      0.00000
     14       0.2186      0.00000
     15       0.4402      0.00000
     16       0.1032      0.00000

 k-point  11 :       0.4545    0.0909    0.0000
  band No.  band energies     occupation 
      1      -2.9595      0.00000
      2      -2.0718      0.00000
      3      -1.0831      0.00000
      4      -3.0824      0.00000
      5       0.1507      0.00000
      6      -1.5365      0.00000
      7       1.8522      0.00000
      8       1.6548      0.00000
      9       0.3751      0.00000
     10       0.3836      0.00000
     11       0.6756      0.00000
     12       0.5090      0.00000
     13       0.7337      0.00000
     14       0.0703      0.00000
     15       0.7601      0.00000
     16       0.6474      0.00000

 k-point  12 :       0.1818    0.1818    0.0000
  band No.  band energies     occupation 
      1      -3.2690      0.00000
      2      -0.4247      0.00000
      3      -2.1726      0.00000
      4      -3.1664      0.00000
      5       0.5003      0.00000
      6       0.8220      0.00000
      7       0.5203      0.00000
      8      -0.0616      0.00000
      9      -1.0614      0.00000
     10       0.0664      0.00000
     11      -0.6276      0.00000
     12       0.3035      0.00000
     13       0.4292      0.00000
     14       0.2675      0.00000
     15       0.6555      0.00000
     16      -0.6481      0.00000

 k-point  13 :       0.2727    0.1818    0.0000
  band No.  band energies     occupation 
      1      -3.1154      0.00000
      2      -1.3998      0.00000
      3      -2.1367      0.00000
      4      -2.3537      0.00000
      5       0.1259      0.00000
      6       1.1602      0.00000
      7       1.2403      0.00000
      8       0.0636      0.00000
      9      -0.8633      0.00000
     10       0.4296      0.00000
     11       0.3558      0.00000
     12      -1.8783      0.00000
     13       0.6218      0.00000
     14       0.5418      0.00000
     15       0.3861      0.00000
     16       0.6136      0.00000

 k-point  14 :       0.3636    0.1818    0.0000
  band No.  band energies     occupation 
      1      -2.9211      0.00000
      2      -2.0629      0.00000
      3      -2.4875      0.00000
      4      -1.5482      0.00000
      5      -0.0282      0.00000
      6       1.3935      0.00000
      7       0.6967      0.00000
      8       1.0889      0.00000
      9      -0.6224      0.00000
     10       0.5498      0.00000
     11       0.6303      0.00000
     12      -0.0248      0.00000
     13       0.4263      0.00000
     14      -0.4038      0.00000
     15      -0.3415      0.00000
     16      -0.0742      0.00000

 k-point  15 :       0.2727    0.2727    0.0000
  band No.  band energies     occupation 
      1      -2.9116      0.00000
      2      -2.0255      0.00000
      3      -3.2262      0.00000
      4      -0.8130      0.00000
      5      -0.0938      0.00000
      6       1.2853      0.00000
      7       1.8756      0.00000
      8       1.3175      0.00000
      9      -1.9940      0.00000
     10      -0.1431      0.00000
     11       0.0691      0.00000
     12      -1.4399      0.00000
     13       0.4626      0.00000
     14       0.5390      0.00000
     15       0.2944      0.00000
     16       0.5706      0.00000

 k-point  16 :       0.3636    0.2727    0.0000
  band No.  band energies     occupation 
      1      -2.7136      0.00000
      2      -2.3716      0.00000
      3      -3.2420      0.00000
      4      -0.6137      0.00000
      5      -0.2049      0.00000
      6       1.3226      0.00000
      7       2.1904      0.00000
      8       1.6137      0.00000
      9      -1.6581      0.00000
     10      -0.0819      0.00000
     11      -0.7610      0.00000
     12       0.2976      0.00000
     13       0.1188      0.00000
     14      -1.0638      0.00000
     15      -0.1792      0.00000
     16      -0.8703      0.00000


------------------------ aborting loop because EDIFF is reached ----------------------------------------


    FORLOC:  cpu time      0.0005: real time      0.0005
    FORNL :  cpu time      0.0662: real time      0.0664
    STRESS:  cpu time      0.3745: real time      0.3753
    FORCOR:  cpu time      0.0086: real time      0.0086
    OFIELD:  cpu time      0.0001: real time      0.0001
    FORLOC:  cpu time      0.0004: real time      0.0004
    FORNL :  cpu time      0.0561: real time      0.0562
    STRESS:  cpu time      0.3623: real time      0.3630
    FORCOR:  cpu time      0.0098: real time      0.0098
    OFIELD:  cpu time      0.0001: real time      0.0001
    FORLOC:  cpu time      0.0004: real time      0.0004
    FORNL :  cpu time      0.0625: real time      0.0625
    STRESS:  cpu time      0.3111: real time      0.3115
    FORCOR:  cpu time      0.0088: real time      0.0088
    OFIELD:  cpu time      0.0001: real time      0.0001
    FORLOC:  cpu time      0.0004: real time      0.0004
    FORNL :  cpu time      0.0579: real time      0.0580
    STRESS:  cpu time      0.3058: real time      0.3062
    FORCOR:  cpu time      0.0082: real time      0.0082
    OFIELD:  cpu time      0.0001: real time      0.0001

 INTERNAL STRAIN TENSOR  FOR ION    1  DIRECTION 3   (eV/Angst):
 -----------------------------------------------------------------------------
     6.69446 -0.00000  0.00000
     0.00000  6.69446 -0.00000
     0.00000  0.00000 14.93574


 POSITION                   FORCE-CONSTANT FOR ION    1 DIRECTION 3 (eV/Angst/Angst)
 -----------------------------------------------------------------------------------
      2.05668      1.18743      7.17801         0.000000      0.000000     -9.076069
      0.00000      2.37485      8.82199        -0.000000     -0.000000      9.076069
 -----------------------------------------------------------------------------------
    total drift:                                0.000000      0.000000      0.000000




--------------------------------------------------------------------------------------------------------


  LATTYP: Found a hexagonal cell.
 ALAT       =     4.1133665497
 C/A-ratio  =     3.8897578922
  
  Lattice vectors:
  
 A1 = (   4.1133665497,   0.0000000000,   0.0000000000)
 A2 = (  -2.0566832748,   3.5622799271,   0.0000000000)
 A3 = (   0.0000000000,   0.0000000000,  16.0000000000)


Analysis of symmetry for initial positions (statically):
=====================================================================
 Subroutine PRICEL returns:
 Original cell was already a primitive cell.
 

 Routine SETGRP: Setting up the symmetry group for a 
 hexagonal supercell.


 Subroutine GETGRP returns: Found 12 space group operations
 (whereof 12 operations were pure point group operations)
 out of a pool of 24 trial point group operations.


The static configuration has the point symmetry D_3d.


Analysis of symmetry for dynamics (positions and initial velocities):
=====================================================================
 Subroutine PRICEL returns:
 Original cell was already a primitive cell.
 

 Routine SETGRP: Setting up the symmetry group for a 
 hexagonal supercell.


 Subroutine GETGRP returns: Found 12 space group operations
 (whereof 12 operations were pure point group operations)
 out of a pool of 24 trial point group operations.


The dynamic configuration has the point symmetry D_3d.


 Subroutine INISYM returns: Found 12 space group operations
 (whereof 12 operations are pure point group operations),
 and found     1 'primitive' translations

 
 KPOINTS: kpoints                                 

Automatic generation of k-mesh.
 Grid dimensions read from file:
 generate k-points for:   11   11    1

 Generating k-lattice:

  Cartesian coordinates                     Fractional coordinates (reciprocal lattice)
     0.022100897  0.012759959  0.000000000     0.090909091  0.000000000  0.000000000
     0.000000000  0.025519918  0.000000000     0.000000000  0.090909091  0.000000000
     0.000000000  0.000000000  0.062500000     0.000000000  0.000000000  1.000000000

  Length of vectors
     0.025519918  0.025519918  0.062500000

  Shift w.r.t. Gamma in fractional coordinates (k-lattice)
     0.000000000  0.000000000  0.000000000

 
 Subroutine IBZKPT returns following result:
 ===========================================
 
 Found     16 irreducible k-points:
 
 Following reciprocal coordinates:
            Coordinates               Weight
  0.000000  0.000000  0.000000      1.000000
  0.090909  0.000000  0.000000      6.000000
  0.181818  0.000000  0.000000      6.000000
  0.272727  0.000000  0.000000      6.000000
  0.363636  0.000000  0.000000      6.000000
  0.454545  0.000000  0.000000      6.000000
  0.090909  0.090909  0.000000      6.000000
  0.181818  0.090909  0.000000     12.000000
  0.272727  0.090909  0.000000     12.000000
  0.363636  0.090909  0.000000     12.000000
  0.454545  0.090909  0.000000      6.000000
  0.181818  0.181818  0.000000      6.000000
  0.272727  0.181818  0.000000     12.000000
  0.363636  0.181818  0.000000     12.000000
  0.272727  0.272727  0.000000      6.000000
  0.363636  0.272727  0.000000      6.000000
 
 Following cartesian coordinates:
            Coordinates               Weight
  0.000000  0.000000  0.000000      1.000000
  0.022101  0.012760  0.000000      6.000000
  0.044202  0.025520  0.000000      6.000000
  0.066303  0.038280  0.000000      6.000000
  0.088404  0.051040  0.000000      6.000000
  0.110504  0.063800  0.000000      6.000000
  0.022101  0.038280  0.000000      6.000000
  0.044202  0.051040  0.000000     12.000000
  0.066303  0.063800  0.000000     12.000000
  0.088404  0.076560  0.000000     12.000000
  0.110504  0.089320  0.000000      6.000000
  0.044202  0.076560  0.000000      6.000000
  0.066303  0.089320  0.000000     12.000000
  0.088404  0.102080  0.000000     12.000000
  0.066303  0.114840  0.000000      6.000000
  0.088404  0.127600  0.000000      6.000000
 


--------------------------------------------------------------------------------------------------------



 INTERNAL STRAIN TENSOR FOR ION    1 for displacements in x,y,z  (eV/Angst):
          X           Y           Z          XY          YZ          ZX
  --------------------------------------------------------------------------------
  x     0.00000     0.00000     0.00000     3.59517     0.00000     9.19297
  y     3.59517    -3.59517    -0.00000     0.00000     8.90786     0.00000
  z     6.69446     6.69446    14.93574     0.00000     0.00000     0.00000

 INTERNAL STRAIN TENSOR FOR ION    2 for displacements in x,y,z  (eV/Angst):
          X           Y           Z          XY          YZ          ZX
  --------------------------------------------------------------------------------
  x     0.00000     0.00000     0.00000    -3.59517     0.00000    -9.19297
  y    -3.59517     3.59517     0.00000     0.00000    -8.90786     0.00000
  z    -6.69446    -6.69446   -14.93574     0.00000     0.00000    -0.00000


--------------------------------------------------------------------------------------------------------


 
 SECOND DERIVATIVES (NOT SYMMETRIZED)
 ------------------------------------
               1X          1Y          1Z          2X          2Y          2Z 
  1X    -5.704564    0.000000    0.000000    5.704564    0.000000    0.000000
  1Y     0.000000   -5.704564   -0.000000    0.000000    5.704564    0.000000
  1Z    -0.000000    0.000000   -9.076069    0.000000   -0.000000    9.076069
  2X     5.704564    0.000000    0.000000   -5.704564    0.000000    0.000000
  2Y     0.000000    5.704564    0.000000    0.000000   -5.704564   -0.000000
  2Z     0.000000   -0.000000    9.076069   -0.000000    0.000000   -9.076069
 
 
 Eigenvectors and eigenvalues of the dynamical matrix
 ----------------------------------------------------
 
 
   1 f  =    6.036430 THz    37.928006 2PiTHz  201.353617 cm-1    24.964656 meV
             X         Y         Z           dx          dy          dz
      2.056683  1.187427  7.178006    -0.000000   -0.000000    0.707107  
      0.000000  2.374853  8.821994    -0.000000    0.000000   -0.707107  
 
   2 f  =    4.785667 THz    30.069232 2PiTHz  159.632664 cm-1    19.791919 meV
             X         Y         Z           dx          dy          dz
      2.056683  1.187427  7.178006    -0.017327   -0.706894   -0.000000  
      0.000000  2.374853  8.821994     0.017327    0.706894    0.000000  
 
   3 f  =    4.785667 THz    30.069232 2PiTHz  159.632664 cm-1    19.791919 meV
             X         Y         Z           dx          dy          dz
      2.056683  1.187427  7.178006    -0.706894    0.017327    0.000000  
      0.000000  2.374853  8.821994     0.706894   -0.017327   -0.000000  
 
   4 f  =    0.000000 THz     0.000000 2PiTHz    0.000000 cm-1     0.000000 meV
             X         Y         Z           dx          dy          dz
      2.056683  1.187427  7.178006    -0.687611   -0.164587   -0.010135  
      0.000000  2.374853  8.821994    -0.687611   -0.164587   -0.010135  
 
   5 f/i=    0.000000 THz     0.000000 2PiTHz    0.000002 cm-1     0.000000 meV
             X         Y         Z           dx          dy          dz
      2.056683  1.187427  7.178006     0.164859   -0.685182   -0.057851  
      0.000000  2.374853  8.821994     0.164859   -0.685182   -0.057851  
 
   6 f/i=    0.000000 THz     0.000001 2PiTHz    0.000004 cm-1     0.000000 meV
             X         Y         Z           dx          dy          dz
      2.056683  1.187427  7.178006    -0.003645    0.058619   -0.704663  
      0.000000  2.374853  8.821994    -0.003645    0.058619   -0.704663  
 
 Eigenvectors after division by SQRT(mass)
 
 Eigenvectors and eigenvalues of the dynamical matrix
 ----------------------------------------------------
 
 
   1 f  =    6.036430 THz    37.928006 2PiTHz  201.353617 cm-1    24.964656 meV
             X         Y         Z           dx          dy          dz
      2.056683  1.187427  7.178006    -0.000000   -0.000000    0.064084  
      0.000000  2.374853  8.821994    -0.000000    0.000000   -0.064084  
 
   2 f  =    4.785667 THz    30.069232 2PiTHz  159.632664 cm-1    19.791919 meV
             X         Y         Z           dx          dy          dz
      2.056683  1.187427  7.178006    -0.001570   -0.064065   -0.000000  
      0.000000  2.374853  8.821994     0.001570    0.064065    0.000000  
 
   3 f  =    4.785667 THz    30.069232 2PiTHz  159.632664 cm-1    19.791919 meV
             X         Y         Z           dx          dy          dz
      2.056683  1.187427  7.178006    -0.064065    0.001570    0.000000  
      0.000000  2.374853  8.821994     0.064065   -0.001570   -0.000000  
 
   4 f  =    0.000000 THz     0.000000 2PiTHz    0.000000 cm-1     0.000000 meV
             X         Y         Z           dx          dy          dz
      2.056683  1.187427  7.178006    -0.062317   -0.014916   -0.000919  
      0.000000  2.374853  8.821994    -0.062317   -0.014916   -0.000919  
 
   5 f/i=    0.000000 THz     0.000000 2PiTHz    0.000002 cm-1     0.000000 meV
             X         Y         Z           dx          dy          dz
      2.056683  1.187427  7.178006     0.014941   -0.062097   -0.005243  
      0.000000  2.374853  8.821994     0.014941   -0.062097   -0.005243  
 
   6 f/i=    0.000000 THz     0.000001 2PiTHz    0.000004 cm-1     0.000000 meV
             X         Y         Z           dx          dy          dz
      2.056683  1.187427  7.178006    -0.000330    0.005313   -0.063863  
      0.000000  2.374853  8.821994    -0.000330    0.005313   -0.063863  
 


--------------------------------------------------------------------------------------------------------



 ELASTIC MODULI CONTR FROM IONIC RELAXATION (kBar)
 Direction    XX          YY          ZZ          XY          YZ          ZX
 --------------------------------------------------------------------------------
 XX         -49.2281    -18.2602    -75.2852      0.0000    -38.3650     -0.0000
 YY         -18.2602    -49.2281    -75.2852      0.0000     38.3650     -0.0000
 ZZ         -75.2852    -75.2852   -167.9659      0.0000      0.0000     -0.0000
 XY           0.0000      0.0000      0.0000    -15.4839      0.0000    -39.5930
 YZ         -38.3650     38.3650      0.0000      0.0000    -95.0581      0.0000
 ZX          -0.0000     -0.0000     -0.0000    -39.5930      0.0000   -101.2406
 --------------------------------------------------------------------------------



--------------------------------------------------------------------------------------------------------


     LOOP+:  cpu time     45.8766: real time     47.1290
    4ORBIT:  cpu time      0.0000: real time      0.0000



 total charge

# of ion       s       p       d       f       tot
--------------------------------------------------
    1        1.581   1.846   0.079   0.012   3.518
    2        1.581   1.846   0.079   0.012   3.518
--------------------------------------------------
tot          3.162   3.692   0.158   0.025   7.036
 

 total amount of memory used by VASP MPI-rank0    41247. kBytes
=======================================================================

   base      :      30000. kBytes
   nonl-proj :       6010. kBytes
   fftplans  :       2535. kBytes
   grid      :       2215. kBytes
   one-center:         98. kBytes
   wavefun   :        389. kBytes
 
  
  
 General timing and accounting informations for this job:
 ========================================================
  
                  Total CPU time used (sec):       46.472
                            User time (sec):       46.204
                          System time (sec):        0.268
                         Elapsed time (sec):       48.721
  
                   Maximum memory used (kb):      174860.
                   Average memory used (kb):          N/A
  
                          Minor page faults:        48711
                          Major page faults:         2962
                 Voluntary context switches:          438
