PROCAR new format
# of k-points:   61         # of bands:   16         # of ions:    2

 k-point     1 :    0.00000000 0.00000000 0.00000000     weight = 0.00826446

band     1 # energy  -13.56455018 # occ.  2.00000000
 
ion      s      p      d      f    tot
    1  0.335  0.015  0.000  0.001  0.351
    2  0.335  0.015  0.000  0.001  0.351
tot    0.670  0.030  0.000  0.001  0.702
 
band     2 # energy   -8.59151808 # occ.  2.00000000
 
ion      s      p      d      f    tot
    1  0.356  0.031  0.001  0.000  0.388
    2  0.356  0.031  0.001  0.000  0.388
tot    0.711  0.062  0.002  0.001  0.776
 
band     3 # energy   -2.89098362 # occ.  2.00000000
 
ion      s      p      d      f    tot
    1  0.008  0.269  0.003  0.002  0.282
    2  0.008  0.269  0.003  0.002  0.282
tot    0.016  0.538  0.006  0.004  0.564
 
band     4 # energy   -2.31451211 # occ.  2.00000000
 
ion      s      p      d      f    tot
    1  0.000  0.382  0.024  0.005  0.411
    2  0.000  0.382  0.024  0.005  0.411
tot    0.000  0.765  0.048  0.009  0.823
 
band     5 # energy   -2.25186526 # occ.  1.99999999
 
ion      s      p      d      f    tot
    1  0.000  0.381  0.024  0.005  0.410
    2  0.000  0.381  0.024  0.005  0.410
tot    0.000  0.762  0.048  0.009  0.819
 
band     6 # energy   -0.71711480 # occ.  0.00000000
 
ion      s      p      d      f    tot
    1  0.146  0.163  0.018  0.007  0.334
    2  0.146  0.163  0.018  0.007  0.334
tot    0.291  0.327  0.036  0.015  0.668
 
band     7 # energy    0.47016570 # occ.  0.00000000
 
ion      s      p      d      f    tot
    1  0.000  0.341  0.029  0.005  0.376
    2  0.000  0.341  0.029  0.005  0.376
tot    0.000  0.681  0.059  0.011  0.751
 
band     8 # energy    0.54343412 # occ.  0.00000000
 
ion      s      p      d      f    tot
    1  0.000  0.340  0.030  0.006  0.375
    2  0.000  0.340  0.030  0.006  0.375
tot    0.000  0.680  0.060  0.011  0.750
 
band     9 # energy    2.08894342 # occ.  0.00000000
 
ion      s      p      d      f    tot
    1  0.000  0.015  0.027  0.001  0.043
    2  0.000  0.015  0.027  0.001  0.043
tot    0.000  0.030  0.054  0.002  0.086
 
band    10 # energy    2.16727200 # occ.  0.00000000
 
ion      s      p      d      f    tot
    1  0.007  0.024  0.000  0.000  0.032
    2  0.007  0.024  0.000  0.000  0.032
tot    0.014  0.049  0.000  0.000  0.064
 
band    11 # energy    3.62738349 # occ.  0.00000000
 
ion      s      p      d      f    tot
    1  0.025  0.036  0.000  0.000  0.061
    2  0.025  0.036  0.000  0.000  0.061
tot    0.050  0.073  0.000  0.000  0.122
 
band    12 # energy    4.52772991 # occ.  0.00000000
 
ion      s      p      d      f    tot
    1  0.003  0.000  0.041  0.001  0.045
    2  0.003  0.000  0.041  0.001  0.045
tot    0.005  0.000  0.083  0.001  0.089
 
band    13 # energy    4.84560509 # occ.  0.00000000
 
ion      s      p      d      f    tot
    1  0.066  0.001  0.024  0.024  0.115
    2  0.066  0.001  0.024  0.024  0.115
tot    0.132  0.002  0.048  0.049  0.230
 
band    14 # energy    5.86302165 # occ.  0.00000000
 
ion      s      p      d      f    tot
    1  0.000  0.040  0.180  0.006  0.226
    2  0.000  0.040  0.180  0.006  0.226
tot    0.000  0.080  0.360  0.012  0.452
 
band    15 # energy    5.90718370 # occ.  0.00000000
 
ion      s      p      d      f    tot
    1  0.000  0.040  0.180  0.006  0.226
    2  0.000  0.040  0.180  0.006  0.226
tot    0.000  0.079  0.361  0.012  0.452
 
band    16 # energy    6.49634824 # occ.  0.00000000
 
ion      s      p      d      f    tot
    1  0.018  0.039  0.005  0.024  0.086
    2  0.018  0.039  0.005  0.024  0.086
tot    0.036  0.079  0.010  0.048  0.172
 

 k-point     2 :    0.09090909 0.00000000 0.00000000     weight = 0.01652893

band     1 # energy  -13.47703040 # occ.  2.00000000
 
ion      s      p      d      f    tot
    1  0.335  0.016  0.000  0.001  0.353
    2  0.335  0.016  0.000  0.001  0.353
tot    0.671  0.032  0.001  0.001  0.705
 
band     2 # energy   -8.58805661 # occ.  2.00000000
 
ion      s      p      d      f    tot
    1  0.364  0.029  0.002  0.000  0.394
    2  0.364  0.029  0.002  0.000  0.394
tot    0.727  0.057  0.003  0.001  0.788
 
band     3 # energy   -3.08967707 # occ.  2.00000000
 
ion      s      p      d      f    tot
    1  0.021  0.318  0.023  0.004  0.366
    2  0.021  0.318  0.023  0.004  0.366
tot    0.043  0.636  0.046  0.007  0.733
 
band     4 # energy   -2.85271470 # occ.  2.00000000
 
ion      s      p      d      f    tot
    1  0.010  0.273  0.003  0.002  0.288
    2  0.010  0.273  0.003  0.002  0.288
tot    0.019  0.546  0.006  0.004  0.575
 
band     5 # energy   -2.50439211 # occ.  2.00000000
 
ion      s      p      d      f    tot
    1  0.000  0.373  0.024  0.004  0.401
    2  0.000  0.373  0.024  0.004  0.401
tot    0.000  0.747  0.048  0.009  0.803
 
band     6 # energy   -0.19615596 # occ.  0.00000000
 
ion      s      p      d      f    tot
    1  0.088  0.228  0.021  0.007  0.344
    2  0.088  0.228  0.021  0.007  0.344
tot    0.176  0.457  0.042  0.014  0.688
 
band     7 # energy    0.41059197 # occ.  0.00000000
 
ion      s      p      d      f    tot
    1  0.040  0.301  0.018  0.007  0.366
    2  0.040  0.301  0.018  0.007  0.366
tot    0.079  0.603  0.036  0.013  0.732
 
band     8 # energy    0.72433641 # occ.  0.00000000
 
ion      s      p      d      f    tot
    1  0.000  0.354  0.026  0.006  0.386
    2  0.000  0.354  0.026  0.006  0.386
tot    0.000  0.708  0.053  0.012  0.772
 
band     9 # energy    2.20683385 # occ.  0.00000000
 
ion      s      p      d      f    tot
    1  0.000  0.023  0.026  0.002  0.051
    2  0.000  0.023  0.026  0.002  0.051
tot    0.001  0.045  0.053  0.003  0.102
 
band    10 # energy    2.26880475 # occ.  0.00000000
 
ion      s      p      d      f    tot
    1  0.004  0.028  0.002  0.001  0.035
    2  0.004  0.028  0.002  0.001  0.035
tot    0.009  0.055  0.004  0.001  0.070
 
band    11 # energy    3.70753124 # occ.  0.00000000
 
ion      s      p      d      f    tot
    1  0.014  0.039  0.008  0.001  0.062
    2  0.014  0.039  0.008  0.001  0.062
tot    0.029  0.078  0.015  0.002  0.123
 
band    12 # energy    4.62338187 # occ.  0.00000000
 
ion      s      p      d      f    tot
    1  0.003  0.001  0.042  0.001  0.047
    2  0.003  0.001  0.042  0.001  0.047
tot    0.005  0.001  0.085  0.002  0.094
 
band    13 # energy    4.88926237 # occ.  0.00000000
 
ion      s      p      d      f    tot
    1  0.014  0.046  0.088  0.020  0.168
    2  0.014  0.046  0.088  0.020  0.168
tot    0.028  0.092  0.177  0.039  0.336
 
band    14 # energy    5.56486830 # occ.  0.00000000
 
ion      s      p      d      f    tot
    1  0.060  0.008  0.055  0.011  0.135
    2  0.060  0.008  0.055  0.011  0.135
tot    0.120  0.016  0.111  0.023  0.269
 
band    15 # energy    5.79008456 # occ.  0.00000000
 
ion      s      p      d      f    tot
    1  0.000  0.023  0.183  0.008  0.214
    2  0.000  0.023  0.183  0.008  0.214
tot    0.000  0.047  0.365  0.016  0.428
 
band    16 # energy    6.21011235 # occ.  0.00000000
 
ion      s      p      d      f    tot
    1  0.005  0.100  0.092  0.007  0.204
    2  0.005  0.100  0.092  0.007  0.204
tot    0.011  0.200  0.183  0.013  0.407
 

 k-point     3 :    0.00000000 0.09090909 0.00000000     weight = 0.01652893

band     1 # energy  -13.47669812 # occ.  2.00000000
 
ion      s      p      d      f    tot
    1  0.335  0.016  0.000  0.001  0.353
    2  0.335  0.016  0.000  0.001  0.353
tot    0.671  0.032  0.001  0.001  0.705
 
band     2 # energy   -8.58871800 # occ.  2.00000000
 
ion      s      p      d      f    tot
    1  0.364  0.029  0.002  0.000  0.394
    2  0.364  0.029  0.002  0.000  0.394
tot    0.727  0.057  0.003  0.001  0.788
 
band     3 # energy   -3.10953869 # occ.  2.00000000
 
ion      s      p      d      f    tot
    1  0.021  0.319  0.023  0.004  0.367
    2  0.021  0.319  0.023  0.004  0.367
tot    0.042  0.639  0.047  0.007  0.735
 
band     4 # energy   -2.85314947 # occ.  2.00000000
 
ion      s      p      d      f    tot
    1  0.010  0.273  0.003  0.002  0.288
    2  0.010  0.273  0.003  0.002  0.288
tot    0.019  0.546  0.006  0.004  0.576
 
band     5 # energy   -2.48125411 # occ.  2.00000000
 
ion      s      p      d      f    tot
    1  0.000  0.372  0.024  0.004  0.400
    2  0.000  0.372  0.024  0.004  0.400
tot    0.000  0.745  0.047  0.009  0.801
 
band     6 # energy   -0.19701526 # occ.  0.00000000
 
ion      s      p      d      f    tot
    1  0.089  0.229  0.020  0.007  0.345
    2  0.089  0.229  0.020  0.007  0.345
tot    0.177  0.458  0.041  0.014  0.690
 
band     7 # energy    0.43286817 # occ.  0.00000000
 
ion      s      p      d      f    tot
    1  0.039  0.300  0.019  0.007  0.364
    2  0.039  0.300  0.019  0.007  0.364
tot    0.079  0.599  0.037  0.013  0.729
 
band     8 # energy    0.70115089 # occ.  0.00000000
 
ion      s      p      d      f    tot
    1  0.000  0.354  0.026  0.006  0.386
    2  0.000  0.354  0.026  0.006  0.386
tot    0.000  0.708  0.052  0.012  0.772
 
band     9 # energy    2.20775314 # occ.  0.00000000
 
ion      s      p      d      f    tot
    1  0.000  0.023  0.026  0.002  0.051
    2  0.000  0.023  0.026  0.002  0.051
tot    0.001  0.046  0.053  0.003  0.103
 
band    10 # energy    2.26925705 # occ.  0.00000000
 
ion      s      p      d      f    tot
    1  0.004  0.028  0.002  0.001  0.035
    2  0.004  0.028  0.002  0.001  0.035
tot    0.009  0.056  0.004  0.001  0.070
 
band    11 # energy    3.70760417 # occ.  0.00000000
 
ion      s      p      d      f    tot
    1  0.014  0.039  0.008  0.001  0.062
    2  0.014  0.039  0.008  0.001  0.062
tot    0.028  0.078  0.016  0.002  0.124
 
band    12 # energy    4.62403147 # occ.  0.00000000
 
ion      s      p      d      f    tot
    1  0.003  0.001  0.042  0.001  0.047
    2  0.003  0.001  0.042  0.001  0.047
tot    0.005  0.001  0.085  0.002  0.093
 
band    13 # energy    4.87298578 # occ.  0.00000000
 
ion      s      p      d      f    tot
    1  0.014  0.046  0.089  0.019  0.168
    2  0.014  0.046  0.089  0.019  0.168
tot    0.027  0.093  0.178  0.039  0.337
 
band    14 # energy    5.56684763 # occ.  0.00000000
 
ion      s      p      d      f    tot
    1  0.060  0.008  0.055  0.011  0.134
    2  0.060  0.008  0.055  0.011  0.134
tot    0.120  0.016  0.110  0.023  0.269
 
band    15 # energy    5.80322982 # occ.  0.00000000
 
ion      s      p      d      f    tot
    1  0.000  0.023  0.183  0.008  0.214
    2  0.000  0.023  0.183  0.008  0.214
tot    0.000  0.047  0.365  0.016  0.428
 
band    16 # energy    6.21477659 # occ.  0.00000000
 
ion      s      p      d      f    tot
    1  0.005  0.101  0.092  0.007  0.204
    2  0.005  0.101  0.092  0.007  0.204
tot    0.010  0.202  0.183  0.013  0.409
 

 k-point     4 :   -0.09090909 0.09090909 0.00000000     weight = 0.01652893

band     1 # energy  -13.47634159 # occ.  2.00000000
 
ion      s      p      d      f    tot
    1  0.335  0.016  0.000  0.001  0.353
    2  0.335  0.016  0.000  0.001  0.353
tot    0.671  0.032  0.001  0.001  0.705
 
band     2 # energy   -8.58942680 # occ.  2.00000000
 
ion      s      p      d      f    tot
    1  0.364  0.029  0.002  0.000  0.394
    2  0.364  0.029  0.002  0.000  0.394
tot    0.728  0.057  0.003  0.001  0.789
 
band     3 # energy   -3.12973343 # occ.  2.00000000
 
ion      s      p      d      f    tot
    1  0.021  0.320  0.023  0.004  0.368
    2  0.021  0.320  0.023  0.004  0.368
tot    0.042  0.640  0.047  0.007  0.736
 
band     4 # energy   -2.85240618 # occ.  2.00000000
 
ion      s      p      d      f    tot
    1  0.009  0.273  0.003  0.002  0.288
    2  0.009  0.273  0.003  0.002  0.288
tot    0.019  0.546  0.006  0.004  0.575
 
band     5 # energy   -2.45898932 # occ.  2.00000000
 
ion      s      p      d      f    tot
    1  0.000  0.372  0.024  0.004  0.400
    2  0.000  0.372  0.024  0.004  0.400
tot    0.000  0.744  0.047  0.009  0.800
 
band     6 # energy   -0.19686112 # occ.  0.00000000
 
ion      s      p      d      f    tot
    1  0.089  0.230  0.020  0.007  0.346
    2  0.089  0.230  0.020  0.007  0.346
tot    0.179  0.459  0.039  0.014  0.691
 
band     7 # energy    0.46037252 # occ.  0.00000000
 
ion      s      p      d      f    tot
    1  0.039  0.298  0.019  0.007  0.363
    2  0.039  0.298  0.019  0.007  0.363
tot    0.078  0.595  0.039  0.013  0.725
 
band     8 # energy    0.67185804 # occ.  0.00000000
 
ion      s      p      d      f    tot
    1  0.000  0.355  0.026  0.006  0.387
    2  0.000  0.355  0.026  0.006  0.387
tot    0.000  0.710  0.052  0.012  0.773
 
band     9 # energy    2.20872878 # occ.  0.00000000
 
ion      s      p      d      f    tot
    1  0.000  0.023  0.026  0.002  0.052
    2  0.000  0.023  0.026  0.002  0.052
tot    0.001  0.046  0.053  0.003  0.103
 
band    10 # energy    2.26977128 # occ.  0.00000000
 
ion      s      p      d      f    tot
    1  0.004  0.028  0.002  0.001  0.035
    2  0.004  0.028  0.002  0.001  0.035
tot    0.009  0.056  0.005  0.001  0.070
 
band    11 # energy    3.70766723 # occ.  0.00000000
 
ion      s      p      d      f    tot
    1  0.014  0.039  0.008  0.001  0.062
    2  0.014  0.039  0.008  0.001  0.062
tot    0.028  0.078  0.016  0.002  0.124
 
band    12 # energy    4.62476948 # occ.  0.00000000
 
ion      s      p      d      f    tot
    1  0.003  0.001  0.042  0.001  0.047
    2  0.003  0.001  0.042  0.001  0.047
tot    0.005  0.001  0.085  0.002  0.093
 
band    13 # energy    4.85590840 # occ.  0.00000000
 
ion      s      p      d      f    tot
    1  0.014  0.047  0.090  0.019  0.169
    2  0.014  0.047  0.090  0.019  0.169
tot    0.027  0.093  0.180  0.038  0.338
 
band    14 # energy    5.56893378 # occ.  0.00000000
 
ion      s      p      d      f    tot
    1  0.060  0.008  0.054  0.011  0.134
    2  0.060  0.008  0.054  0.011  0.134
tot    0.120  0.016  0.109  0.023  0.268
 
band    15 # energy    5.81646674 # occ.  0.00000000
 
ion      s      p      d      f    tot
    1  0.000  0.023  0.183  0.008  0.214
    2  0.000  0.023  0.183  0.008  0.214
tot    0.000  0.046  0.366  0.016  0.427
 
band    16 # energy    6.21993946 # occ.  0.00000000
 
ion      s      p      d      f    tot
    1  0.005  0.102  0.091  0.007  0.205
    2  0.005  0.102  0.091  0.007  0.205
tot    0.010  0.204  0.183  0.013  0.410
 

 k-point     5 :    0.18181818 0.00000000 0.00000000     weight = 0.01652893

band     1 # energy  -13.21845596 # occ.  2.00000000
 
ion      s      p      d      f    tot
    1  0.336  0.019  0.001  0.001  0.357
    2  0.336  0.019  0.001  0.001  0.357
tot    0.672  0.038  0.002  0.001  0.714
 
band     2 # energy   -8.62602328 # occ.  2.00000000
 
ion      s      p      d      f    tot
    1  0.385  0.023  0.003  0.001  0.411
    2  0.385  0.023  0.003  0.001  0.411
tot    0.770  0.045  0.006  0.001  0.822
 
band     3 # energy   -4.24058084 # occ.  2.00000000
 
ion      s      p      d      f    tot
    1  0.012  0.289  0.019  0.002  0.322
    2  0.012  0.289  0.019  0.002  0.322
tot    0.023  0.578  0.038  0.004  0.644
 
band     4 # energy   -2.92218607 # occ.  2.00000000
 
ion      s      p      d      f    tot
    1  0.000  0.359  0.022  0.004  0.385
    2  0.000  0.359  0.022  0.004  0.385
tot    0.000  0.718  0.044  0.007  0.769
 
band     5 # energy   -2.78586352 # occ.  2.00000000
 
ion      s      p      d      f    tot
    1  0.016  0.286  0.003  0.002  0.306
    2  0.016  0.286  0.003  0.002  0.306
tot    0.032  0.571  0.006  0.003  0.613
 
band     6 # energy   -0.61637502 # occ.  0.00000000
 
ion      s      p      d      f    tot
    1  0.051  0.224  0.025  0.005  0.306
    2  0.051  0.224  0.025  0.005  0.306
tot    0.102  0.448  0.051  0.010  0.611
 
band     7 # energy    1.05552859 # occ.  0.00000000
 
ion      s      p      d      f    tot
    1  0.007  0.360  0.019  0.006  0.392
    2  0.007  0.360  0.019  0.006  0.392
tot    0.014  0.720  0.038  0.012  0.783
 
band     8 # energy    1.07460478 # occ.  0.00000000
 
ion      s      p      d      f    tot
    1  0.058  0.273  0.010  0.007  0.347
    2  0.058  0.273  0.010  0.007  0.347
tot    0.116  0.545  0.019  0.014  0.694
 
band     9 # energy    2.43964206 # occ.  0.00000000
 
ion      s      p      d      f    tot
    1  0.001  0.021  0.025  0.002  0.048
    2  0.001  0.021  0.025  0.002  0.048
tot    0.003  0.042  0.049  0.003  0.097
 
band    10 # energy    2.59128143 # occ.  0.00000000
 
ion      s      p      d      f    tot
    1  0.002  0.048  0.008  0.002  0.059
    2  0.002  0.048  0.008  0.002  0.059
tot    0.003  0.096  0.015  0.004  0.118
 
band    11 # energy    3.77288734 # occ.  0.00000000
 
ion      s      p      d      f    tot
    1  0.007  0.046  0.041  0.006  0.100
    2  0.007  0.046  0.041  0.006  0.100
tot    0.013  0.092  0.082  0.011  0.199
 
band    12 # energy    4.52408110 # occ.  0.00000000
 
ion      s      p      d      f    tot
    1  0.014  0.035  0.061  0.007  0.118
    2  0.014  0.035  0.061  0.007  0.118
tot    0.029  0.070  0.123  0.014  0.236
 
band    13 # energy    4.95857026 # occ.  0.00000000
 
ion      s      p      d      f    tot
    1  0.001  0.005  0.059  0.004  0.069
    2  0.001  0.005  0.059  0.004  0.069
tot    0.001  0.011  0.118  0.009  0.139
 
band    14 # energy    5.46651544 # occ.  0.00000000
 
ion      s      p      d      f    tot
    1  0.016  0.057  0.087  0.003  0.163
    2  0.016  0.057  0.087  0.003  0.163
tot    0.032  0.114  0.174  0.007  0.327
 
band    15 # energy    5.90579763 # occ.  0.00000000
 
ion      s      p      d      f    tot
    1  0.000  0.006  0.186  0.014  0.206
    2  0.000  0.006  0.186  0.014  0.206
tot    0.000  0.012  0.373  0.028  0.413
 
band    16 # energy    6.59379708 # occ.  0.00000000
 
ion      s      p      d      f    tot
    1  0.044  0.094  0.031  0.012  0.180
    2  0.044  0.094  0.031  0.012  0.180
tot    0.088  0.188  0.061  0.023  0.361
 

 k-point     6 :    0.00000000 0.18181818 0.00000000     weight = 0.01652893

band     1 # energy  -13.21699090 # occ.  2.00000000
 
ion      s      p      d      f    tot
    1  0.336  0.019  0.001  0.001  0.357
    2  0.336  0.019  0.001  0.001  0.357
tot    0.672  0.038  0.002  0.001  0.714
 
band     2 # energy   -8.62935959 # occ.  2.00000000
 
ion      s      p      d      f    tot
    1  0.385  0.022  0.003  0.001  0.411
    2  0.385  0.022  0.003  0.001  0.411
tot    0.770  0.045  0.006  0.001  0.822
 
band     3 # energy   -4.25461572 # occ.  2.00000000
 
ion      s      p      d      f    tot
    1  0.012  0.290  0.019  0.002  0.323
    2  0.012  0.290  0.019  0.002  0.323
tot    0.023  0.580  0.039  0.004  0.645
 
band     4 # energy   -2.90688647 # occ.  2.00000000
 
ion      s      p      d      f    tot
    1  0.000  0.358  0.022  0.004  0.383
    2  0.000  0.358  0.022  0.004  0.383
tot    0.000  0.715  0.044  0.007  0.767
 
band     5 # energy   -2.78606715 # occ.  2.00000000
 
ion      s      p      d      f    tot
    1  0.016  0.286  0.003  0.002  0.307
    2  0.016  0.286  0.003  0.002  0.307
tot    0.032  0.572  0.006  0.004  0.614
 
band     6 # energy   -0.60508125 # occ.  0.00000000
 
ion      s      p      d      f    tot
    1  0.051  0.224  0.025  0.005  0.306
    2  0.051  0.224  0.025  0.005  0.306
tot    0.102  0.448  0.050  0.010  0.611
 
band     7 # energy    1.03924528 # occ.  0.00000000
 
ion      s      p      d      f    tot
    1  0.003  0.367  0.019  0.006  0.395
    2  0.003  0.367  0.019  0.006  0.395
tot    0.006  0.733  0.039  0.011  0.790
 
band     8 # energy    1.08737409 # occ.  0.00000000
 
ion      s      p      d      f    tot
    1  0.062  0.265  0.009  0.007  0.343
    2  0.062  0.265  0.009  0.007  0.343
tot    0.124  0.529  0.018  0.014  0.685
 
band     9 # energy    2.44157847 # occ.  0.00000000
 
ion      s      p      d      f    tot
    1  0.001  0.021  0.024  0.002  0.048
    2  0.001  0.021  0.024  0.002  0.048
tot    0.003  0.042  0.049  0.003  0.097
 
band    10 # energy    2.59391705 # occ.  0.00000000
 
ion      s      p      d      f    tot
    1  0.002  0.049  0.008  0.002  0.060
    2  0.002  0.049  0.008  0.002  0.060
tot    0.003  0.098  0.016  0.004  0.120
 
band    11 # energy    3.76669162 # occ.  0.00000000
 
ion      s      p      d      f    tot
    1  0.006  0.046  0.043  0.006  0.101
    2  0.006  0.046  0.043  0.006  0.101
tot    0.013  0.092  0.086  0.012  0.202
 
band    12 # energy    4.51524408 # occ.  0.00000000
 
ion      s      p      d      f    tot
    1  0.014  0.036  0.061  0.007  0.118
    2  0.014  0.036  0.061  0.007  0.118
tot    0.029  0.072  0.122  0.014  0.236
 
band    13 # energy    4.95583041 # occ.  0.00000000
 
ion      s      p      d      f    tot
    1  0.001  0.005  0.058  0.004  0.068
    2  0.001  0.005  0.058  0.004  0.068
tot    0.001  0.010  0.116  0.009  0.137
 
band    14 # energy    5.46211504 # occ.  0.00000000
 
ion      s      p      d      f    tot
    1  0.016  0.057  0.087  0.003  0.164
    2  0.016  0.057  0.087  0.003  0.164
tot    0.032  0.115  0.175  0.007  0.328
 
band    15 # energy    5.91091102 # occ.  0.00000000
 
ion      s      p      d      f    tot
    1  0.000  0.006  0.186  0.014  0.206
    2  0.000  0.006  0.186  0.014  0.206
tot    0.000  0.012  0.373  0.028  0.413
 
band    16 # energy    6.59615389 # occ.  0.00000000
 
ion      s      p      d      f    tot
    1  0.044  0.094  0.031  0.011  0.180
    2  0.044  0.094  0.031  0.011  0.180
tot    0.087  0.187  0.062  0.023  0.360
 

 k-point     7 :   -0.18181818 0.18181818 0.00000000     weight = 0.01652893

band     1 # energy  -13.21541764 # occ.  2.00000000
 
ion      s      p      d      f    tot
    1  0.336  0.019  0.001  0.001  0.357
    2  0.336  0.019  0.001  0.001  0.357
tot    0.672  0.038  0.002  0.001  0.713
 
band     2 # energy   -8.63293763 # occ.  2.00000000
 
ion      s      p      d      f    tot
    1  0.385  0.022  0.003  0.001  0.411
    2  0.385  0.022  0.003  0.001  0.411
tot    0.770  0.045  0.006  0.001  0.823
 
band     3 # energy   -4.26916699 # occ.  2.00000000
 
ion      s      p      d      f    tot
    1  0.011  0.290  0.019  0.002  0.323
    2  0.011  0.290  0.019  0.002  0.323
tot    0.023  0.581  0.039  0.004  0.646
 
band     4 # energy   -2.88963588 # occ.  2.00000000
 
ion      s      p      d      f    tot
    1  0.000  0.357  0.022  0.004  0.383
    2  0.000  0.357  0.022  0.004  0.383
tot    0.000  0.715  0.044  0.007  0.766
 
band     5 # energy   -2.78807305 # occ.  2.00000000
 
ion      s      p      d      f    tot
    1  0.016  0.286  0.003  0.002  0.307
    2  0.016  0.286  0.003  0.002  0.307
tot    0.032  0.571  0.006  0.003  0.613
 
band     6 # energy   -0.59184090 # occ.  0.00000000
 
ion      s      p      d      f    tot
    1  0.051  0.224  0.025  0.005  0.305
    2  0.051  0.224  0.025  0.005  0.305
tot    0.102  0.449  0.050  0.010  0.611
 
band     7 # energy    1.02357469 # occ.  0.00000000
 
ion      s      p      d      f    tot
    1  0.000  0.372  0.020  0.006  0.398
    2  0.000  0.372  0.020  0.006  0.398
tot    0.000  0.745  0.040  0.011  0.796
 
band     8 # energy    1.09886282 # occ.  0.00000000
 
ion      s      p      d      f    tot
    1  0.066  0.257  0.008  0.007  0.338
    2  0.066  0.257  0.008  0.007  0.338
tot    0.131  0.515  0.016  0.014  0.677
 
band     9 # energy    2.44340948 # occ.  0.00000000
 
ion      s      p      d      f    tot
    1  0.001  0.021  0.024  0.002  0.048
    2  0.001  0.021  0.024  0.002  0.048
tot    0.003  0.043  0.048  0.003  0.097
 
band    10 # energy    2.59692836 # occ.  0.00000000
 
ion      s      p      d      f    tot
    1  0.002  0.050  0.008  0.002  0.061
    2  0.002  0.050  0.008  0.002  0.061
tot    0.003  0.099  0.016  0.004  0.123
 
band    11 # energy    3.75950570 # occ.  0.00000000
 
ion      s      p      d      f    tot
    1  0.006  0.046  0.045  0.006  0.103
    2  0.006  0.046  0.045  0.006  0.103
tot    0.012  0.091  0.089  0.012  0.205
 
band    12 # energy    4.50564451 # occ.  0.00000000
 
ion      s      p      d      f    tot
    1  0.014  0.037  0.060  0.007  0.118
    2  0.014  0.037  0.060  0.007  0.118
tot    0.028  0.074  0.120  0.014  0.236
 
band    13 # energy    4.95305101 # occ.  0.00000000
 
ion      s      p      d      f    tot
    1  0.001  0.005  0.057  0.004  0.067
    2  0.001  0.005  0.057  0.004  0.067
tot    0.002  0.010  0.115  0.008  0.134
 
band    14 # energy    5.45745464 # occ.  0.00000000
 
ion      s      p      d      f    tot
    1  0.016  0.058  0.088  0.003  0.165
    2  0.016  0.058  0.088  0.003  0.165
tot    0.032  0.115  0.175  0.006  0.329
 
band    15 # energy    5.91647264 # occ.  0.00000000
 
ion      s      p      d      f    tot
    1  0.000  0.006  0.187  0.014  0.206
    2  0.000  0.006  0.187  0.014  0.206
tot    0.000  0.011  0.373  0.028  0.413
 
band    16 # energy    6.59866770 # occ.  0.00000000
 
ion      s      p      d      f    tot
    1  0.043  0.093  0.031  0.011  0.179
    2  0.043  0.093  0.031  0.011  0.179
tot    0.087  0.187  0.063  0.022  0.358
 

 k-point     8 :    0.27272727 0.00000000 0.00000000     weight = 0.01652893

band     1 # energy  -12.80240708 # occ.  2.00000000
 
ion      s      p      d      f    tot
    1  0.339  0.023  0.002  0.001  0.364
    2  0.339  0.023  0.002  0.001  0.364
tot    0.677  0.046  0.004  0.001  0.729
 
band     2 # energy   -8.84928448 # occ.  2.00000000
 
ion      s      p      d      f    tot
    1  0.401  0.021  0.006  0.001  0.428
    2  0.401  0.021  0.006  0.001  0.428
tot    0.801  0.042  0.011  0.002  0.856
 
band     3 # energy   -5.04963809 # occ.  2.00000000
 
ion      s      p      d      f    tot
    1  0.003  0.272  0.012  0.001  0.288
    2  0.003  0.272  0.012  0.001  0.288
tot    0.006  0.545  0.025  0.002  0.577
 
band     4 # energy   -3.34197342 # occ.  2.00000000
 
ion      s      p      d      f    tot
    1  0.000  0.349  0.019  0.003  0.372
    2  0.000  0.349  0.019  0.003  0.372
tot    0.000  0.698  0.039  0.007  0.743
 
band     5 # energy   -2.87191340 # occ.  2.00000000
 
ion      s      p      d      f    tot
    1  0.033  0.295  0.002  0.002  0.331
    2  0.033  0.295  0.002  0.002  0.331
tot    0.066  0.591  0.004  0.003  0.663
 
band     6 # energy   -1.00865610 # occ.  0.00000000
 
ion      s      p      d      f    tot
    1  0.043  0.196  0.028  0.004  0.271
    2  0.043  0.196  0.028  0.004  0.271
tot    0.086  0.391  0.056  0.009  0.542
 
band     7 # energy    1.06951247 # occ.  0.00000000
 
ion      s      p      d      f    tot
    1  0.033  0.214  0.035  0.005  0.288
    2  0.033  0.214  0.035  0.005  0.288
tot    0.067  0.428  0.071  0.010  0.575
 
band     8 # energy    1.25558119 # occ.  0.00000000
 
ion      s      p      d      f    tot
    1  0.000  0.367  0.020  0.004  0.391
    2  0.000  0.367  0.020  0.004  0.391
tot    0.001  0.734  0.040  0.009  0.783
 
band     9 # energy    2.76428317 # occ.  0.00000000
 
ion      s      p      d      f    tot
    1  0.006  0.010  0.028  0.001  0.046
    2  0.006  0.010  0.028  0.001  0.046
tot    0.013  0.021  0.055  0.002  0.091
 
band    10 # energy    2.99463349 # occ.  0.00000000
 
ion      s      p      d      f    tot
    1  0.003  0.052  0.007  0.001  0.063
    2  0.003  0.052  0.007  0.001  0.063
tot    0.005  0.105  0.015  0.002  0.127
 
band    11 # energy    3.89695093 # occ.  0.00000000
 
ion      s      p      d      f    tot
    1  0.003  0.069  0.047  0.004  0.122
    2  0.003  0.069  0.047  0.004  0.122
tot    0.007  0.137  0.093  0.008  0.245
 
band    12 # energy    4.88976861 # occ.  0.00000000
 
ion      s      p      d      f    tot
    1  0.017  0.052  0.031  0.003  0.104
    2  0.017  0.052  0.031  0.003  0.104
tot    0.034  0.104  0.063  0.007  0.207
 
band    13 # energy    5.29762999 # occ.  0.00000000
 
ion      s      p      d      f    tot
    1  0.020  0.038  0.050  0.002  0.111
    2  0.020  0.038  0.050  0.002  0.111
tot    0.040  0.076  0.101  0.004  0.222
 
band    14 # energy    5.59429893 # occ.  0.00000000
 
ion      s      p      d      f    tot
    1  0.004  0.045  0.090  0.014  0.152
    2  0.004  0.045  0.090  0.014  0.152
tot    0.008  0.090  0.179  0.028  0.304
 
band    15 # energy    6.36157615 # occ.  0.00000000
 
ion      s      p      d      f    tot
    1  0.022  0.009  0.034  0.016  0.082
    2  0.022  0.009  0.034  0.016  0.082
tot    0.044  0.018  0.069  0.032  0.163
 
band    16 # energy    6.53790399 # occ.  0.00000000
 
ion      s      p      d      f    tot
    1  0.000  0.012  0.183  0.025  0.220
    2  0.000  0.012  0.183  0.025  0.220
tot    0.000  0.024  0.366  0.049  0.440
 

 k-point     9 :    0.00000000 0.27272727 0.00000000     weight = 0.01652893

band     1 # energy  -12.79847347 # occ.  2.00000000
 
ion      s      p      d      f    tot
    1  0.338  0.023  0.002  0.001  0.364
    2  0.338  0.023  0.002  0.001  0.364
tot    0.677  0.046  0.004  0.001  0.729
 
band     2 # energy   -8.85898772 # occ.  2.00000000
 
ion      s      p      d      f    tot
    1  0.401  0.021  0.006  0.001  0.428
    2  0.401  0.021  0.006  0.001  0.428
tot    0.801  0.042  0.011  0.002  0.856
 
band     3 # energy   -5.05628901 # occ.  2.00000000
 
ion      s      p      d      f    tot
    1  0.003  0.273  0.012  0.001  0.289
    2  0.003  0.273  0.012  0.001  0.289
tot    0.005  0.546  0.025  0.002  0.578
 
band     4 # energy   -3.33014899 # occ.  2.00000000
 
ion      s      p      d      f    tot
    1  0.000  0.348  0.019  0.003  0.371
    2  0.000  0.348  0.019  0.003  0.371
tot    0.000  0.697  0.038  0.007  0.742
 
band     5 # energy   -2.87578095 # occ.  2.00000000
 
ion      s      p      d      f    tot
    1  0.033  0.295  0.002  0.002  0.332
    2  0.033  0.295  0.002  0.002  0.332
tot    0.066  0.591  0.004  0.003  0.663
 
band     6 # energy   -0.99814847 # occ.  0.00000000
 