<?xml version="1.0" encoding="ISO-8859-1"?>
<modeling>
 <generator>
  <i name="program" type="string">vasp </i>
  <i name="version" type="string">6.4.2  </i>
  <i name="subversion" type="string">20Jul23 (build Nov 14 2023 12:59:38) complex                          parallel </i>
  <i name="platform" type="string">LinuxIFC </i>
  <i name="date" type="string">2023 12 29 </i>
  <i name="time" type="string">16:18:15 </i>
 </generator>
 <incar>
  <i type="string" name="PREC">Accurate</i>
  <i type="string" name="ALGO">Normal</i>
  <i type="logical" name="ADDGRID"> T  </i>
  <i type="int" name="ISPIN">     1</i>
  <i name="AMIX">      0.10000000</i>
  <i name="BMIX">      0.00010000</i>
  <i type="int" name="ICHARG">     2</i>
  <i type="int" name="NELM">   200</i>
  <i type="int" name="NELMDL">   -12</i>
  <i type="int" name="NELMIN">     6</i>
  <i name="EDIFF">      0.00000100</i>
  <i name="ENCUT">    193.57762500</i>
  <i type="int" name="NEDOS">  6001</i>
  <i type="logical" name="LREAL"> F  </i>
  <i type="logical" name="LPLANE"> T  </i>
  <i type="int" name="ISMEAR">     0</i>
  <i name="SIGMA">      0.01000000</i>
  <i type="int" name="NWRITE">     3</i>
  <i type="logical" name="LWAVE"> F  </i>
  <i type="logical" name="LCHARG"> F  </i>
  <i type="logical" name="LVTOT"> F  </i>
  <i type="int" name="LORBIT">    10</i>
  <i type="logical" name="LELF"> F  </i>
  <i type="logical" name="LASPH"> T  </i>
  <i type="logical" name="LEPSILON"> T  </i>
  <i type="int" name="IVDW">     0</i>
 </incar>
 <primitive_cell>
  <structure name="primitive_cell" >
   <crystal>
    <varray name="basis" >
     <v>       4.11336655       0.00000000       0.00000000 </v>
     <v>      -2.05668327       3.56227993       0.00000000 </v>
     <v>       0.00000000       0.00000000      16.00000000 </v>
    </varray>
    <i name="volume">    234.44740948 </i>
    <varray name="rec_basis" >
     <v>       0.24310987       0.14035955       0.00000000 </v>
     <v>       0.00000000       0.28071910       0.00000000 </v>
     <v>       0.00000000       0.00000000       0.06250000 </v>
    </varray>
   </crystal>
   <varray name="positions" >
    <v>       0.66497245       0.33338196       0.44862540 </v>
    <v>       0.33502755       0.66661804       0.55137460 </v>
   </varray>
  </structure>
  <varray name="primitive_index" >
   <v type="int" >        1 </v>
   <v type="int" >        2 </v>
  </varray>
 </primitive_cell>
 <kpoints>
  <generation param="Gamma">
   <v type="int" name="divisions">      11       11        1 </v>
   <v name="usershift">      0.00000000       0.00000000       0.00000000 </v>
   <v name="genvec1">      0.09090909       0.00000000       0.00000000 </v>
   <v name="genvec2">      0.00000000       0.09090909       0.00000000 </v>
   <v name="genvec3">      0.00000000       0.00000000       1.00000000 </v>
   <v name="shift">      0.00000000       0.00000000       0.00000000 </v>
  </generation>
  <varray name="kpointlist" >
   <v>       0.00000000       0.00000000       0.00000000 </v>
   <v>       0.09090909       0.00000000       0.00000000 </v>
   <v>       0.00000000       0.09090909       0.00000000 </v>
   <v>      -0.09090909       0.09090909       0.00000000 </v>
   <v>       0.18181818       0.00000000       0.00000000 </v>
   <v>       0.00000000       0.18181818       0.00000000 </v>
   <v>      -0.18181818       0.18181818       0.00000000 </v>
   <v>       0.27272727       0.00000000       0.00000000 </v>
   <v>       0.00000000       0.27272727       0.00000000 </v>
   <v>      -0.27272727       0.27272727       0.00000000 </v>
   <v>       0.36363636       0.00000000       0.00000000 </v>
   <v>       0.00000000       0.36363636       0.00000000 </v>
   <v>      -0.36363636       0.36363636       0.00000000 </v>
   <v>       0.45454545       0.00000000       0.00000000 </v>
   <v>       0.00000000       0.45454545       0.00000000 </v>
   <v>      -0.45454545       0.45454545       0.00000000 </v>
   <v>       0.09090909       0.09090909       0.00000000 </v>
   <v>      -0.09090909       0.18181818       0.00000000 </v>
   <v>      -0.18181818       0.09090909       0.00000000 </v>
   <v>       0.18181818       0.09090909       0.00000000 </v>
   <v>      -0.09090909       0.27272727       0.00000000 </v>
   <v>      -0.27272727       0.18181818       0.00000000 </v>
   <v>      -0.18181818       0.27272727       0.00000000 </v>
   <v>       0.09090909       0.18181818       0.00000000 </v>
   <v>       0.27272727      -0.09090909       0.00000000 </v>
   <v>       0.27272727       0.09090909       0.00000000 </v>
   <v>      -0.09090909       0.36363636       0.00000000 </v>
   <v>      -0.36363636       0.27272727       0.00000000 </v>
   <v>      -0.27272727       0.36363636       0.00000000 </v>
   <v>       0.09090909       0.27272727       0.00000000 </v>
   <v>       0.36363636      -0.09090909       0.00000000 </v>
   <v>       0.36363636       0.09090909       0.00000000 </v>
   <v>      -0.09090909       0.45454545       0.00000000 </v>
   <v>      -0.45454545       0.36363636       0.00000000 </v>
   <v>      -0.36363636       0.45454545       0.00000000 </v>
   <v>       0.09090909       0.36363636       0.00000000 </v>
   <v>       0.45454545      -0.09090909       0.00000000 </v>
   <v>       0.45454545       0.09090909       0.00000000 </v>
   <v>      -0.09090909      -0.45454545       0.00000000 </v>
   <v>       0.45454545       0.45454545       0.00000000 </v>
   <v>       0.18181818       0.18181818       0.00000000 </v>
   <v>      -0.18181818       0.36363636       0.00000000 </v>
   <v>      -0.36363636       0.18181818       0.00000000 </v>
   <v>       0.27272727       0.18181818       0.00000000 </v>
   <v>      -0.18181818       0.45454545       0.00000000 </v>
   <v>      -0.45454545       0.27272727       0.00000000 </v>
   <v>      -0.27272727       0.45454545       0.00000000 </v>
   <v>       0.18181818       0.27272727       0.00000000 </v>
   <v>       0.45454545      -0.18181818       0.00000000 </v>
   <v>       0.36363636       0.18181818       0.00000000 </v>
   <v>      -0.18181818      -0.45454545       0.00000000 </v>
   <v>       0.45454545       0.36363636       0.00000000 </v>
   <v>      -0.36363636      -0.45454545       0.00000000 </v>
   <v>       0.18181818       0.36363636       0.00000000 </v>
   <v>      -0.45454545      -0.18181818       0.00000000 </v>
   <v>       0.27272727       0.27272727       0.00000000 </v>
   <v>      -0.27272727      -0.45454545       0.00000000 </v>
   <v>       0.45454545       0.27272727       0.00000000 </v>
   <v>       0.36363636       0.27272727       0.00000000 </v>
   <v>      -0.27272727      -0.36363636       0.00000000 </v>
   <v>       0.36363636       0.36363636       0.00000000 </v>
  </varray>
  <varray name="weights" >
   <v>       0.00826446 </v>
   <v>       0.01652893 </v>
   <v>       0.01652893 </v>
   <v>       0.01652893 </v>
   <v>       0.01652893 </v>
   <v>       0.01652893 </v>
   <v>       0.01652893 </v>
   <v>       0.01652893 </v>
   <v>       0.01652893 </v>
   <v>       0.01652893 </v>
   <v>       0.01652893 </v>
   <v>       0.01652893 </v>
   <v>       0.01652893 </v>
   <v>       0.01652893 </v>
   <v>       0.01652893 </v>
   <v>       0.01652893 </v>
   <v>       0.01652893 </v>
   <v>       0.01652893 </v>
   <v>       0.01652893 </v>
   <v>       0.01652893 </v>
   <v>       0.01652893 </v>
   <v>       0.01652893 </v>
   <v>       0.01652893 </v>
   <v>       0.01652893 </v>
   <v>       0.01652893 </v>
   <v>       0.01652893 </v>
   <v>       0.01652893 </v>
   <v>       0.01652893 </v>
   <v>       0.01652893 </v>
   <v>       0.01652893 </v>
   <v>       0.01652893 </v>
   <v>       0.01652893 </v>
   <v>       0.01652893 </v>
   <v>       0.01652893 </v>
   <v>       0.01652893 </v>
   <v>       0.01652893 </v>
   <v>       0.01652893 </v>
   <v>       0.01652893 </v>
   <v>       0.01652893 </v>
   <v>       0.01652893 </v>
   <v>       0.01652893 </v>
   <v>       0.01652893 </v>
   <v>       0.01652893 </v>
   <v>       0.01652893 </v>
   <v>       0.01652893 </v>
   <v>       0.01652893 </v>
   <v>       0.01652893 </v>
   <v>       0.01652893 </v>
   <v>       0.01652893 </v>
   <v>       0.01652893 </v>
   <v>       0.01652893 </v>
   <v>       0.01652893 </v>
   <v>       0.01652893 </v>
   <v>       0.01652893 </v>
   <v>       0.01652893 </v>
   <v>       0.01652893 </v>
   <v>       0.01652893 </v>
   <v>       0.01652893 </v>
   <v>       0.01652893 </v>
   <v>       0.01652893 </v>
   <v>       0.01652893 </v>
  </varray>
 </kpoints>
 <parameters>
  <separator name="general" >
   <i type="string" name="SYSTEM">unknown system</i>
   <i type="logical" name="LCOMPAT"> F  </i>
  </separator>
  <separator name="electronic" >
   <i type="string" name="PREC">accura</i>
   <i name="ENMAX">    193.57762500</i>
   <i name="ENAUG">    560.61200000</i>
   <i name="EDIFF">      0.00000100</i>
   <i type="int" name="IALGO">    38</i>
   <i type="int" name="IWAVPR">    10</i>
   <i type="int" name="NBANDS">    16</i>
   <i type="int" name="NBANDSLOW">    -1</i>
   <i type="int" name="NBANDSHIGH">    -1</i>
   <i name="NELECT">     10.00000000</i>
   <i type="int" name="TURBO">     0</i>
   <i type="int" name="IRESTART">     0</i>
   <i type="int" name="NREBOOT">     0</i>
   <i type="int" name="NMIN">     0</i>
   <i name="EREF">      0.00000000</i>
   <separator name="electronic smearing" >
    <i type="int" name="ISMEAR">     0</i>
    <i name="SIGMA">      0.01000000</i>
    <i name="KSPACING">      0.50000000</i>
    <i type="logical" name="KGAMMA"> T  </i>
    <i type="logical" name="KBLOWUP"> T  </i>
   </separator>
   <separator name="electronic projectors" >
    <i type="logical" name="LREAL"> F  </i>
    <v name="ROPT">      0.00000000</v>
    <i type="int" name="LMAXPAW">  -100</i>
    <i type="int" name="LMAXMIX">     2</i>
    <i type="logical" name="NLSPLINE"> F  </i>
   </separator>
   <separator name="electronic startup" >
    <i type="int" name="ISTART">     0</i>
    <i type="int" name="ICHARG">     2</i>
    <i type="int" name="INIWAV">     1</i>
   </separator>
   <separator name="electronic spin" >
    <i type="int" name="ISPIN">     1</i>
    <i type="logical" name="LNONCOLLINEAR"> F  </i>
    <v name="MAGMOM">      1.00000000      1.00000000</v>
    <i name="NUPDOWN">     -1.00000000</i>
    <i type="logical" name="LSORBIT"> F  </i>
    <v name="SAXIS">      0.00000000      0.00000000      1.00000000</v>
    <i type="logical" name="LSPIRAL"> F  </i>
    <v name="QSPIRAL">      0.00000000      0.00000000      0.00000000</v>
    <i type="logical" name="LZEROZ"> F  </i>
   </separator>
   <separator name="electronic exchange-correlation" >
    <i type="logical" name="LASPH"> T  </i>
    <i type="logical" name="LMETAGGA"> F  </i>
   </separator>
   <separator name="electronic convergence" >
    <i type="int" name="NELM">   200</i>
    <i type="int" name="NELMDL">   -12</i>
    <i type="int" name="NELMIN">     6</i>
    <i name="ENINI">    193.57762500</i>
    <separator name="electronic convergence detail" >
     <i type="logical" name="LDIAG"> T  </i>
     <i type="logical" name="LSUBROT"> F  </i>
     <i name="WEIMIN">      0.00000000</i>
     <i name="EBREAK">      0.00000002</i>
     <i name="DEPER">      0.30000000</i>
     <i type="int" name="NRMM">     4</i>
     <i name="TIME">      0.40000000</i>
    </separator>
   </separator>
   <separator name="electronic mixer" >
    <i name="AMIX">      0.10000000</i>
    <i name="BMIX">      0.00010000</i>
    <i name="AMIN">      0.10000000</i>
    <i name="AMIX_MAG">      0.40000000</i>
    <i name="BMIX_MAG">      0.00010000</i>
    <separator name="electronic mixer details" >
     <i type="int" name="IMIX">     4</i>
     <i type="logical" name="MIXFIRST"> F  </i>
     <i type="int" name="MAXMIX">   -45</i>
     <i name="WC">    100.00000000</i>
     <i type="int" name="INIMIX">     1</i>
     <i type="int" name="MIXPRE">     1</i>
     <i type="int" name="MREMOVE">     5</i>
    </separator>
   </separator>
   <separator name="electronic dipolcorrection" >
    <i type="logical" name="LDIPOL"> F  </i>
    <i type="logical" name="LMONO"> F  </i>
    <i type="int" name="IDIPOL">     0</i>
    <i name="EPSILON">      1.00000000</i>
    <v name="DIPOL">   -100.00000000   -100.00000000   -100.00000000</v>
    <i name="EFIELD">      0.00000000</i>
   </separator>
  </separator>
  <separator name="grids" >
   <i type="int" name="NGX">    20</i>
   <i type="int" name="NGY">    20</i>
   <i type="int" name="NGZ">    80</i>
   <i type="int" name="NGXF">    40</i>
   <i type="int" name="NGYF">    40</i>
   <i type="int" name="NGZF">   160</i>
   <i type="logical" name="ADDGRID"> T  </i>
  </separator>
  <separator name="ionic" >
   <i type="int" name="NSW">     0</i>
   <i type="int" name="IBRION">    -1</i>
   <i type="int" name="MDALGO">     0</i>
   <i type="int" name="ISIF">     2</i>
   <i name="PSTRESS">      0.00000000</i>
   <i name="EDIFFG">      0.00001000</i>
   <i type="int" name="NFREE">     0</i>
   <i name="POTIM">      0.50000000</i>
   <i name="SMASS">     -3.00000000</i>
   <i name="SCALEE">      1.00000000</i>
  </separator>
  <separator name="ionic md" >
   <i name="TEBEG">      0.00010000</i>
   <i name="TEEND">      0.00010000</i>
   <i type="int" name="NBLOCK">     1</i>
   <i type="int" name="KBLOCK">     1</i>
   <i type="int" name="NPACO">   256</i>
   <i name="APACO">     10.00000000</i>
  </separator>
  <separator name="symmetry" >
   <i type="int" name="ISYM">     2</i>
   <i name="SYMPREC">      0.00001000</i>
  </separator>
  <separator name="dos" >
   <i type="int" name="LORBIT">    10</i>
   <v name="RWIGS">     -1.00000000</v>
   <i type="int" name="NEDOS">  6001</i>
   <i name="EMIN">     10.00000000</i>
   <i name="EMAX">    -10.00000000</i>
   <i name="EFERMI">      0.00000000</i>
  </separator>
  <separator name="writing" >
   <i type="int" name="NWRITE">     3</i>
   <i type="logical" name="LWAVE"> F  </i>
   <i type="logical" name="LDOWNSAMPLE"> F  </i>
   <i type="logical" name="LCHARG"> F  </i>
   <i type="logical" name="LPARD"> F  </i>
   <i type="logical" name="LVTOT"> F  </i>
   <i type="logical" name="LVHAR"> F  </i>
   <i type="logical" name="LELF"> F  </i>
   <i type="logical" name="LOPTICS"> F  </i>
   <v name="STM">      0.00000000      0.00000000      0.00000000      0.00000000      0.00000000      0.00000000      0.00000000</v>
  </separator>
  <separator name="performance" >
   <i type="int" name="NPAR">    16</i>
   <i type="int" name="NSIM">     4</i>
   <i type="int" name="NBLK">    -1</i>
   <i type="logical" name="LPLANE"> T  </i>
   <i type="logical" name="LSCALAPACK"> T  </i>
   <i type="logical" name="LSCAAWARE"> F  </i>
   <i type="logical" name="LSCALU"> F  </i>
   <i type="logical" name="LASYNC"> F  </i>
   <i type="logical" name="LORBITALREAL"> F  </i>
  </separator>
  <separator name="miscellaneous" >
   <i type="int" name="IDIOT">     3</i>
   <i type="int" name="PHON_NSTRUCT">    -1</i>
   <i type="logical" name="LMUSIC"> F  </i>
   <v name="POMASS">    121.75000000</v>
   <v name="DARWINR">      0.00000000</v>
   <v name="DARWINV">      1.00000000</v>
   <i type="logical" name="LCORR"> T  </i>
  </separator>
  <i type="logical" name="GGA_COMPAT"> T  </i>
  <i type="logical" name="LBERRY"> F  </i>
  <i type="int" name="ICORELEVEL">     0</i>
  <i type="logical" name="LDAU"> F  </i>
  <i type="int" name="I_CONSTRAINED_M">     0</i>
  <separator name="electronic exchange-correlation" >
   <i type="string" name="GGA">--</i>
   <i type="int" name="VOSKOWN">     0</i>
   <i type="logical" name="LHFCALC"> F  </i>
   <i type="string" name="PRECFOCK"></i>
   <i type="logical" name="LSYMGRAD"> F  </i>
   <i type="logical" name="LHFONE"> F  </i>
   <i type="logical" name="LRHFCALC"> F  </i>
   <i type="logical" name="LTHOMAS"> F  </i>
   <i type="logical" name="LMODELHF"> F  </i>
   <i type="logical" name="LFOCKACE"> F  </i>
   <i name="ENCUT4O">     -1.00000000</i>
   <i type="int" name="EXXOEP">     0</i>
   <i type="int" name="FOURORBIT">     0</i>
   <i name="AEXX">      0.00000000</i>
   <i name="HFALPHA">      0.00000000</i>
   <i name="MCALPHA">      0.00000000</i>
   <i name="ALDAX">      1.00000000</i>
   <i name="AGGAX">      1.00000000</i>
   <i name="ALDAC">      1.00000000</i>
   <i name="AGGAC">      1.00000000</i>
   <i type="int" name="NKREDX">     1</i>
   <i type="int" name="NKREDY">     1</i>
   <i type="int" name="NKREDZ">     1</i>
   <i type="logical" name="SHIFTRED"> F  </i>
   <i type="logical" name="ODDONLY"> F  </i>
   <i type="logical" name="EVENONLY"> F  </i>
   <i type="int" name="LMAXFOCK">     0</i>
   <i type="int" name="NMAXFOCKAE">     0</i>
   <i type="logical" name="LFOCKAEDFT"> F  </i>
   <i name="HFSCREEN">      0.00000000</i>
   <i name="HFSCREENC">      0.00000000</i>
   <i type="int" name="NBANDSGWLOW">     0</i>
  </separator>
  <separator name="vdW DFT" >
   <i type="logical" name="LUSE_VDW"> F  </i>
   <i type="int" name="IVDW_NL">     1</i>
   <i type="logical" name="LSPIN_VDW"> F  </i>
   <i name="Zab_VDW">     -0.84910000</i>
   <i name="PARAM1">      0.12340000</i>
   <i name="PARAM2">      1.00000000</i>
   <i name="PARAM3">      0.00000000</i>
  </separator>
  <separator name="model GW" >
   <i type="int" name="MODEL_GW">     0</i>
   <i name="MODEL_EPS0">     70.33422284</i>
   <i name="MODEL_ALPHA">      1.00000000</i>
  </separator>
  <separator name="linear response parameters" >
   <i type="logical" name="LEPSILON"> T  </i>
   <i type="logical" name="LRPA"> F  </i>
   <i type="logical" name="LNABLA"> F  </i>
   <i type="logical" name="LVEL"> F  </i>
   <i name="CSHIFT">      0.10000000</i>
   <i name="OMEGAMAX">     -1.00000000</i>
   <i name="DEG_THRESHOLD">      0.00200000</i>
   <i name="RTIME">     -0.10000000</i>
   <i name="WPLASMAI">      0.00000000</i>
   <v name="DFIELD">      0.00000000      0.00000000      0.00000000</v>
   <v name="WPLASMA">      0.00000000      0.00000000      0.00000000      0.00000000      0.00000000      0.00000000      0.00000000      0.00000000      0.00000000</v>
  </separator>
  <separator name="orbital magnetization" >
   <i type="logical" name="NUCIND"> F  </i>
   <v name="MAGPOS">      0.00000000      0.00000000      0.00000000</v>
   <i type="logical" name="LNICSALL"> T  </i>
   <i type="logical" name="ORBITALMAG"> F  </i>
   <i type="logical" name="LMAGBLOCH"> F  </i>
   <i type="logical" name="LCHIMAG"> F  </i>
   <i type="logical" name="LGAUGE"> T  </i>
   <i type="int" name="MAGATOM">     0</i>
   <v name="MAGDIPOL">      0.00000000      0.00000000      0.00000000</v>
   <v name="AVECCONST">      0.00000000      0.00000000      0.00000000</v>
  </separator>
  <separator name="response functions" >
   <i type="logical" name="LALL_IN_ONE"> F  </i>
   <i type="int" name="IALL_IN_ONE">    -1</i>
   <i type="int" name="NBANDS_WAVE">    -1</i>
   <i type="logical" name="LFINITE_TEMPERATURE"> F  </i>
   <i type="logical" name="LADDER"> F  </i>
   <i type="logical" name="LRPAFORCE"> F  </i>
   <i type="logical" name="LFXC"> F  </i>
   <i type="logical" name="LHARTREE"> T  </i>
   <i type="int" name="IBSE">     0</i>
   <v type="int" name="KPOINT">    -1     0     0     0</v>
   <i type="logical" name="LTCTC"> F  </i>
   <i type="logical" name="LTCTE"> F  </i>
   <i type="logical" name="LTETE"> F  </i>
   <i type="logical" name="LTRIPLET"> F  </i>
   <i type="logical" name="LFXCEPS"> F  </i>
   <i type="logical" name="LFXHEG"> F  </i>
   <i type="int" name="NATURALO">     2</i>
   <i type="logical" name="LHOLEGF"> F  </i>
   <i type="logical" name="L2ORDER"> F  </i>
   <i type="logical" name="LDMP1"> F  </i>
   <i type="logical" name="LMP2LT"> F  </i>
   <i type="logical" name="LSMP2LT"> F  </i>
   <i type="logical" name="LGWLF"> F  </i>
   <i name="ENCUTGW">     -1.60000002</i>
   <i name="ENCUTGWSOFT">     -1.60000002</i>
   <i name="ENCUTLF">     -1.00000000</i>
   <i type="logical" name="LESF_SPLINES"> F  </i>
   <i type="int" name="LMAXMP2">    -1</i>
   <i name="SCISSOR">      0.00000000</i>
   <i type="int" name="NOMEGA">     0</i>
   <i type="int" name="NOMEGAR">     0</i>
   <i type="int" name="NBANDSGW">    -1</i>
   <i type="int" name="NBANDSO">    -1</i>
   <i type="int" name="NBANDSV">    -1</i>
   <i type="int" name="NELMGW">     1</i>
   <i type="int" name="NELMHF">     1</i>
   <i type="int" name="DIM">     3</i>
   <i type="int" name="IESPILON">     4</i>
   <i type="int" name="ANTIRES">     0</i>
   <i name="OMEGAMAX">    -30.00000000</i>
   <i name="OMEGAMIN">    -30.00000000</i>
   <i name="OMEGATL">   -200.00000000</i>
   <i type="int" name="OMEGAGRID">     0</i>
   <i name="CSHIFT">     -0.10000000</i>
   <i type="logical" name="LSELFENERGY"> F  </i>
   <i type="logical" name="LSPECTRAL"> F  </i>
   <i type="logical" name="LSPECTRALGW"> F  </i>
   <i type="logical" name="LSINGLES"> F  </i>
   <i type="logical" name="LFERMIGW"> F  </i>
   <i type="logical" name="ODDONLYGW"> F  </i>
   <i type="logical" name="EVENONLYGW"> F  </i>
   <i type="int" name="NKREDLFX">     1</i>
   <i type="int" name="NKREDLFY">     1</i>
   <i type="int" name="NKREDLFZ">     1</i>
   <i type="int" name="MAXMEM">  2800</i>
   <i type="int" name="TELESCOPE">     0</i>
   <i type="int" name="NTAUPAR">    -1</i>
   <i type="int" name="NOMEGAPAR">    -1</i>
   <i name="DAMP_NEWTON">      0.80000001</i>
   <i name="LAMBDA">      1.00000000</i>
  </separator>
  <separator name="External order field" >
   <i name="OFIELD_KAPPA">      0.00000000</i>
   <v name="OFIELD_K">      0.00000000      0.00000000      0.00000000</v>
   <i name="OFIELD_Q6_NEAR">      0.00000000</i>
   <i name="OFIELD_Q6_FAR">      0.00000000</i>
   <i name="OFIELD_A">      0.00000000</i>
  </separator>
  <separator name="optional k-points parameters" >
   <i type="int" name="KPOINTS_OPT_MODE">     1</i>
   <i type="logical" name="LKPOINTS_OPT"> F  </i>
  </separator>
 </parameters>
 <atominfo>
  <atoms>       2 </atoms>
  <types>       1 </types>
  <array name="atoms" >
   <dimension dim="1">ion</dimension>
   <field type="string">element</field>
   <field type="int">atomtype</field>
   <set>
    <rc><c>Sb</c><c>   1</c></rc>
    <rc><c>Sb</c><c>   1</c></rc>
   </set>
  </array>
  <array name="atomtypes" >
   <dimension dim="1">type</dimension>
   <field type="int">atomspertype</field>
   <field type="string">element</field>
   <field>mass</field>
   <field>valence</field>
   <field type="string">pseudopotential</field>
   <set>
    <rc><c>   2</c><c>Sb</c><c>    121.75000000</c><c>      5.00000000</c><c>  PAW_PBE Sb_GW 21Mar2012               </c></rc>
   </set>
  </array>
 </atominfo>
 <structure name="initialpos" >
  <crystal>
   <varray name="basis" >
    <v>       4.11336655       0.00000000       0.00000000 </v>
    <v>      -2.05668327       3.56227993       0.00000000 </v>
    <v>       0.00000000       0.00000000      16.00000000 </v>
   </varray>
   <i name="volume">    234.44740948 </i>
   <varray name="rec_basis" >
    <v>       0.24310987       0.14035955       0.00000000 </v>
    <v>       0.00000000       0.28071910       0.00000000 </v>
    <v>       0.00000000       0.00000000       0.06250000 </v>
   </varray>
  </crystal>
  <varray name="positions" >
   <v>       0.66497245       0.33338196       0.44862540 </v>
   <v>       0.33502755       0.66661804       0.55137460 </v>
  </varray>
 </structure>
 <calculation>
  <scstep>
   <time name="dav">    0.42    0.42</time>
   <time name="total">    0.70    0.81</time>
   <energy>
    <i name="alphaZ">      2.97593478 </i>
    <i name="ewald">    213.92057007 </i>
    <i name="hartreedc">   -467.82155831 </i>
    <i name="XCdc">    -92.70008326 </i>
    <i name="pawpsdc">    327.35893868 </i>
    <i name="pawaedc">   -219.44694627 </i>
    <i name="eentropy">     -0.00022627 </i>
    <i name="bandstr">    -48.08636364 </i>
    <i name="atom">    299.89217194 </i>
    <i name="e_fr_energy">     16.09243771 </i>
    <i name="e_wo_entrp">     16.09266399 </i>
    <i name="e_0_energy">     16.09255085 </i>
   </energy>
  </scstep>
  <scstep>
   <time name="dav">    0.63    0.63</time>
   <time name="total">    0.63    0.63</time>
   <energy>
    <i name="e_fr_energy">     -7.77975758 </i>
    <i name="e_wo_entrp">     -7.77975758 </i>
    <i name="e_0_energy">     -7.77975758 </i>
   </energy>
  </scstep>
  <scstep>
   <time name="dav">    0.53    0.53</time>
   <time name="total">    0.53    0.53</time>
   <energy>
    <i name="e_fr_energy">     -8.16333693 </i>
    <i name="e_wo_entrp">     -8.16333693 </i>
    <i name="e_0_energy">     -8.16333693 </i>
   </energy>
  </scstep>
  <scstep>
   <time name="dav">    0.84    0.85</time>
   <time name="total">    0.84    0.85</time>
   <energy>
    <i name="e_fr_energy">     -8.16569444 </i>
    <i name="e_wo_entrp">     -8.16569444 </i>
    <i name="e_0_energy">     -8.16569444 </i>
   </energy>
  </scstep>
  <scstep>
   <time name="dav">    0.57    0.57</time>
   <time name="total">    0.57    0.57</time>
   <energy>
    <i name="e_fr_energy">     -8.16569776 </i>
    <i name="e_wo_entrp">     -8.16569776 </i>
    <i name="e_0_energy">     -8.16569776 </i>
   </energy>
  </scstep>
  <scstep>
   <time name="dav">    0.88    0.88</time>
   <time name="total">    0.88    0.88</time>
   <energy>
    <i name="e_fr_energy">     -8.16569779 </i>
    <i name="e_wo_entrp">     -8.16569779 </i>
    <i name="e_0_energy">     -8.16569779 </i>
   </energy>
  </scstep>
  <scstep>
   <time name="dav">    0.65    0.65</time>
   <time name="total">    0.65    0.65</time>
   <energy>
    <i name="e_fr_energy">     -8.16569779 </i>
    <i name="e_wo_entrp">     -8.16569779 </i>
    <i name="e_0_energy">     -8.16569779 </i>
   </energy>
  </scstep>
  <scstep>
   <time name="dav">    0.77    0.77</time>
   <time name="total">    0.77    0.77</time>
   <energy>
    <i name="e_fr_energy">     -8.16569779 </i>
    <i name="e_wo_entrp">     -8.16569779 </i>
    <i name="e_0_energy">     -8.16569779 </i>
   </energy>
  </scstep>
  <scstep>
   <time name="dav">    0.45    0.45</time>
   <time name="total">    0.45    0.45</time>
   <energy>
    <i name="e_fr_energy">     -8.16569779 </i>
    <i name="e_wo_entrp">     -8.16569779 </i>
    <i name="e_0_energy">     -8.16569779 </i>
   </energy>
  </scstep>
  <scstep>
   <time name="dav">    0.43    0.43</time>
   <time name="total">    0.43    0.43</time>
   <energy>
    <i name="e_fr_energy">     -8.16569779 </i>
    <i name="e_wo_entrp">     -8.16569779 </i>
    <i name="e_0_energy">     -8.16569779 </i>
   </energy>
  </scstep>
  <scstep>
   <time name="dav">    0.26    0.26</time>
   <time name="total">    0.26    0.26</time>
   <energy>
    <i name="e_fr_energy">     -8.16569779 </i>
    <i name="e_wo_entrp">     -8.16569779 </i>
    <i name="e_0_energy">     -8.16569779 </i>
   </energy>
  </scstep>
  <scstep>
   <time name="dav">    0.32    0.32</time>
   <time name="total">    0.36    0.37</time>
   <energy>
    <i name="e_fr_energy">     -8.16569779 </i>
    <i name="e_wo_entrp">     -8.16569779 </i>
    <i name="e_0_energy">     -8.16569779 </i>
   </energy>
  </scstep>
  <scstep>
   <time name="dav">    0.60    0.60</time>
   <time name="total">    0.92    0.92</time>
   <energy>
    <i name="e_fr_energy">     -8.15026699 </i>
    <i name="e_wo_entrp">     -8.15026699 </i>
    <i name="e_0_energy">     -8.15026699 </i>
   </energy>
  </scstep>
  <scstep>
   <time name="dav">    0.77    0.77</time>
   <time name="total">    1.09    1.09</time>
   <energy>
    <i name="e_fr_energy">     -8.12057895 </i>
    <i name="e_wo_entrp">     -8.12057895 </i>
    <i name="e_0_energy">     -8.12057895 </i>
   </energy>
  </scstep>
  <scstep>
   <time name="dav">    0.62    0.62</time>
   <time name="total">    0.95    0.95</time>
   <energy>
    <i name="e_fr_energy">     -8.11712166 </i>
    <i name="e_wo_entrp">     -8.11712166 </i>
    <i name="e_0_energy">     -8.11712166 </i>
   </energy>
  </scstep>
  <scstep>
   <time name="dav">    0.70    0.70</time>
   <time name="total">    1.02    1.02</time>
   <energy>
    <i name="e_fr_energy">     -8.11679497 </i>
    <i name="e_wo_entrp">     -8.11679497 </i>
    <i name="e_0_energy">     -8.11679497 </i>
   </energy>
  </scstep>
  <scstep>
   <time name="dav">    0.58    0.58</time>
   <time name="total">    0.90    0.90</time>
   <energy>
    <i name="e_fr_energy">     -8.11669723 </i>
    <i name="e_wo_entrp">     -8.11669723 </i>
    <i name="e_0_energy">     -8.11669723 </i>
   </energy>
  </scstep>
  <scstep>
   <time name="dav">    0.52    0.52</time>
   <time name="total">    0.85    0.85</time>
   <energy>
    <i name="e_fr_energy">     -8.11670473 </i>
    <i name="e_wo_entrp">     -8.11670473 </i>
    <i name="e_0_energy">     -8.11670473 </i>
   </energy>
  </scstep>
  <scstep>
   <time name="dav">    0.55    0.56</time>
   <time name="total">    0.85    0.85</time>
   <energy>
    <i name="alphaZ">      2.97593478 </i>
    <i name="ewald">    213.92057007 </i>
    <i name="hartreedc">   -472.85913621 </i>
    <i name="XCdc">    -92.29528062 </i>
    <i name="pawpsdc">    366.59005917 </i>
    <i name="pawaedc">   -258.81935995 </i>
    <i name="eentropy">     -0.00000000 </i>
    <i name="bandstr">    -67.52166363 </i>
    <i name="atom">    299.89217194 </i>
    <i name="e_fr_energy">     -8.11670445 </i>
    <i name="e_wo_entrp">     -8.11670445 </i>
    <i name="e_0_energy">     -8.11670445 </i>
   </energy>
  </scstep>
  <structure>
   <crystal>
    <varray name="basis" >
     <v>       4.11336655       0.00000000       0.00000000 </v>
     <v>      -2.05668327       3.56227993       0.00000000 </v>
     <v>       0.00000000       0.00000000      16.00000000 </v>
    </varray>
    <i name="volume">    234.44740948 </i>
    <varray name="rec_basis" >
     <v>       0.24310987       0.14035955       0.00000000 </v>
     <v>       0.00000000       0.28071910       0.00000000 </v>
     <v>       0.00000000       0.00000000       0.06250000 </v>
    </varray>
   </crystal>
   <varray name="positions" >
    <v>       0.66497245       0.33338196       0.44862540 </v>
    <v>       0.33502755       0.66661804       0.55137460 </v>
   </varray>
  </structure>
  <varray name="forces" >
   <v>       0.08065151      -0.00285825      -0.00511117 </v>
   <v>      -0.08065151       0.00285825       0.00511117 </v>
  </varray>
  <varray name="stress" >
   <v>      -0.05599475      -0.36433466      -0.90650652 </v>
   <v>      -0.36433472      -0.07770908       0.03208428 </v>
   <v>      -0.90650732       0.03208428      -0.21728191 </v>
  </varray>
  <energy>
   <i name="e_fr_energy">     -8.11670445 </i>
   <i name="e_wo_entrp">     -8.11670445 </i>
   <i name="e_0_energy">     -8.11670445 </i>
  </energy>
  <scstep>
   <time name="total">    0.28    0.28</time>
   <energy>
    <i name="e_fr_energy">    -45.20964228 </i>
    <i name="e_wo_entrp">    -45.20964228 </i>
    <i name="e_0_energy">    -45.20964228 </i>
   </energy>
  </scstep>
  <scstep>
   <time name="total">    0.44    0.56</time>
   <energy>
    <i name="e_fr_energy">    -54.34493273 </i>
    <i name="e_wo_entrp">    -54.34493273 </i>
    <i name="e_0_energy">    -54.34493273 </i>
   </energy>
  </scstep>
  <scstep>
   <time name="total">    0.45    0.56</time>
   <energy>
    <i name="e_fr_energy">    -54.94090326 </i>
    <i name="e_wo_entrp">    -54.94090326 </i>
    <i name="e_0_energy">    -54.94090326 </i>
   </energy>
  </scstep>
  <scstep>
   <time name="total">    0.38    0.49</time>
   <energy>
    <i name="e_fr_energy">    -54.96754331 </i>
    <i name="e_wo_entrp">    -54.96754331 </i>
    <i name="e_0_energy">    -54.96754331 </i>
   </energy>
  </scstep>
  <scstep>
   <time name="total">    0.39    0.50</time>
   <energy>
    <i name="e_fr_energy">    -54.96808314 </i>
    <i name="e_wo_entrp">    -54.96808314 </i>
    <i name="e_0_energy">    -54.96808314 </i>
   </energy>
  </scstep>
  <scstep>
   <time name="total">    0.40    0.51</time>
   <energy>
    <i name="e_fr_energy">    -54.96814470 </i>
    <i name="e_wo_entrp">    -54.96814470 </i>
    <i name="e_0_energy">    -54.96814470 </i>
   </energy>
  </scstep>
  <scstep>
   <time name="total">    0.38    0.49</time>
   <energy>
    <i name="e_fr_energy">    -54.96814787 </i>
    <i name="e_wo_entrp">    -54.96814787 </i>
    <i name="e_0_energy">    -54.96814787 </i>
   </energy>
  </scstep>
  <scstep>
   <time name="total">    0.42    0.53</time>
   <energy>
    <i name="e_fr_energy">    -54.96814843 </i>
    <i name="e_wo_entrp">    -54.96814843 </i>
    <i name="e_0_energy">    -54.96814843 </i>
   </energy>
  </scstep>
  <scstep>
   <time name="total">    0.26    0.26</time>
   <energy>
    <i name="e_fr_energy">    -44.54431077 </i>
    <i name="e_wo_entrp">    -44.54431077 </i>
    <i name="e_0_energy">    -44.54431077 </i>
   </energy>
  </scstep>
  <scstep>
   <time name="total">    0.48    0.59</time>
   <energy>
    <i name="e_fr_energy">    -54.35224820 </i>
    <i name="e_wo_entrp">    -54.35224820 </i>
    <i name="e_0_energy">    -54.35224820 </i>
   </energy>
  </scstep>
  <scstep>
   <time name="total">    0.44    0.55</time>
   <energy>
    <i name="e_fr_energy">    -54.93735263 </i>
    <i name="e_wo_entrp">    -54.93735263 </i>
    <i name="e_0_energy">    -54.93735263 </i>
   </energy>
  </scstep>
  <scstep>
   <time name="total">    0.39    0.62</time>
   <energy>
    <i name="e_fr_energy">    -54.96700034 </i>
    <i name="e_wo_entrp">    -54.96700034 </i>
    <i name="e_0_energy">    -54.96700034 </i>
   </energy>
  </scstep>
  <scstep>
   <time name="total">    0.41    0.53</time>
   <energy>
    <i name="e_fr_energy">    -54.96765373 </i>
    <i name="e_wo_entrp">    -54.96765373 </i>
    <i name="e_0_energy">    -54.96765373 </i>
   </energy>
  </scstep>
  <scstep>
   <time name="total">    0.41    0.54</time>
   <energy>
    <i name="e_fr_energy">    -54.96772663 </i>
    <i name="e_wo_entrp">    -54.96772663 </i>
    <i name="e_0_energy">    -54.96772663 </i>
   </energy>
  </scstep>
  <scstep>
   <time name="total">    0.39    0.50</time>
   <energy>
    <i name="e_fr_energy">    -54.96773008 </i>
    <i name="e_wo_entrp">    -54.96773008 </i>
    <i name="e_0_energy">    -54.96773008 </i>
   </energy>
  </scstep>
  <scstep>
   <time name="total">    0.39    0.51</time>
   <energy>
    <i name="e_fr_energy">    -54.96773062 </i>
    <i name="e_wo_entrp">    -54.96773062 </i>
    <i name="e_0_energy">    -54.96773062 </i>
   </energy>
  </scstep>
  <scstep>
   <time name="total">    0.29    0.29</time>
   <energy>
    <i name="e_fr_energy">    -53.78531792 </i>
    <i name="e_wo_entrp">    -53.78531792 </i>
    <i name="e_0_energy">    -53.78531792 </i>
   </energy>
  </scstep>
  <scstep>
   <time name="total">    0.44    0.56</time>
   <energy>
    <i name="e_fr_energy">    -55.62189815 </i>
    <i name="e_wo_entrp">    -55.62189815 </i>
    <i name="e_0_energy">    -55.62189815 </i>
   </energy>
  </scstep>
  <scstep>
   <time name="total">    0.48    0.57</time>
   <energy>
    <i name="e_fr_energy">    -56.10763409 </i>
    <i name="e_wo_entrp">    -56.10763409 </i>
    <i name="e_0_energy">    -56.10763409 </i>
   </energy>
  </scstep>
  <scstep>
   <time name="total">    0.41    0.50</time>
   <energy>
    <i name="e_fr_energy">    -56.12402814 </i>
    <i name="e_wo_entrp">    -56.12402814 </i>
    <i name="e_0_energy">    -56.12402814 </i>
   </energy>
  </scstep>
  <scstep>
   <time name="total">    0.39    0.48</time>
   <energy>
    <i name="e_fr_energy">    -56.12479231 </i>
    <i name="e_wo_entrp">    -56.12479231 </i>
    <i name="e_0_energy">    -56.12479231 </i>
   </energy>
  </scstep>
  <scstep>
   <time name="total">    0.38    0.47</time>
   <energy>
    <i name="e_fr_energy">    -56.12485483 </i>
    <i name="e_wo_entrp">    -56.12485483 </i>
    <i name="e_0_energy">    -56.12485483 </i>
   </energy>
  </scstep>
  <scstep>
   <time name="total">    0.41    0.49</time>
   <energy>
    <i name="e_fr_energy">    -56.12486123 </i>
    <i name="e_wo_entrp">    -56.12486123 </i>
    <i name="e_0_energy">    -56.12486123 </i>
   </energy>
  </scstep>
  <scstep>
   <time name="total">    0.40    0.48</time>
   <energy>
    <i name="e_fr_energy">    -56.12486198 </i>
    <i name="e_wo_entrp">    -56.12486198 </i>
    <i name="e_0_energy">    -56.12486198 </i>
   </energy>
  </scstep>
  <scstep>
   <time name="total">    1.06    1.07</time>
   <energy>
    <i name="e_fr_energy">     -2.95966707 </i>
    <i name="e_wo_entrp">     -2.95966707 </i>
    <i name="e_0_energy">     -2.95966707 </i>
   </energy>
  </scstep>
  <scstep>
   <time name="total">    1.03    1.03</time>
   <energy>
    <i name="e_fr_energy">     -3.27458611 </i>
    <i name="e_wo_entrp">     -3.27458611 </i>
    <i name="e_0_energy">     -3.27458611 </i>
   </energy>
  </scstep>
  <scstep>
   <time name="total">    1.04    1.04</time>
   <energy>
    <i name="e_fr_energy">     -3.27844651 </i>
    <i name="e_wo_entrp">     -3.27844651 </i>
    <i name="e_0_energy">     -3.27844651 </i>
   </energy>
  </scstep>
  <scstep>
   <time name="total">    1.04    1.04</time>
   <energy>
    <i name="e_fr_energy">     -3.27854350 </i>
    <i name="e_wo_entrp">     -3.27854350 </i>
    <i name="e_0_energy">     -3.27854350 </i>
   </energy>
  </scstep>
  <scstep>
   <time name="total">    1.05    1.05</time>
   <energy>
    <i name="e_fr_energy">     -3.27854863 </i>
    <i name="e_wo_entrp">     -3.27854863 </i>
    <i name="e_0_energy">     -3.27854863 </i>
   </energy>
  </scstep>
  <scstep>
   <time name="total">    1.06    1.06</time>
   <energy>
    <i name="e_fr_energy">     -3.27854900 </i>
    <i name="e_wo_entrp">     -3.27854900 </i>
    <i name="e_0_energy">     -3.27854900 </i>
   </energy>
  </scstep>
  <scstep>
   <time name="total">    1.05    1.05</time>
   <energy>
    <i name="e_fr_energy">     -2.96480837 </i>
    <i name="e_wo_entrp">     -2.96480837 </i>
    <i name="e_0_energy">     -2.96480837 </i>
   </energy>
  </scstep>
  <scstep>
   <time name="total">    1.02    1.02</time>
   <energy>
    <i name="e_fr_energy">     -3.27478049 </i>
    <i name="e_wo_entrp">     -3.27478049 </i>
    <i name="e_0_energy">     -3.27478049 </i>
   </energy>
  </scstep>
  <scstep>
   <time name="total">    1.04    1.04</time>
   <energy>
    <i name="e_fr_energy">     -3.27855398 </i>
    <i name="e_wo_entrp">     -3.27855398 </i>
    <i name="e_0_energy">     -3.27855398 </i>
   </energy>
  </scstep>
  <scstep>
   <time name="total">    1.05    1.05</time>
   <energy>
    <i name="e_fr_energy">     -3.27864889 </i>
    <i name="e_wo_entrp">     -3.27864889 </i>
    <i name="e_0_energy">     -3.27864889 </i>
   </energy>
  </scstep>
  <scstep>
   <time name="total">    1.06    1.06</time>
   <energy>
    <i name="e_fr_energy">     -3.27865416 </i>
    <i name="e_wo_entrp">     -3.27865416 </i>
    <i name="e_0_energy">     -3.27865416 </i>
   </energy>
  </scstep>
  <scstep>
   <time name="total">    1.05    1.05</time>
   <energy>
    <i name="e_fr_energy">     -3.27865450 </i>
    <i name="e_wo_entrp">     -3.27865450 </i>
    <i name="e_0_energy">     -3.27865450 </i>
   </energy>
  </scstep>
  <scstep>
   <time name="total">    1.05    1.07</time>
   <energy>
    <i name="e_fr_energy">     -1.02537552 </i>
    <i name="e_wo_entrp">     -1.02537552 </i>
    <i name="e_0_energy">     -1.02537552 </i>
   </energy>
  </scstep>
  <scstep>
   <time name="total">    1.05    1.05</time>
   <energy>
    <i name="e_fr_energy">     -1.31332190 </i>
    <i name="e_wo_entrp">     -1.31332190 </i>
    <i name="e_0_energy">     -1.31332190 </i>
   </energy>
  </scstep>
  <scstep>
   <time name="total">    1.03    1.03</time>
   <energy>
    <i name="e_fr_energy">     -1.31718825 </i>
    <i name="e_wo_entrp">     -1.31718825 </i>
    <i name="e_0_energy">     -1.31718825 </i>
   </energy>
  </scstep>
  <scstep>
   <time name="total">    1.03    1.03</time>
   <energy>
    <i name="e_fr_energy">     -1.31726065 </i>
    <i name="e_wo_entrp">     -1.31726065 </i>
    <i name="e_0_energy">     -1.31726065 </i>
   </energy>
  </scstep>
  <scstep>
   <time name="total">    1.04    1.04</time>
   <energy>
    <i name="e_fr_energy">     -1.31726505 </i>
    <i name="e_wo_entrp">     -1.31726505 </i>
    <i name="e_0_energy">     -1.31726505 </i>
   </energy>
  </scstep>
  <scstep>
   <time name="total">    1.02    1.03</time>
   <energy>
    <i name="e_fr_energy">     -1.31726536 </i>
    <i name="e_wo_entrp">     -1.31726536 </i>
    <i name="e_0_energy">     -1.31726536 </i>
   </energy>
  </scstep>
  <varray name="dielectric_ipa" >
   <v>       6.06095770       0.04424032       0.02705048 </v>
   <v>       0.04424029       6.06112069      -0.00064630 </v>
   <v>       0.02705042      -0.00064619       3.03340604 </v>
  </varray>
  <kpoints>
   <generation param="Gamma">
    <v type="int" name="divisions">      11       11        1 </v>
    <v name="usershift">      0.00000000       0.00000000       0.00000000 </v>
    <v name="genvec1">      0.09090909       0.00000000       0.00000000 </v>
    <v name="genvec2">      0.00000000       0.09090909       0.00000000 </v>
    <v name="genvec3">      0.00000000       0.00000000       1.00000000 </v>
    <v name="shift">      0.00000000       0.00000000       0.00000000 </v>
   </generation>
   <varray name="kpointlist" >
    <v>       0.00000000       0.00000000       0.00000000 </v>
    <v>       0.09090909       0.00000000       0.00000000 </v>
    <v>       0.00000000       0.09090909       0.00000000 </v>
    <v>      -0.09090909       0.09090909       0.00000000 </v>
    <v>       0.18181818       0.00000000       0.00000000 </v>
    <v>       0.00000000       0.18181818       0.00000000 </v>
    <v>      -0.18181818       0.18181818       0.00000000 </v>
    <v>       0.27272727       0.00000000       0.00000000 </v>
    <v>       0.00000000       0.27272727       0.00000000 </v>
    <v>      -0.27272727       0.27272727       0.00000000 </v>
    <v>       0.36363636       0.00000000       0.00000000 </v>
    <v>       0.00000000       0.36363636       0.00000000 </v>
    <v>      -0.36363636       0.36363636       0.00000000 </v>
    <v>       0.45454545       0.00000000       0.00000000 </v>
    <v>       0.00000000       0.45454545       0.00000000 </v>
    <v>      -0.45454545       0.45454545       0.00000000 </v>
    <v>       0.09090909       0.09090909       0.00000000 </v>
    <v>      -0.09090909       0.18181818       0.00000000 </v>
    <v>      -0.18181818       0.09090909       0.00000000 </v>
    <v>       0.18181818       0.09090909       0.00000000 </v>
    <v>      -0.09090909       0.27272727       0.00000000 </v>
    <v>      -0.27272727       0.18181818       0.00000000 </v>
    <v>      -0.18181818       0.27272727       0.00000000 </v>
    <v>       0.09090909       0.18181818       0.00000000 </v>
    <v>       0.27272727      -0.09090909       0.00000000 </v>
    <v>       0.27272727       0.09090909       0.00000000 </v>
    <v>      -0.09090909       0.36363636       0.00000000 </v>
    <v>      -0.36363636       0.27272727       0.00000000 </v>
    <v>      -0.27272727       0.36363636       0.00000000 </v>
    <v>       0.09090909       0.27272727       0.00000000 </v>
    <v>       0.36363636      -0.09090909       0.00000000 </v>
    <v>       0.36363636       0.09090909       0.00000000 </v>
    <v>      -0.09090909       0.45454545       0.00000000 </v>
    <v>      -0.45454545       0.36363636       0.00000000 </v>
    <v>      -0.36363636       0.45454545       0.00000000 </v>
    <v>       0.09090909       0.36363636       0.00000000 </v>
    <v>       0.45454545      -0.09090909       0.00000000 </v>
    <v>       0.45454545       0.09090909       0.00000000 </v>
    <v>      -0.09090909      -0.45454545       0.00000000 </v>
    <v>       0.45454545       0.45454545       0.00000000 </v>
    <v>       0.18181818       0.18181818       0.00000000 </v>
    <v>      -0.18181818       0.36363636       0.00000000 </v>
    <v>      -0.36363636       0.18181818       0.00000000 </v>
    <v>       0.27272727       0.18181818       0.00000000 </v>
    <v>      -0.18181818       0.45454545       0.00000000 </v>
    <v>      -0.45454545       0.27272727       0.00000000 </v>
    <v>      -0.27272727       0.45454545       0.00000000 </v>
    <v>       0.18181818       0.27272727       0.00000000 </v>
    <v>       0.45454545      -0.18181818       0.00000000 </v>
    <v>       0.36363636       0.18181818       0.00000000 </v>
    <v>      -0.18181818      -0.45454545       0.00000000 </v>
    <v>       0.45454545       0.36363636       0.00000000 </v>
    <v>      -0.36363636      -0.45454545       0.00000000 </v>
    <v>       0.18181818       0.36363636       0.00000000 </v>
    <v>      -0.45454545      -0.18181818       0.00000000 </v>
    <v>       0.27272727       0.27272727       0.00000000 </v>
    <v>      -0.27272727      -0.45454545       0.00000000 </v>
    <v>       0.45454545       0.27272727       0.00000000 </v>
    <v>       0.36363636       0.27272727       0.00000000 </v>
    <v>      -0.27272727      -0.36363636       0.00000000 </v>
    <v>       0.36363636       0.36363636       0.00000000 </v>
   </varray>
   <varray name="weights" >
    <v>       0.00826446 </v>
    <v>       0.01652893 </v>
    <v>       0.01652893 </v>
    <v>       0.01652893 </v>
    <v>       0.01652893 </v>
    <v>       0.01652893 </v>
    <v>       0.01652893 </v>
    <v>       0.01652893 </v>
    <v>       0.01652893 </v>
    <v>       0.01652893 </v>
    <v>       0.01652893 </v>
    <v>       0.01652893 </v>
    <v>       0.01652893 </v>
    <v>       0.01652893 </v>
    <v>       0.01652893 </v>
    <v>       0.01652893 </v>
    <v>       0.01652893 </v>
    <v>       0.01652893 </v>
    <v>       0.01652893 </v>
    <v>       0.01652893 </v>
    <v>       0.01652893 </v>
    <v>       0.01652893 </v>
    <v>       0.01652893 </v>
    <v>       0.01652893 </v>
    <v>       0.01652893 </v>
    <v>       0.01652893 </v>
    <v>       0.01652893 </v>
    <v>       0.01652893 </v>
    <v>       0.01652893 </v>
    <v>       0.01652893 </v>
    <v>       0.01652893 </v>
    <v>       0.01652893 </v>
    <v>       0.01652893 </v>
    <v>       0.01652893 </v>
    <v>       0.01652893 </v>
    <v>       0.01652893 </v>
    <v>       0.01652893 </v>
    <v>       0.01652893 </v>
    <v>       0.01652893 </v>
    <v>       0.01652893 </v>
    <v>       0.01652893 </v>
    <v>       0.01652893 </v>
    <v>       0.01652893 </v>
    <v>       0.01652893 </v>
    <v>       0.01652893 </v>
    <v>       0.01652893 </v>
    <v>       0.01652893 </v>
    <v>       0.01652893 </v>
    <v>       0.01652893 </v>
    <v>       0.01652893 </v>
    <v>       0.01652893 </v>
    <v>       0.01652893 </v>
    <v>       0.01652893 </v>
    <v>       0.01652893 </v>
    <v>       0.01652893 </v>
    <v>       0.01652893 </v>
    <v>       0.01652893 </v>
    <v>       0.01652893 </v>
    <v>       0.01652893 </v>
    <v>       0.01652893 </v>
    <v>       0.01652893 </v>
   </varray>
  </kpoints>
  <scstep>
   <time name="total">    1.05    1.05</time>
   <energy>
    <i name="e_fr_energy">     -2.95966707 </i>
    <i name="e_wo_entrp">     -2.95966707 </i>
    <i name="e_0_energy">     -2.95966707 </i>
   </energy>
  </scstep>
  <scstep>
   <time name="total">    1.06    1.06</time>
   <energy>
    <i name="e_fr_energy">     -3.27458611 </i>
    <i name="e_wo_entrp">     -3.27458611 </i>
    <i name="e_0_energy">     -3.27458611 </i>
   </energy>
  </scstep>
  <scstep>
   <time name="total">    1.09    1.09</time>
   <energy>
    <i name="e_fr_energy">     -3.21389477 </i>
    <i name="e_wo_entrp">     -3.21389477 </i>
    <i name="e_0_energy">     -3.21389477 </i>
   </energy>
  </scstep>
  <scstep>
   <time name="total">    1.09    1.09</time>
   <energy>
    <i name="e_fr_energy">     -3.21696936 </i>
    <i name="e_wo_entrp">     -3.21696936 </i>
    <i name="e_0_energy">     -3.21696936 </i>
   </energy>
  </scstep>
  <scstep>
   <time name="total">    1.26    1.26</time>
   <energy>
    <i name="e_fr_energy">     -3.23762424 </i>
    <i name="e_wo_entrp">     -3.23762424 </i>
    <i name="e_0_energy">     -3.23762424 </i>
   </energy>
  </scstep>
  <scstep>
   <time name="total">    1.23    1.24</time>
   <energy>
    <i name="e_fr_energy">     -3.26089153 </i>
    <i name="e_wo_entrp">     -3.26089153 </i>
    <i name="e_0_energy">     -3.26089153 </i>
   </energy>
  </scstep>
  <scstep>
   <time name="total">    1.13    1.13</time>
   <energy>
    <i name="e_fr_energy">     -3.26724666 </i>
    <i name="e_wo_entrp">     -3.26724666 </i>
    <i name="e_0_energy">     -3.26724666 </i>
   </energy>
  </scstep>
  <scstep>
   <time name="total">    1.10    1.10</time>
   <energy>
    <i name="e_fr_energy">     -3.27083083 </i>
    <i name="e_wo_entrp">     -3.27083083 </i>
    <i name="e_0_energy">     -3.27083083 </i>
   </energy>
  </scstep>
  <scstep>
   <time name="total">    1.11    1.11</time>
   <energy>
    <i name="e_fr_energy">     -3.27287175 </i>
    <i name="e_wo_entrp">     -3.27287175 </i>
    <i name="e_0_energy">     -3.27287175 </i>
   </energy>
  </scstep>
  <scstep>
   <time name="total">    1.11    1.11</time>
   <energy>
    <i name="e_fr_energy">     -3.27305131 </i>
    <i name="e_wo_entrp">     -3.27305131 </i>
    <i name="e_0_energy">     -3.27305131 </i>
   </energy>
  </scstep>
  <scstep>
   <time name="total">    1.10    1.10</time>
   <energy>
    <i name="e_fr_energy">     -3.27319932 </i>
    <i name="e_wo_entrp">     -3.27319932 </i>
    <i name="e_0_energy">     -3.27319932 </i>
   </energy>
  </scstep>
  <scstep>
   <time name="total">    1.11    1.11</time>
   <energy>
    <i name="e_fr_energy">     -3.27336856 </i>
    <i name="e_wo_entrp">     -3.27336856 </i>
    <i name="e_0_energy">     -3.27336856 </i>
   </energy>
  </scstep>
  <scstep>
   <time name="total">    1.10    1.10</time>
   <energy>
    <i name="e_fr_energy">     -3.27332779 </i>
    <i name="e_wo_entrp">     -3.27332779 </i>
    <i name="e_0_energy">     -3.27332779 </i>
   </energy>
  </scstep>
  <scstep>
   <time name="total">    1.11    1.11</time>
   <energy>
    <i name="e_fr_energy">     -3.27332445 </i>
    <i name="e_wo_entrp">     -3.27332445 </i>
    <i name="e_0_energy">     -3.27332445 </i>
   </energy>
  </scstep>
  <scstep>
   <time name="total">    1.12    1.12</time>
   <energy>
    <i name="e_fr_energy">     -3.27333054 </i>
    <i name="e_wo_entrp">     -3.27333054 </i>
    <i name="e_0_energy">     -3.27333054 </i>
   </energy>
  </scstep>
  <scstep>
   <time name="total">    1.18    1.18</time>
   <energy>
    <i name="e_fr_energy">     -3.27332963 </i>
    <i name="e_wo_entrp">     -3.27332963 </i>
    <i name="e_0_energy">     -3.27332963 </i>
   </energy>
  </scstep>
  <kpoints>
   <generation param="Gamma">
    <v type="int" name="divisions">      11       11        1 </v>
    <v name="usershift">      0.00000000       0.00000000       0.00000000 </v>
    <v name="genvec1">      0.09090909       0.00000000       0.00000000 </v>
    <v name="genvec2">      0.00000000       0.09090909       0.00000000 </v>
    <v name="genvec3">      0.00000000       0.00000000       1.00000000 </v>
    <v name="shift">      0.00000000       0.00000000       0.00000000 </v>
   </generation>
   <varray name="kpointlist" >
    <v>       0.00000000       0.00000000       0.00000000 </v>
    <v>       0.09090909       0.00000000       0.00000000 </v>
    <v>       0.00000000       0.09090909       0.00000000 </v>
    <v>      -0.09090909       0.09090909       0.00000000 </v>
    <v>       0.18181818       0.00000000       0.00000000 </v>
    <v>       0.00000000       0.18181818       0.00000000 </v>
    <v>      -0.18181818       0.18181818       0.00000000 </v>
    <v>       0.27272727       0.00000000       0.00000000 </v>
    <v>       0.00000000       0.27272727       0.00000000 </v>
    <v>      -0.27272727       0.27272727       0.00000000 </v>
    <v>       0.36363636       0.00000000       0.00000000 </v>
    <v>       0.00000000       0.36363636       0.00000000 </v>
    <v>      -0.36363636       0.36363636       0.00000000 </v>
    <v>       0.45454545       0.00000000       0.00000000 </v>
    <v>       0.00000000       0.45454545       0.00000000 </v>
    <v>      -0.45454545       0.45454545       0.00000000 </v>
    <v>       0.09090909       0.09090909       0.00000000 </v>
    <v>      -0.09090909       0.18181818       0.00000000 </v>
    <v>      -0.18181818       0.09090909       0.00000000 </v>
    <v>       0.18181818       0.09090909       0.00000000 </v>
    <v>      -0.09090909       0.27272727       0.00000000 </v>
    <v>      -0.27272727       0.18181818       0.00000000 </v>
    <v>      -0.18181818       0.27272727       0.00000000 </v>
    <v>       0.09090909       0.18181818       0.00000000 </v>
    <v>       0.27272727      -0.09090909       0.00000000 </v>
    <v>       0.27272727       0.09090909       0.00000000 </v>
    <v>      -0.09090909       0.36363636       0.00000000 </v>
    <v>      -0.36363636       0.27272727       0.00000000 </v>
    <v>      -0.27272727       0.36363636       0.00000000 </v>
    <v>       0.09090909       0.27272727       0.00000000 </v>
    <v>       0.36363636      -0.09090909       0.00000000 </v>
    <v>       0.36363636       0.09090909       0.00000000 </v>
    <v>      -0.09090909       0.45454545       0.00000000 </v>
    <v>      -0.45454545       0.36363636       0.00000000 </v>
    <v>      -0.36363636       0.45454545       0.00000000 </v>
    <v>       0.09090909       0.36363636       0.00000000 </v>
    <v>       0.45454545      -0.09090909       0.00000000 </v>
    <v>       0.45454545       0.09090909       0.00000000 </v>
    <v>      -0.09090909      -0.45454545       0.00000000 </v>
    <v>       0.45454545       0.45454545       0.00000000 </v>
    <v>       0.18181818       0.18181818       0.00000000 </v>
    <v>      -0.18181818       0.36363636       0.00000000 </v>
    <v>      -0.36363636       0.18181818       0.00000000 </v>
    <v>       0.27272727       0.18181818       0.00000000 </v>
    <v>      -0.18181818       0.45454545       0.00000000 </v>
    <v>      -0.45454545       0.27272727       0.00000000 </v>
    <v>      -0.27272727       0.45454545       0.00000000 </v>
    <v>       0.18181818       0.27272727       0.00000000 </v>
    <v>       0.45454545      -0.18181818       0.00000000 </v>
    <v>       0.36363636       0.18181818       0.00000000 </v>
    <v>      -0.18181818      -0.45454545       0.00000000 </v>
    <v>       0.45454545       0.36363636       0.00000000 </v>
    <v>      -0.36363636      -0.45454545       0.00000000 </v>
    <v>       0.18181818       0.36363636       0.00000000 </v>
    <v>      -0.45454545      -0.18181818       0.00000000 </v>
    <v>       0.27272727       0.27272727       0.00000000 </v>
    <v>      -0.27272727      -0.45454545       0.00000000 </v>
    <v>       0.45454545       0.27272727       0.00000000 </v>
    <v>       0.36363636       0.27272727       0.00000000 </v>
    <v>      -0.27272727      -0.36363636       0.00000000 </v>
    <v>       0.36363636       0.36363636       0.00000000 </v>
   </varray>
   <varray name="weights" >
    <v>       0.00826446 </v>
    <v>       0.01652893 </v>
    <v>       0.01652893 </v>
    <v>       0.01652893 </v>
    <v>       0.01652893 </v>
    <v>       0.01652893 </v>
    <v>       0.01652893 </v>
    <v>       0.01652893 </v>
    <v>       0.01652893 </v>
    <v>       0.01652893 </v>
    <v>       0.01652893 </v>
    <v>       0.01652893 </v>
    <v>       0.01652893 </v>
    <v>       0.01652893 </v>
    <v>       0.01652893 </v>
    <v>       0.01652893 </v>
    <v>       0.01652893 </v>
    <v>       0.01652893 </v>
    <v>       0.01652893 </v>
    <v>       0.01652893 </v>
    <v>       0.01652893 </v>
    <v>       0.01652893 </v>
    <v>       0.01652893 </v>
    <v>       0.01652893 </v>
    <v>       0.01652893 </v>
    <v>       0.01652893 </v>
    <v>       0.01652893 </v>
    <v>       0.01652893 </v>
    <v>       0.01652893 </v>
    <v>       0.01652893 </v>
    <v>       0.01652893 </v>
    <v>       0.01652893 </v>
    <v>       0.01652893 </v>
    <v>       0.01652893 </v>
    <v>       0.01652893 </v>
    <v>       0.01652893 </v>
    <v>       0.01652893 </v>
    <v>       0.01652893 </v>
    <v>       0.01652893 </v>
    <v>       0.01652893 </v>
    <v>       0.01652893 </v>
    <v>       0.01652893 </v>
    <v>       0.01652893 </v>
    <v>       0.01652893 </v>
    <v>       0.01652893 </v>
    <v>       0.01652893 </v>
    <v>       0.01652893 </v>
    <v>       0.01652893 </v>
    <v>       0.01652893 </v>
    <v>       0.01652893 </v>
    <v>       0.01652893 </v>
    <v>       0.01652893 </v>
    <v>       0.01652893 </v>
    <v>       0.01652893 </v>
    <v>       0.01652893 </v>
    <v>       0.01652893 </v>
    <v>       0.01652893 </v>
    <v>       0.01652893 </v>
    <v>       0.01652893 </v>
    <v>       0.01652893 </v>
    <v>       0.01652893 </v>
   </varray>
  </kpoints>
  <scstep>
   <time name="total">    1.06    1.06</time>
   <energy>
    <i name="e_fr_energy">     -2.96480837 </i>
    <i name="e_wo_entrp">     -2.96480837 </i>
    <i name="e_0_energy">     -2.96480837 </i>
   </energy>
  </scstep>
  <scstep>
   <time name="total">    1.08    1.08</time>
   <energy>
    <i name="e_fr_energy">     -3.27478049 </i>
    <i name="e_wo_entrp">     -3.27478049 </i>
    <i name="e_0_energy">     -3.27478049 </i>
   </energy>
  </scstep>
  <scstep>
   <time name="total">    1.12    1.12</time>
   <energy>
    <i name="e_fr_energy">     -3.21413836 </i>
    <i name="e_wo_entrp">     -3.21413836 </i>
    <i name="e_0_energy">     -3.21413836 </i>
   </energy>
  </scstep>
  <scstep>
   <time name="total">    1.26    1.30</time>
   <energy>
    <i name="e_fr_energy">     -3.22448453 </i>
    <i name="e_wo_entrp">     -3.22448453 </i>
    <i name="e_0_energy">     -3.22448453 </i>
   </energy>
  </scstep>
  <scstep>
   <time name="total">    1.23    1.23</time>
   <energy>
    <i name="e_fr_energy">     -3.25127678 </i>
    <i name="e_wo_entrp">     -3.25127678 </i>
    <i name="e_0_energy">     -3.25127678 </i>
   </energy>
  </scstep>
  <scstep>
   <time name="total">    1.14    1.14</time>
   <energy>
    <i name="e_fr_energy">     -3.26641704 </i>
    <i name="e_wo_entrp">     -3.26641704 </i>
    <i name="e_0_energy">     -3.26641704 </i>
   </energy>
  </scstep>
  <scstep>
   <time name="total">    1.11    1.11</time>
   <energy>
    <i name="e_fr_energy">     -3.26789350 </i>
    <i name="e_wo_entrp">     -3.26789350 </i>
    <i name="e_0_energy">     -3.26789350 </i>
   </energy>
  </scstep>
  <scstep>
   <time name="total">    1.10    1.14</time>
   <energy>
    <i name="e_fr_energy">     -3.27147737 </i>
    <i name="e_wo_entrp">     -3.27147737 </i>
    <i name="e_0_energy">     -3.27147737 </i>
   </energy>
  </scstep>
  <scstep>
   <time name="total">    1.09    1.09</time>
   <energy>
    <i name="e_fr_energy">     -3.27337855 </i>
    <i name="e_wo_entrp">     -3.27337855 </i>
    <i name="e_0_energy">     -3.27337855 </i>
   </energy>
  </scstep>
  <scstep>
   <time name="total">    1.12    1.12</time>
   <energy>
    <i name="e_fr_energy">     -3.27335051 </i>
    <i name="e_wo_entrp">     -3.27335051 </i>
    <i name="e_0_energy">     -3.27335051 </i>
   </energy>
  </scstep>
  <scstep>
   <time name="total">    1.09    1.09</time>
   <energy>
    <i name="e_fr_energy">     -3.27350615 </i>
    <i name="e_wo_entrp">     -3.27350615 </i>
    <i name="e_0_energy">     -3.27350615 </i>
   </energy>
  </scstep>
  <scstep>
   <time name="total">    1.08    1.08</time>
   <energy>
    <i name="e_fr_energy">     -3.27378663 </i>
    <i name="e_wo_entrp">     -3.27378663 </i>
    <i name="e_0_energy">     -3.27378663 </i>
   </energy>
  </scstep>
  <scstep>
   <time name="total">    1.08    1.09</time>
   <energy>
    <i name="e_fr_energy">     -3.27382216 </i>
    <i name="e_wo_entrp">     -3.27382216 </i>
    <i name="e_0_energy">     -3.27382216 </i>
   </energy>
  </scstep>
  <scstep>
   <time name="total">    1.08    1.08</time>
   <energy>
    <i name="e_fr_energy">     -3.27382244 </i>
    <i name="e_wo_entrp">     -3.27382244 </i>
    <i name="e_0_energy">     -3.27382244 </i>
   </energy>
  </scstep>
  <kpoints>
   <generation param="Gamma">
    <v type="int" name="divisions">      11       11        1 </v>
    <v name="usershift">      0.00000000       0.00000000       0.00000000 </v>
    <v name="genvec1">      0.09090909       0.00000000       0.00000000 </v>
    <v name="genvec2">      0.00000000       0.09090909       0.00000000 </v>
    <v name="genvec3">      0.00000000       0.00000000       1.00000000 </v>
    <v name="shift">      0.00000000       0.00000000       0.00000000 </v>
   </generation>
   <varray name="kpointlist" >
    <v>       0.00000000       0.00000000       0.00000000 </v>
    <v>       0.09090909       0.00000000       0.00000000 </v>
    <v>       0.00000000       0.09090909       0.00000000 </v>
    <v>      -0.09090909       0.09090909       0.00000000 </v>
    <v>       0.18181818       0.00000000       0.00000000 </v>
    <v>       0.00000000       0.18181818       0.00000000 </v>
    <v>      -0.18181818       0.18181818       0.00000000 </v>
    <v>       0.27272727       0.00000000       0.00000000 </v>
    <v>       0.00000000       0.27272727       0.00000000 </v>
    <v>      -0.27272727       0.27272727       0.00000000 </v>
    <v>       0.36363636       0.00000000       0.00000000 </v>
    <v>       0.00000000       0.36363636       0.00000000 </v>
    <v>      -0.36363636       0.36363636       0.00000000 </v>
    <v>       0.45454545       0.00000000       0.00000000 </v>
    <v>       0.00000000       0.45454545       0.00000000 </v>
    <v>      -0.45454545       0.45454545       0.00000000 </v>
    <v>       0.09090909       0.09090909       0.00000000 </v>
    <v>      -0.09090909       0.18181818       0.00000000 </v>
    <v>      -0.18181818       0.09090909       0.00000000 </v>
    <v>       0.18181818       0.09090909       0.00000000 </v>
    <v>      -0.09090909       0.27272727       0.00000000 </v>
    <v>      -0.27272727       0.18181818       0.00000000 </v>
    <v>      -0.18181818       0.27272727       0.00000000 </v>
    <v>       0.09090909       0.18181818       0.00000000 </v>
    <v>       0.27272727      -0.09090909       0.00000000 </v>
    <v>       0.27272727       0.09090909       0.00000000 </v>
    <v>      -0.09090909       0.36363636       0.00000000 </v>
    <v>      -0.36363636       0.27272727       0.00000000 </v>
    <v>      -0.27272727       0.36363636       0.00000000 </v>
    <v>       0.09090909       0.27272727       0.00000000 </v>
    <v>       0.36363636      -0.09090909       0.00000000 </v>
    <v>       0.36363636       0.09090909       0.00000000 </v>
    <v>      -0.09090909       0.45454545       0.00000000 </v>
    <v>      -0.45454545       0.36363636       0.00000000 </v>
    <v>      -0.36363636       0.45454545       0.00000000 </v>
    <v>       0.09090909       0.36363636       0.00000000 </v>
    <v>       0.45454545      -0.09090909       0.00000000 </v>
    <v>       0.45454545       0.09090909       0.00000000 </v>
    <v>      -0.09090909      -0.45454545       0.00000000 </v>
    <v>       0.45454545       0.45454545       0.00000000 </v>
    <v>       0.18181818       0.18181818       0.00000000 </v>
    <v>      -0.18181818       0.36363636       0.00000000 </v>
    <v>      -0.36363636       0.18181818       0.00000000 </v>
    <v>       0.27272727       0.18181818       0.00000000 </v>
    <v>      -0.18181818       0.45454545       0.00000000 </v>
    <v>      -0.45454545       0.27272727       0.00000000 </v>
    <v>      -0.27272727       0.45454545       0.00000000 </v>
    <v>       0.18181818       0.27272727       0.00000000 </v>
    <v>       0.45454545      -0.18181818       0.00000000 </v>
    <v>       0.36363636       0.18181818       0.00000000 </v>
    <v>      -0.18181818      -0.45454545       0.00000000 </v>
    <v>       0.45454545       0.36363636       0.00000000 </v>
    <v>      -0.36363636      -0.45454545       0.00000000 </v>
    <v>       0.18181818       0.36363636       0.00000000 </v>
    <v>      -0.45454545      -0.18181818       0.00000000 </v>
    <v>       0.27272727       0.27272727       0.00000000 </v>
    <v>      -0.27272727      -0.45454545       0.00000000 </v>
    <v>       0.45454545       0.27272727       0.00000000 </v>
    <v>       0.36363636       0.27272727       0.00000000 </v>
    <v>      -0.27272727      -0.36363636       0.00000000 </v>
    <v>       0.36363636       0.36363636       0.00000000 </v>
   </varray>
   <varray name="weights" >
    <v>       0.00826446 </v>
    <v>       0.01652893 </v>
    <v>       0.01652893 </v>
    <v>       0.01652893 </v>
    <v>       0.01652893 </v>
    <v>       0.01652893 </v>
    <v>       0.01652893 </v>
    <v>       0.01652893 </v>
    <v>       0.01652893 </v>
    <v>       0.01652893 </v>
    <v>       0.01652893 </v>
    <v>       0.01652893 </v>
    <v>       0.01652893 </v>
    <v>       0.01652893 </v>
    <v>       0.01652893 </v>
    <v>       0.01652893 </v>
    <v>       0.01652893 </v>
    <v>       0.01652893 </v>
    <v>       0.01652893 </v>
    <v>       0.01652893 </v>
    <v>       0.01652893 </v>
    <v>       0.01652893 </v>
    <v>       0.01652893 </v>
    <v>       0.01652893 </v>
    <v>       0.01652893 </v>
    <v>       0.01652893 </v>
    <v>       0.01652893 </v>
    <v>       0.01652893 </v>
    <v>       0.01652893 </v>
    <v>       0.01652893 </v>
    <v>       0.01652893 </v>
    <v>       0.01652893 </v>
    <v>       0.01652893 </v>
    <v>       0.01652893 </v>
    <v>       0.01652893 </v>
    <v>       0.01652893 </v>
    <v>       0.01652893 </v>
    <v>       0.01652893 </v>
    <v>       0.01652893 </v>
    <v>       0.01652893 </v>
    <v>       0.01652893 </v>
    <v>       0.01652893 </v>
    <v>       0.01652893 </v>
    <v>       0.01652893 </v>
    <v>       0.01652893 </v>
    <v>       0.01652893 </v>
    <v>       0.01652893 </v>
    <v>       0.01652893 </v>
    <v>       0.01652893 </v>
    <v>       0.01652893 </v>
    <v>       0.01652893 </v>
    <v>       0.01652893 </v>
    <v>       0.01652893 </v>
    <v>       0.01652893 </v>
    <v>       0.01652893 </v>
    <v>       0.01652893 </v>
    <v>       0.01652893 </v>
    <v>       0.01652893 </v>
    <v>       0.01652893 </v>
    <v>       0.01652893 </v>
    <v>       0.01652893 </v>
   </varray>
  </kpoints>
  <scstep>
   <time name="total">    1.25    1.25</time>
   <energy>
    <i name="e_fr_energy">     -1.02537552 </i>
    <i name="e_wo_entrp">     -1.02537552 </i>
    <i name="e_0_energy">     -1.02537552 </i>
   </energy>
  </scstep>
  <scstep>
   <time name="total">    1.30    1.31</time>
   <energy>
    <i name="e_fr_energy">     -1.31332190 </i>
    <i name="e_wo_entrp">     -1.31332190 </i>
    <i name="e_0_energy">     -1.31332190 </i>
   </energy>
  </scstep>
  <scstep>
   <time name="total">    1.11    1.11</time>
   <energy>
    <i name="e_fr_energy">     -0.37859679 </i>
    <i name="e_wo_entrp">     -0.37859679 </i>
    <i name="e_0_energy">     -0.37859679 </i>
   </energy>
  </scstep>
  <scstep>
   <time name="total">    1.12    1.12</time>
   <energy>
    <i name="e_fr_energy">     -0.27667943 </i>
    <i name="e_wo_entrp">     -0.27667943 </i>
    <i name="e_0_energy">     -0.27667943 </i>
   </energy>
  </scstep>
  <scstep>
   <time name="total">    1.08    1.08</time>
   <energy>
    <i name="e_fr_energy">     -0.26969675 </i>
    <i name="e_wo_entrp">     -0.26969675 </i>
    <i name="e_0_energy">     -0.26969675 </i>
   </energy>
  </scstep>
  <scstep>
   <time name="total">    1.03    1.03</time>
   <energy>
    <i name="e_fr_energy">     -0.27031927 </i>
    <i name="e_wo_entrp">     -0.27031927 </i>
    <i name="e_0_energy">     -0.27031927 </i>
   </energy>
  </scstep>
  <scstep>
   <time name="total">    1.04    1.04</time>
   <energy>
    <i name="e_fr_energy">     -0.27140335 </i>
    <i name="e_wo_entrp">     -0.27140335 </i>
    <i name="e_0_energy">     -0.27140335 </i>
   </energy>
  </scstep>
  <scstep>
   <time name="total">    1.06    1.06</time>
   <energy>
    <i name="e_fr_energy">     -0.27149955 </i>
    <i name="e_wo_entrp">     -0.27149955 </i>
    <i name="e_0_energy">     -0.27149955 </i>
   </energy>
  </scstep>
  <scstep>
   <time name="total">    1.05    1.05</time>
   <energy>
    <i name="e_fr_energy">     -0.27159175 </i>
    <i name="e_wo_entrp">     -0.27159175 </i>
    <i name="e_0_energy">     -0.27159175 </i>
   </energy>
  </scstep>
  <scstep>
   <time name="total">    1.05    1.05</time>
   <energy>
    <i name="e_fr_energy">     -0.27161268 </i>
    <i name="e_wo_entrp">     -0.27161268 </i>
    <i name="e_0_energy">     -0.27161268 </i>
   </energy>
  </scstep>
  <scstep>
   <time name="total">    1.05    1.05</time>
   <energy>
    <i name="e_fr_energy">     -0.27161805 </i>
    <i name="e_wo_entrp">     -0.27161805 </i>
    <i name="e_0_energy">     -0.27161805 </i>
   </energy>
  </scstep>
  <scstep>
   <time name="total">    1.05    1.05</time>
   <energy>
    <i name="e_fr_energy">     -0.27161836 </i>
    <i name="e_wo_entrp">     -0.27161836 </i>
    <i name="e_0_energy">     -0.27161836 </i>
   </energy>
  </scstep>
  <kpoints>
   <generation param="Gamma">
    <v type="int" name="divisions">      11       11        1 </v>
    <v name="usershift">      0.00000000       0.00000000       0.00000000 </v>
    <v name="genvec1">      0.09090909       0.00000000       0.00000000 </v>
    <v name="genvec2">      0.00000000       0.09090909       0.00000000 </v>
    <v name="genvec3">      0.00000000       0.00000000       1.00000000 </v>
    <v name="shift">      0.00000000       0.00000000       0.00000000 </v>
   </generation>
   <varray name="kpointlist" >
    <v>       0.00000000       0.00000000       0.00000000 </v>
    <v>       0.09090909       0.00000000       0.00000000 </v>
    <v>       0.00000000       0.09090909       0.00000000 </v>
    <v>      -0.09090909       0.09090909       0.00000000 </v>
    <v>       0.18181818       0.00000000       0.00000000 </v>
    <v>       0.00000000       0.18181818       0.00000000 </v>
    <v>      -0.18181818       0.18181818       0.00000000 </v>
    <v>       0.27272727       0.00000000       0.00000000 </v>
    <v>       0.00000000       0.27272727       0.00000000 </v>
    <v>      -0.27272727       0.27272727       0.00000000 </v>
    <v>       0.36363636       0.00000000       0.00000000 </v>
    <v>       0.00000000       0.36363636       0.00000000 </v>
    <v>      -0.36363636       0.36363636       0.00000000 </v>
    <v>       0.45454545       0.00000000       0.00000000 </v>
    <v>       0.00000000       0.45454545       0.00000000 </v>
    <v>      -0.45454545       0.45454545       0.00000000 </v>
    <v>       0.09090909       0.09090909       0.00000000 </v>
    <v>      -0.09090909       0.18181818       0.00000000 </v>
    <v>      -0.18181818       0.09090909       0.00000000 </v>
    <v>       0.18181818       0.09090909       0.00000000 </v>
    <v>      -0.09090909       0.27272727       0.00000000 </v>
    <v>      -0.27272727       0.18181818       0.00000000 </v>
    <v>      -0.18181818       0.27272727       0.00000000 </v>
    <v>       0.09090909       0.18181818       0.00000000 </v>
    <v>       0.27272727      -0.09090909       0.00000000 </v>
    <v>       0.27272727       0.09090909       0.00000000 </v>
    <v>      -0.09090909       0.36363636       0.00000000 </v>
    <v>      -0.36363636       0.27272727       0.00000000 </v>
    <v>      -0.27272727       0.36363636       0.00000000 </v>
    <v>       0.09090909       0.27272727       0.00000000 </v>
    <v>       0.36363636      -0.09090909       0.00000000 </v>
    <v>       0.36363636       0.09090909       0.00000000 </v>
    <v>      -0.09090909       0.45454545       0.00000000 </v>
    <v>      -0.45454545       0.36363636       0.00000000 </v>
    <v>      -0.36363636       0.45454545       0.00000000 </v>
    <v>       0.09090909       0.36363636       0.00000000 </v>
    <v>       0.45454545      -0.09090909       0.00000000 </v>
    <v>       0.45454545       0.09090909       0.00000000 </v>
    <v>      -0.09090909      -0.45454545       0.00000000 </v>
    <v>       0.45454545       0.45454545       0.00000000 </v>
    <v>       0.18181818       0.18181818       0.00000000 </v>
    <v>      -0.18181818       0.36363636       0.00000000 </v>
    <v>      -0.36363636       0.18181818       0.00000000 </v>
    <v>       0.27272727       0.18181818       0.00000000 </v>
    <v>      -0.18181818       0.45454545       0.00000000 </v>
    <v>      -0.45454545       0.27272727       0.00000000 </v>
    <v>      -0.27272727       0.45454545       0.00000000 </v>
    <v>       0.18181818       0.27272727       0.00000000 </v>
    <v>       0.45454545      -0.18181818       0.00000000 </v>
    <v>       0.36363636       0.18181818       0.00000000 </v>
    <v>      -0.18181818      -0.45454545       0.00000000 </v>
    <v>       0.45454545       0.36363636       0.00000000 </v>
    <v>      -0.36363636      -0.45454545       0.00000000 </v>
    <v>       0.18181818       0.36363636       0.00000000 </v>
    <v>      -0.45454545      -0.18181818       0.00000000 </v>
    <v>       0.27272727       0.27272727       0.00000000 </v>
    <v>      -0.27272727      -0.45454545       0.00000000 </v>
    <v>       0.45454545       0.27272727       0.00000000 </v>
    <v>       0.36363636       0.27272727       0.00000000 </v>
    <v>      -0.27272727      -0.36363636       0.00000000 </v>
    <v>       0.36363636       0.36363636       0.00000000 </v>
   </varray>
   <varray name="weights" >
    <v>       0.00826446 </v>
    <v>       0.01652893 </v>
    <v>       0.01652893 </v>
    <v>       0.01652893 </v>
    <v>       0.01652893 </v>
    <v>       0.01652893 </v>
    <v>       0.01652893 </v>
    <v>       0.01652893 </v>
    <v>       0.01652893 </v>
    <v>       0.01652893 </v>
    <v>       0.01652893 </v>
    <v>       0.01652893 </v>
    <v>       0.01652893 </v>
    <v>       0.01652893 </v>
    <v>       0.01652893 </v>
    <v>       0.01652893 </v>
    <v>       0.01652893 </v>
    <v>       0.01652893 </v>
    <v>       0.01652893 </v>
    <v>       0.01652893 </v>
    <v>       0.01652893 </v>
    <v>       0.01652893 </v>
    <v>       0.01652893 </v>
    <v>       0.01652893 </v>
    <v>       0.01652893 </v>
    <v>       0.01652893 </v>
    <v>       0.01652893 </v>
    <v>       0.01652893 </v>
    <v>       0.01652893 </v>
    <v>       0.01652893 </v>
    <v>       0.01652893 </v>
    <v>       0.01652893 </v>
    <v>       0.01652893 </v>
    <v>       0.01652893 </v>
    <v>       0.01652893 </v>
    <v>       0.01652893 </v>
    <v>       0.01652893 </v>
    <v>       0.01652893 </v>
    <v>       0.01652893 </v>
    <v>       0.01652893 </v>
    <v>       0.01652893 </v>
    <v>       0.01652893 </v>
    <v>       0.01652893 </v>
    <v>       0.01652893 </v>
    <v>       0.01652893 </v>
    <v>       0.01652893 </v>
    <v>       0.01652893 </v>
    <v>       0.01652893 </v>
    <v>       0.01652893 </v>
    <v>       0.01652893 </v>
    <v>       0.01652893 </v>
    <v>       0.01652893 </v>
    <v>       0.01652893 </v>
    <v>       0.01652893 </v>
    <v>       0.01652893 </v>
    <v>       0.01652893 </v>
    <v>       0.01652893 </v>
    <v>       0.01652893 </v>
    <v>       0.01652893 </v>
    <v>       0.01652893 </v>
    <v>       0.01652893 </v>
   </varray>
  </kpoints>
  <varray name="dielectric_dft" >
   <v>       5.69329415       0.04249928       0.00184281 </v>
   <v>       0.04250079       5.69395290      -0.00005735 </v>
   <v>       0.00184295      -0.00005596       1.39581541 </v>
  </varray>
  <varray name="epsilon" >
   <v>       5.69329415       0.04249928       0.00184281 </v>
   <v>       0.04250079       5.69395290      -0.00005735 </v>
   <v>       0.00184295      -0.00005596       1.39581541 </v>
  </varray>
  <kpoints>
   <generation param="Gamma">
    <v type="int" name="divisions">      11       11        1 </v>
    <v name="usershift">      0.00000000       0.00000000       0.00000000 </v>
    <v name="genvec1">      0.09090909       0.00000000       0.00000000 </v>
    <v name="genvec2">      0.00000000       0.09090909       0.00000000 </v>
    <v name="genvec3">      0.00000000       0.00000000       1.00000000 </v>
    <v name="shift">      0.00000000       0.00000000       0.00000000 </v>
   </generation>
   <varray name="kpointlist" >
    <v>       0.00000000       0.00000000       0.00000000 </v>
    <v>       0.09090909       0.00000000       0.00000000 </v>
    <v>       0.00000000       0.09090909       0.00000000 </v>
    <v>      -0.09090909       0.09090909       0.00000000 </v>
    <v>       0.18181818       0.00000000       0.00000000 </v>
    <v>       0.00000000       0.18181818       0.00000000 </v>
    <v>      -0.18181818       0.18181818       0.00000000 </v>
    <v>       0.27272727       0.00000000       0.00000000 </v>
    <v>       0.00000000       0.27272727       0.00000000 </v>
    <v>      -0.27272727       0.27272727       0.00000000 </v>
    <v>       0.36363636       0.00000000       0.00000000 </v>
    <v>       0.00000000       0.36363636       0.00000000 </v>
    <v>      -0.36363636       0.36363636       0.00000000 </v>
    <v>       0.45454545       0.00000000       0.00000000 </v>
    <v>       0.00000000       0.45454545       0.00000000 </v>
    <v>      -0.45454545       0.45454545       0.00000000 </v>
    <v>       0.09090909       0.09090909       0.00000000 </v>
    <v>      -0.09090909       0.18181818       0.00000000 </v>
    <v>      -0.18181818       0.09090909       0.00000000 </v>
    <v>       0.18181818       0.09090909       0.00000000 </v>
    <v>      -0.09090909       0.27272727       0.00000000 </v>
    <v>      -0.27272727       0.18181818       0.00000000 </v>
    <v>      -0.18181818       0.27272727       0.00000000 </v>
    <v>       0.09090909       0.18181818       0.00000000 </v>
    <v>       0.27272727      -0.09090909       0.00000000 </v>
    <v>       0.27272727       0.09090909       0.00000000 </v>
    <v>      -0.09090909       0.36363636       0.00000000 </v>
    <v>      -0.36363636       0.27272727       0.00000000 </v>
    <v>      -0.27272727       0.36363636       0.00000000 </v>
    <v>       0.09090909       0.27272727       0.00000000 </v>
    <v>       0.36363636      -0.09090909       0.00000000 </v>
    <v>       0.36363636       0.09090909       0.00000000 </v>
    <v>      -0.09090909       0.45454545       0.00000000 </v>
    <v>      -0.45454545       0.36363636       0.00000000 </v>
    <v>      -0.36363636       0.45454545       0.00000000 </v>
    <v>       0.09090909       0.36363636       0.00000000 </v>
    <v>       0.45454545      -0.09090909       0.00000000 </v>
    <v>       0.45454545       0.09090909       0.00000000 </v>
    <v>      -0.09090909      -0.45454545       0.00000000 </v>
[...]
       <set comment="band 13">
        <r>  0.0054  0.0313  0.0133  0.0041 </r>
        <r>  0.0054  0.0313  0.0133  0.0041 </r>
       </set>
       <set comment="band 14">
        <r>  0.0005  0.0668  0.0372  0.0068 </r>
        <r>  0.0005  0.0668  0.0372  0.0068 </r>
       </set>
       <set comment="band 15">
        <r>  0.0010  0.0215  0.0321  0.0059 </r>
        <r>  0.0010  0.0215  0.0321  0.0059 </r>
       </set>
       <set comment="band 16">
        <r>  0.0056  0.0422  0.0423  0.0097 </r>
        <r>  0.0056  0.0422  0.0423  0.0097 </r>
       </set>
      </set>
      <set comment="kpoint 54">
       <set comment="band 1">
        <r>  0.3581  0.0292  0.0059  0.0008 </r>
        <r>  0.3581  0.0292  0.0059  0.0008 </r>
       </set>
       <set comment="band 2">
        <r>  0.3683  0.0370  0.0073  0.0008 </r>
        <r>  0.3683  0.0370  0.0073  0.0008 </r>
       </set>
       <set comment="band 3">
        <r>  0.0282  0.2546  0.0099  0.0006 </r>
        <r>  0.0282  0.2546  0.0099  0.0006 </r>
       </set>
       <set comment="band 4">
        <r>  0.0203  0.2797  0.0091  0.0008 </r>
        <r>  0.0203  0.2797  0.0091  0.0008 </r>
       </set>
       <set comment="band 5">
        <r>  0.0405  0.2807  0.0034  0.0012 </r>
        <r>  0.0405  0.2807  0.0034  0.0012 </r>
       </set>
       <set comment="band 6">
        <r>  0.0009  0.2357  0.0295  0.0022 </r>
        <r>  0.0009  0.2357  0.0295  0.0022 </r>
       </set>
       <set comment="band 7">
        <r>  0.0237  0.2503  0.0284  0.0041 </r>
        <r>  0.0237  0.2503  0.0284  0.0041 </r>
       </set>
       <set comment="band 8">
        <r>  0.0239  0.2557  0.0287  0.0042 </r>
        <r>  0.0239  0.2557  0.0287  0.0042 </r>
       </set>
       <set comment="band 9">
        <r>  0.0013  0.0313  0.0974  0.0057 </r>
        <r>  0.0013  0.0313  0.0974  0.0057 </r>
       </set>
       <set comment="band 10">
        <r>  0.0075  0.0177  0.0220  0.0025 </r>
        <r>  0.0075  0.0177  0.0220  0.0025 </r>
       </set>
       <set comment="band 11">
        <r>  0.0000  0.0465  0.0245  0.0015 </r>
        <r>  0.0000  0.0465  0.0245  0.0015 </r>
       </set>
       <set comment="band 12">
        <r>  0.0017  0.0577  0.0446  0.0030 </r>
        <r>  0.0017  0.0577  0.0446  0.0030 </r>
       </set>
       <set comment="band 13">
        <r>  0.0053  0.0327  0.0141  0.0041 </r>
        <r>  0.0053  0.0327  0.0141  0.0041 </r>
       </set>
       <set comment="band 14">
        <r>  0.0007  0.0649  0.0364  0.0067 </r>
        <r>  0.0007  0.0649  0.0364  0.0067 </r>
       </set>
       <set comment="band 15">
        <r>  0.0010  0.0214  0.0322  0.0059 </r>
        <r>  0.0010  0.0214  0.0322  0.0059 </r>
       </set>
       <set comment="band 16">
        <r>  0.0059  0.0409  0.0421  0.0095 </r>
        <r>  0.0059  0.0409  0.0421  0.0095 </r>
       </set>
      </set>
      <set comment="kpoint 55">
       <set comment="band 1">
        <r>  0.3584  0.0291  0.0059  0.0008 </r>
        <r>  0.3584  0.0291  0.0059  0.0008 </r>
       </set>
       <set comment="band 2">
        <r>  0.3682  0.0369  0.0073  0.0008 </r>
        <r>  0.3682  0.0369  0.0073  0.0008 </r>
       </set>
       <set comment="band 3">
        <r>  0.0281  0.2542  0.0099  0.0006 </r>
        <r>  0.0281  0.2542  0.0099  0.0006 </r>
       </set>
       <set comment="band 4">
        <r>  0.0204  0.2804  0.0091  0.0008 </r>
        <r>  0.0204  0.2804  0.0091  0.0008 </r>
       </set>
       <set comment="band 5">
        <r>  0.0402  0.2806  0.0034  0.0012 </r>
        <r>  0.0402  0.2806  0.0034  0.0012 </r>
       </set>
       <set comment="band 6">
        <r>  0.0011  0.2362  0.0292  0.0022 </r>
        <r>  0.0011  0.2362  0.0292  0.0022 </r>
       </set>
       <set comment="band 7">
        <r>  0.0241  0.2478  0.0291  0.0041 </r>
        <r>  0.0241  0.2478  0.0291  0.0041 </r>
       </set>
       <set comment="band 8">
        <r>  0.0232  0.2579  0.0285  0.0042 </r>
        <r>  0.0232  0.2579  0.0285  0.0042 </r>
       </set>
       <set comment="band 9">
        <r>  0.0013  0.0308  0.0973  0.0057 </r>
        <r>  0.0013  0.0308  0.0973  0.0057 </r>
       </set>
       <set comment="band 10">
        <r>  0.0076  0.0174  0.0219  0.0025 </r>
        <r>  0.0076  0.0174  0.0219  0.0025 </r>
       </set>
       <set comment="band 11">
        <r>  0.0000  0.0472  0.0245  0.0014 </r>
        <r>  0.0000  0.0472  0.0245  0.0014 </r>
       </set>
       <set comment="band 12">
        <r>  0.0016  0.0562  0.0445  0.0029 </r>
        <r>  0.0016  0.0562  0.0445  0.0029 </r>
       </set>
       <set comment="band 13">
        <r>  0.0052  0.0331  0.0140  0.0041 </r>
        <r>  0.0052  0.0331  0.0140  0.0041 </r>
       </set>
       <set comment="band 14">
        <r>  0.0007  0.0657  0.0363  0.0066 </r>
        <r>  0.0007  0.0657  0.0363  0.0066 </r>
       </set>
       <set comment="band 15">
        <r>  0.0010  0.0216  0.0318  0.0059 </r>
        <r>  0.0010  0.0216  0.0318  0.0059 </r>
       </set>
       <set comment="band 16">
        <r>  0.0058  0.0402  0.0413  0.0095 </r>
        <r>  0.0058  0.0402  0.0413  0.0095 </r>
       </set>
      </set>
      <set comment="kpoint 56">
       <set comment="band 1">
        <r>  0.3556  0.0307  0.0057  0.0008 </r>
        <r>  0.3556  0.0307  0.0057  0.0008 </r>
       </set>
       <set comment="band 2">
        <r>  0.3792  0.0322  0.0078  0.0009 </r>
        <r>  0.3792  0.0322  0.0078  0.0009 </r>
       </set>
       <set comment="band 3">
        <r>  0.0065  0.2647  0.0132  0.0005 </r>
        <r>  0.0065  0.2647  0.0132  0.0005 </r>
       </set>
       <set comment="band 4">
        <r>  0.0324  0.2648  0.0056  0.0005 </r>
        <r>  0.0324  0.2648  0.0056  0.0005 </r>
       </set>
       <set comment="band 5">
        <r>  0.0428  0.2888  0.0035  0.0009 </r>
        <r>  0.0428  0.2888  0.0035  0.0009 </r>
       </set>
       <set comment="band 6">
        <r>  0.0012  0.2283  0.0281  0.0027 </r>
        <r>  0.0012  0.2283  0.0281  0.0027 </r>
       </set>
       <set comment="band 7">
        <r>  0.0175  0.2283  0.0268  0.0026 </r>
        <r>  0.0175  0.2283  0.0268  0.0026 </r>
       </set>
       <set comment="band 8">
        <r>  0.0307  0.2964  0.0180  0.0051 </r>
        <r>  0.0307  0.2964  0.0180  0.0051 </r>
       </set>
       <set comment="band 9">
        <r>  0.0016  0.0881  0.0870  0.0116 </r>
        <r>  0.0016  0.0881  0.0870  0.0116 </r>
       </set>
       <set comment="band 10">
        <r>  0.0115  0.0351  0.0298  0.0043 </r>
        <r>  0.0115  0.0351  0.0298  0.0043 </r>
       </set>
       <set comment="band 11">
        <r>  0.0001  0.0345  0.0643  0.0017 </r>
        <r>  0.0001  0.0345  0.0643  0.0017 </r>
       </set>
       <set comment="band 12">
        <r>  0.0005  0.0355  0.0892  0.0108 </r>
        <r>  0.0005  0.0355  0.0892  0.0108 </r>
       </set>
       <set comment="band 13">
        <r>  0.0006  0.0021  0.0262  0.0032 </r>
        <r>  0.0006  0.0021  0.0262  0.0032 </r>
       </set>
       <set comment="band 14">
        <r>  0.0080  0.0152  0.0161  0.0041 </r>
        <r>  0.0080  0.0152  0.0161  0.0041 </r>
       </set>
       <set comment="band 15">
        <r>  0.0000  0.0638  0.0233  0.0042 </r>
        <r>  0.0000  0.0638  0.0233  0.0042 </r>
       </set>
       <set comment="band 16">
        <r>  0.0002  0.0418  0.0093  0.0061 </r>
        <r>  0.0002  0.0418  0.0093  0.0061 </r>
       </set>
      </set>
      <set comment="kpoint 57">
       <set comment="band 1">
        <r>  0.3548  0.0309  0.0057  0.0007 </r>
        <r>  0.3548  0.0309  0.0057  0.0007 </r>
       </set>
       <set comment="band 2">
        <r>  0.3792  0.0326  0.0079  0.0009 </r>
        <r>  0.3792  0.0326  0.0079  0.0009 </r>
       </set>
       <set comment="band 3">
        <r>  0.0070  0.2644  0.0132  0.0005 </r>
        <r>  0.0070  0.2644  0.0132  0.0005 </r>
       </set>
       <set comment="band 4">
        <r>  0.0328  0.2651  0.0055  0.0005 </r>
        <r>  0.0328  0.2651  0.0055  0.0005 </r>
       </set>
       <set comment="band 5">
        <r>  0.0427  0.2879  0.0036  0.0009 </r>
        <r>  0.0427  0.2879  0.0036  0.0009 </r>
       </set>
       <set comment="band 6">
        <r>  0.0013  0.2292  0.0279  0.0027 </r>
        <r>  0.0013  0.2292  0.0279  0.0027 </r>
       </set>
       <set comment="band 7">
        <r>  0.0179  0.2253  0.0274  0.0025 </r>
        <r>  0.0179  0.2253  0.0274  0.0025 </r>
       </set>
       <set comment="band 8">
        <r>  0.0297  0.2973  0.0181  0.0050 </r>
        <r>  0.0297  0.2973  0.0181  0.0050 </r>
       </set>
       <set comment="band 9">
        <r>  0.0018  0.0878  0.0854  0.0117 </r>
        <r>  0.0018  0.0878  0.0854  0.0117 </r>
       </set>
       <set comment="band 10">
        <r>  0.0116  0.0356  0.0312  0.0044 </r>
        <r>  0.0116  0.0356  0.0312  0.0044 </r>
       </set>
       <set comment="band 11">
        <r>  0.0001  0.0352  0.0650  0.0017 </r>
        <r>  0.0001  0.0352  0.0650  0.0017 </r>
       </set>
       <set comment="band 12">
        <r>  0.0004  0.0352  0.0876  0.0105 </r>
        <r>  0.0004  0.0352  0.0876  0.0105 </r>
       </set>
       <set comment="band 13">
        <r>  0.0006  0.0023  0.0266  0.0033 </r>
        <r>  0.0006  0.0023  0.0266  0.0033 </r>
       </set>
       <set comment="band 14">
        <r>  0.0080  0.0160  0.0168  0.0043 </r>
        <r>  0.0080  0.0160  0.0168  0.0043 </r>
       </set>
       <set comment="band 15">
        <r>  0.0001  0.0652  0.0228  0.0040 </r>
        <r>  0.0001  0.0652  0.0228  0.0040 </r>
       </set>
       <set comment="band 16">
        <r>  0.0002  0.0416  0.0091  0.0061 </r>
        <r>  0.0002  0.0416  0.0091  0.0061 </r>
       </set>
      </set>
      <set comment="kpoint 58">
       <set comment="band 1">
        <r>  0.3552  0.0308  0.0057  0.0007 </r>
        <r>  0.3552  0.0308  0.0057  0.0007 </r>
       </set>
       <set comment="band 2">
        <r>  0.3792  0.0324  0.0079  0.0009 </r>
        <r>  0.3792  0.0324  0.0079  0.0009 </r>
       </set>
       <set comment="band 3">
        <r>  0.0068  0.2645  0.0132  0.0005 </r>
        <r>  0.0068  0.2645  0.0132  0.0005 </r>
       </set>
       <set comment="band 4">
        <r>  0.0326  0.2650  0.0056  0.0005 </r>
        <r>  0.0326  0.2650  0.0056  0.0005 </r>
       </set>
       <set comment="band 5">
        <r>  0.0428  0.2883  0.0035  0.0009 </r>
        <r>  0.0428  0.2883  0.0035  0.0009 </r>
       </set>
       <set comment="band 6">
        <r>  0.0013  0.2287  0.0280  0.0027 </r>
        <r>  0.0013  0.2287  0.0280  0.0027 </r>
       </set>
       <set comment="band 7">
        <r>  0.0177  0.2267  0.0271  0.0025 </r>
        <r>  0.0177  0.2267  0.0271  0.0025 </r>
       </set>
       <set comment="band 8">
        <r>  0.0302  0.2969  0.0180  0.0051 </r>
        <r>  0.0302  0.2969  0.0180  0.0051 </r>
       </set>
       <set comment="band 9">
        <r>  0.0017  0.0879  0.0862  0.0117 </r>
        <r>  0.0017  0.0879  0.0862  0.0117 </r>
       </set>
       <set comment="band 10">
        <r>  0.0115  0.0354  0.0305  0.0044 </r>
        <r>  0.0115  0.0354  0.0305  0.0044 </r>
       </set>
       <set comment="band 11">
        <r>  0.0001  0.0348  0.0646  0.0017 </r>
        <r>  0.0001  0.0348  0.0646  0.0017 </r>
       </set>
       <set comment="band 12">
        <r>  0.0004  0.0354  0.0884  0.0106 </r>
        <r>  0.0004  0.0354  0.0884  0.0106 </r>
       </set>
       <set comment="band 13">
        <r>  0.0006  0.0022  0.0264  0.0033 </r>
        <r>  0.0006  0.0022  0.0264  0.0033 </r>
       </set>
       <set comment="band 14">
        <r>  0.0080  0.0156  0.0165  0.0042 </r>
        <r>  0.0080  0.0156  0.0165  0.0042 </r>
       </set>
       <set comment="band 15">
        <r>  0.0001  0.0645  0.0230  0.0041 </r>
        <r>  0.0001  0.0645  0.0230  0.0041 </r>
       </set>
       <set comment="band 16">
        <r>  0.0002  0.0418  0.0092  0.0061 </r>
        <r>  0.0002  0.0418  0.0092  0.0061 </r>
       </set>
      </set>
      <set comment="kpoint 59">
       <set comment="band 1">
        <r>  0.3646  0.0310  0.0068  0.0008 </r>
        <r>  0.3646  0.0310  0.0068  0.0008 </r>
       </set>
       <set comment="band 2">
        <r>  0.3690  0.0338  0.0073  0.0008 </r>
        <r>  0.3690  0.0338  0.0073  0.0008 </r>
       </set>
       <set comment="band 3">
        <r>  0.0036  0.2619  0.0125  0.0003 </r>
        <r>  0.0036  0.2619  0.0125  0.0003 </r>
       </set>
       <set comment="band 4">
        <r>  0.0397  0.2716  0.0051  0.0005 </r>
        <r>  0.0397  0.2716  0.0051  0.0005 </r>
       </set>
       <set comment="band 5">
        <r>  0.0437  0.2771  0.0038  0.0007 </r>
        <r>  0.0437  0.2771  0.0038  0.0007 </r>
       </set>
       <set comment="band 6">
        <r>  0.0002  0.2199  0.0279  0.0028 </r>
        <r>  0.0002  0.2199  0.0279  0.0028 </r>
       </set>
       <set comment="band 7">
        <r>  0.0173  0.2445  0.0260  0.0028 </r>
        <r>  0.0173  0.2445  0.0260  0.0028 </r>
       </set>
       <set comment="band 8">
        <r>  0.0249  0.2718  0.0223  0.0040 </r>
        <r>  0.0249  0.2718  0.0223  0.0040 </r>
       </set>
       <set comment="band 9">
        <r>  0.0073  0.0610  0.0835  0.0114 </r>
        <r>  0.0073  0.0610  0.0835  0.0114 </r>
       </set>
       <set comment="band 10">
        <r>  0.0001  0.0266  0.0796  0.0010 </r>
        <r>  0.0001  0.0266  0.0796  0.0010 </r>
       </set>
       <set comment="band 11">
        <r>  0.0077  0.1030  0.0286  0.0064 </r>
        <r>  0.0077  0.1030  0.0286  0.0064 </r>
       </set>
       <set comment="band 12">
        <r>  0.0060  0.0133  0.0279  0.0043 </r>
        <r>  0.0060  0.0133  0.0279  0.0043 </r>
       </set>
       <set comment="band 13">
        <r>  0.0012  0.0454  0.0162  0.0043 </r>
        <r>  0.0012  0.0454  0.0162  0.0043 </r>
       </set>
       <set comment="band 14">
        <r>  0.0004  0.0620  0.0655  0.0137 </r>
        <r>  0.0004  0.0620  0.0655  0.0137 </r>
       </set>
       <set comment="band 15">
        <r>  0.0027  0.0329  0.0224  0.0065 </r>
        <r>  0.0027  0.0329  0.0224  0.0065 </r>
       </set>
       <set comment="band 16">
        <r>  0.0008  0.0363  0.0606  0.0084 </r>
        <r>  0.0008  0.0363  0.0606  0.0084 </r>
       </set>
      </set>
      <set comment="kpoint 60">
       <set comment="band 1">
        <r>  0.3643  0.0310  0.0068  0.0008 </r>
        <r>  0.3643  0.0310  0.0068  0.0008 </r>
       </set>
       <set comment="band 2">
        <r>  0.3690  0.0340  0.0073  0.0008 </r>
        <r>  0.3690  0.0340  0.0073  0.0008 </r>
       </set>
       <set comment="band 3">
        <r>  0.0038  0.2619  0.0125  0.0003 </r>
        <r>  0.0038  0.2619  0.0125  0.0003 </r>
       </set>
       <set comment="band 4">
        <r>  0.0398  0.2718  0.0050  0.0005 </r>
        <r>  0.0398  0.2718  0.0050  0.0005 </r>
       </set>
       <set comment="band 5">
        <r>  0.0437  0.2768  0.0038  0.0008 </r>
        <r>  0.0437  0.2768  0.0038  0.0008 </r>
       </set>
       <set comment="band 6">
        <r>  0.0003  0.2201  0.0279  0.0028 </r>
        <r>  0.0003  0.2201  0.0279  0.0028 </r>
       </set>
       <set comment="band 7">
        <r>  0.0174  0.2441  0.0260  0.0028 </r>
        <r>  0.0174  0.2441  0.0260  0.0028 </r>
       </set>
       <set comment="band 8">
        <r>  0.0246  0.2715  0.0223  0.0040 </r>
        <r>  0.0246  0.2715  0.0223  0.0040 </r>
       </set>
       <set comment="band 9">
        <r>  0.0074  0.0613  0.0827  0.0113 </r>
        <r>  0.0074  0.0613  0.0827  0.0113 </r>
       </set>
       <set comment="band 10">
        <r>  0.0001  0.0270  0.0798  0.0011 </r>
        <r>  0.0001  0.0270  0.0798  0.0011 </r>
       </set>
       <set comment="band 11">
        <r>  0.0079  0.1022  0.0281  0.0065 </r>
        <r>  0.0079  0.1022  0.0281  0.0065 </r>
       </set>
       <set comment="band 12">
        <r>  0.0060  0.0139  0.0282  0.0044 </r>
        <r>  0.0060  0.0139  0.0282  0.0044 </r>
       </set>
       <set comment="band 13">
        <r>  0.0012  0.0458  0.0166  0.0043 </r>
        <r>  0.0012  0.0458  0.0166  0.0043 </r>
       </set>
       <set comment="band 14">
        <r>  0.0004  0.0668  0.0709  0.0146 </r>
        <r>  0.0004  0.0668  0.0709  0.0146 </r>
       </set>
       <set comment="band 15">
        <r>  0.0027  0.0332  0.0226  0.0065 </r>
        <r>  0.0027  0.0332  0.0226  0.0065 </r>
       </set>
       <set comment="band 16">
        <r>  0.0006  0.0311  0.0553  0.0074 </r>
        <r>  0.0006  0.0311  0.0553  0.0074 </r>
       </set>
      </set>
      <set comment="kpoint 61">
       <set comment="band 1">
        <r>  0.3640  0.0309  0.0068  0.0008 </r>
        <r>  0.3640  0.0309  0.0068  0.0008 </r>
       </set>
       <set comment="band 2">
        <r>  0.3690  0.0343  0.0074  0.0008 </r>
        <r>  0.3690  0.0343  0.0074  0.0008 </r>
       </set>
       <set comment="band 3">
        <r>  0.0039  0.2618  0.0124  0.0003 </r>
        <r>  0.0039  0.2618  0.0124  0.0003 </r>
       </set>
       <set comment="band 4">
        <r>  0.0398  0.2720  0.0050  0.0005 </r>
        <r>  0.0398  0.2720  0.0050  0.0005 </r>
       </set>
       <set comment="band 5">
        <r>  0.0438  0.2763  0.0038  0.0008 </r>
        <r>  0.0438  0.2763  0.0038  0.0008 </r>
       </set>
       <set comment="band 6">
        <r>  0.0003  0.2202  0.0279  0.0027 </r>
        <r>  0.0003  0.2202  0.0279  0.0027 </r>
       </set>
       <set comment="band 7">
        <r>  0.0176  0.2431  0.0262  0.0028 </r>
        <r>  0.0176  0.2431  0.0262  0.0028 </r>
       </set>
       <set comment="band 8">
        <r>  0.0242  0.2720  0.0222  0.0039 </r>
        <r>  0.0242  0.2720  0.0222  0.0039 </r>
       </set>
       <set comment="band 9">
        <r>  0.0074  0.0616  0.0819  0.0113 </r>
        <r>  0.0074  0.0616  0.0819  0.0113 </r>
       </set>
       <set comment="band 10">
        <r>  0.0001  0.0273  0.0802  0.0011 </r>
        <r>  0.0001  0.0273  0.0802  0.0011 </r>
       </set>
       <set comment="band 11">
        <r>  0.0080  0.1015  0.0275  0.0065 </r>
        <r>  0.0080  0.1015  0.0275  0.0065 </r>
       </set>
       <set comment="band 12">
        <r>  0.0059  0.0143  0.0285  0.0044 </r>
        <r>  0.0059  0.0143  0.0285  0.0044 </r>
       </set>
       <set comment="band 13">
        <r>  0.0011  0.0463  0.0170  0.0044 </r>
        <r>  0.0011  0.0463  0.0170  0.0044 </r>
       </set>
       <set comment="band 14">
        <r>  0.0004  0.0720  0.0769  0.0157 </r>
        <r>  0.0004  0.0720  0.0769  0.0157 </r>
       </set>
       <set comment="band 15">
        <r>  0.0028  0.0327  0.0218  0.0063 </r>
        <r>  0.0028  0.0327  0.0218  0.0063 </r>
       </set>
       <set comment="band 16">
        <r>  0.0005  0.0262  0.0501  0.0064 </r>
        <r>  0.0005  0.0262  0.0501  0.0064 </r>
       </set>
      </set>
     </set>
    </set>
   </array>
  </projected>
 </calculation>
 <structure name="finalpos" >
  <crystal>
   <varray name="basis" >
    <v>       4.11336655       0.00000000       0.00000000 </v>
    <v>      -2.05668327       3.56227993       0.00000000 </v>
    <v>       0.00000000       0.00000000      16.00000000 </v>
   </varray>
   <i name="volume">    234.44740948 </i>
   <varray name="rec_basis" >
    <v>       0.24310987       0.14035955       0.00000000 </v>
    <v>       0.00000000       0.28071910       0.00000000 </v>
    <v>       0.00000000       0.00000000       0.06250000 </v>
   </varray>
  </crystal>
  <varray name="positions" >
   <v>       0.66497245       0.33338196       0.44862540 </v>
   <v>       0.33502755       0.66661804       0.55137460 </v>
  </varray>
 </structure>
</modeling>
