nqpoint: 300    
npath: 3      
segment_nqpoint:
- 100
- 100
- 100
reciprocal_lattice:
- [   0.43582507,   0.25162372,   0.00000000 ] # a*
- [   0.00000000,   0.50324744,   0.00000000 ] # b*
- [   0.00000000,   0.00000000,   0.06250000 ] # c*
natom: 2      
lattice:
- [     2.294498594447439,     0.000000000000000,     0.000000000000000 ] # a
- [    -1.147249297223719,     1.987094071739169,     0.000000000000000 ] # b
- [     0.000000000000000,     0.000000000000000,    16.000000000000000 ] # c
points:
- symbol: H  # 1
  coordinates: [  0.666666666666664,  0.333333333333336,  0.478221853946259 ]
  mass: 1.007940
- symbol: H  # 2
  coordinates: [  0.333333333333336,  0.666666666666664,  0.521778146053741 ]
  mass: 1.007940

phonon:
- q-position: [    0.0000000,    0.0000000,    0.0000000 ]
  distance:    0.0000000
  band:
  - # 1
    frequency:   -0.0003727012
    eigenvector:
    - # atom 1
      - [ -0.00000052092433,  0.00000000000000 ]
      - [  0.50000351609692,  0.00000000000000 ]
      - [  0.49999648387808,  0.00000000000000 ]
    - # atom 2
      - [ -0.00000052092433,  0.00000000000000 ]
      - [  0.50000351609692,  0.00000000000000 ]
      - [  0.49999648387808,  0.00000000000000 ]
  - # 2
    frequency:    0.0005270780
    eigenvector:
    - # atom 1
      - [ -0.70710678118463,  0.00000000000000 ]
      - [  0.00000073661250,  0.00000000000000 ]
      - [ -0.00000147332629,  0.00000000000000 ]
    - # atom 2
      - [ -0.70710678118463,  0.00000000000000 ]
      - [  0.00000073661250,  0.00000000000000 ]
      - [ -0.00000147332629,  0.00000000000000 ]
  - # 3
    frequency:    0.0006455396
    eigenvector:
    - # atom 1
      - [ -0.00000156266637,  0.00000000000000 ]
      - [ -0.49999648387781,  0.00000000000000 ]
      - [  0.50000351609502,  0.00000000000000 ]
    - # atom 2
      - [ -0.00000156266637,  0.00000000000000 ]
      - [ -0.49999648387781,  0.00000000000000 ]
      - [  0.50000351609502,  0.00000000000000 ]
  - # 4
    frequency:  109.5623698520
    eigenvector:
    - # atom 1
      - [  0.70710678118655,  0.00000000000000 ]
      - [  0.00000000000000,  0.00000000000000 ]
      - [  0.00000000000000,  0.00000000000000 ]
    - # atom 2
      - [ -0.70710678118655,  0.00000000000000 ]
      - [  0.00000000000000,  0.00000000000000 ]
      - [  0.00000000000000,  0.00000000000000 ]
  - # 5
    frequency:  109.5623698552
    eigenvector:
    - # atom 1
      - [ -0.00000000000000,  0.00000000000000 ]
      - [ -0.70710678118655,  0.00000000000000 ]
      - [  0.00000000007959,  0.00000000000000 ]
    - # atom 2
      - [  0.00000000000000,  0.00000000000000 ]
      - [  0.70710678118655,  0.00000000000000 ]
      - [ -0.00000000007959,  0.00000000000000 ]
  - # 6
    frequency:  120.3004178543
    eigenvector:
    - # atom 1
      - [  0.00000000000000,  0.00000000000000 ]
      - [ -0.00000000007959,  0.00000000000000 ]
      - [ -0.70710678118655,  0.00000000000000 ]
    - # atom 2
      - [  0.00000000000000,  0.00000000000000 ]
      - [  0.00000000007959,  0.00000000000000 ]
      - [  0.70710678118655,  0.00000000000000 ]

- q-position: [    0.0067340,   -0.0033670,    0.0000000 ]
  distance:    0.0029348
  band:
  - # 1
    frequency:    0.3794324208
    eigenvector:
    - # atom 1
      - [ -0.00474470389575,  0.00000000000000 ]
      - [ -0.00000000000016,  0.00730552957064 ]
      - [ -0.00000000000900,  0.70705312178268 ]
    - # atom 2
      - [  0.00474470389575,  0.00000000000012 ]
      - [  0.00000000000067,  0.00730552957064 ]
      - [ -0.00000000000900,  0.70705312178268 ]
  - # 2
    frequency:    1.1408929629
    eigenvector:
    - # atom 1
      - [ -0.00026889564894,  0.00000000000000 ]
      - [  0.00000016170797, -0.70706900716735 ]
      - [ -0.00000000167076,  0.00730388927085 ]
    - # atom 2
      - [  0.00026889564894,  0.00000000012300 ]
      - [  0.00000016170790, -0.70706900716735 ]
      - [ -0.00000000167076,  0.00730388927085 ]
  - # 3
    frequency:    1.8306215882
    eigenvector:
    - # atom 1
      - [ -0.70710645788467,  0.00000000000000 ]
      - [ -0.00000000006150,  0.00021938908921 ]
      - [  0.00000000000070, -0.00063959848695 ]
    - # atom 2
      - [ -0.70710645788467, -0.00000000000009 ]
      - [ -0.00000000006150, -0.00021938908920 ]
      - [  0.00000000000070,  0.00063959848696 ]
  - # 4
    frequency:  109.5567662069
    eigenvector:
    - # atom 1
      - [ -0.00021921679108,  0.00000000000000 ]
      - [  0.00000019719875, -0.70710672152472 ]
      - [  0.00000000005315, -0.00019057417852 ]
    - # atom 2
      - [ -0.00021921679108, -0.00000000012227 ]
      - [ -0.00000019719867,  0.70710672152472 ]
      - [ -0.00000000005315,  0.00019057417852 ]
  - # 5
    frequency:  109.5652469168
    eigenvector:
    - # atom 1
      - [ -0.70709081133902,  0.00000000000000 ]
      - [ -0.00000000006113,  0.00021986596689 ]
      - [ -0.00000000000005, -0.00474722854779 ]
    - # atom 2
      - [  0.70709081133902,  0.00000000000008 ]
      - [  0.00000000006113,  0.00021986596689 ]
      - [  0.00000000000005, -0.00474722854779 ]
  - # 6
    frequency:  120.2898979944
    eigenvector:
    - # atom 1
      - [ -0.00063965756111,  0.00000000000000 ]
      - [ -0.00000000000007, -0.00019037580348 ]
      - [  0.00000000003650,  0.70710646623776 ]
    - # atom 2
      - [ -0.00063965756111,  0.00000000000007 ]
      - [ -0.00000000000005,  0.00019037580348 ]
      - [ -0.00000000003650, -0.70710646623776 ]

- q-position: [    0.0134680,   -0.0067340,    0.0000000 ]
  distance:    0.0058697
  band:
  - # 1
    frequency:    0.7595177274
    eigenvector:
    - # atom 1
      - [ -0.00948442100327,  0.00000000000000 ]
      - [ -0.00000000000097,  0.00724144446848 ]
      - [ -0.00000000000422,  0.70700608713097 ]
    - # atom 2
      - [  0.00948442100327,  0.00000000000011 ]
      - [  0.00000000000067,  0.00724144446848 ]
      - [ -0.00000000000421,  0.70700608713097 ]
  - # 2
    frequency:    2.2815229487
    eigenvector:
    - # atom 1
      - [ -0.00053836666075,  0.00000000000000 ]
      - [  0.00000008033145, -0.70706956290142 ]
      - [ -0.00000000082186,  0.00723487247443 ]
    - # atom 2
      - [  0.00053836666075,  0.00000000012233 ]
      - [  0.00000008033132, -0.70706956290142 ]
      - [ -0.00000000082186,  0.00723487247443 ]
  - # 3
    frequency:    3.6603356862
    eigenvector:
    - # atom 1
      - [ -0.70710548485206,  0.00000000000000 ]
      - [ -0.00000000006116,  0.00043743221225 ]
      - [  0.00000000000068, -0.00128138409515 ]
    - # atom 2
      - [ -0.70710548485206, -0.00000000000017 ]
      - [ -0.00000000006116, -0.00043743221225 ]
      - [  0.00000000000068,  0.00128138409515 ]
  - # 4
    frequency:  109.5399527660
    eigenvector:
    - # atom 1
      - [ -0.00043604983300,  0.00000000000000 ]
      - [  0.00000009951962, -0.70710623498071 ]
      - [  0.00000000010740, -0.00076309365916 ]
    - # atom 2
      - [ -0.00043604983300, -0.00000000012274 ]
      - [ -0.00000009951947,  0.70710623498071 ]
      - [ -0.00000000010740,  0.00076309365916 ]
  - # 5
    frequency:  109.5738679123
    eigenvector:
    - # atom 1
      - [ -0.70704296610572,  0.00000000000000 ]
      - [ -0.00000000006136,  0.00044124867432 ]
      - [ -0.00000000000020, -0.00948943518004 ]
    - # atom 2
      - [  0.70704296610572,  0.00000000000015 ]
      - [  0.00000000006136,  0.00044124867432 ]
      - [  0.00000000000020, -0.00948943518003 ]
  - # 6
    frequency:  120.2583575060
    eigenvector:
    - # atom 1
      - [ -0.00128185517230,  0.00000000000000 ]
      - [ -0.00000000000019, -0.00076230207215 ]
      - [  0.00000000007320,  0.70710520839750 ]
    - # atom 2
      - [ -0.00128185517230,  0.00000000000027 ]
      - [ -0.00000000000003,  0.00076230207215 ]
      - [ -0.00000000007319, -0.70710520839750 ]

- q-position: [    0.0202020,   -0.0101010,    0.0000000 ]
  distance:    0.0088045
  band:
  - # 1
    frequency:    1.1409047963
    eigenvector:
    - # atom 1
      - [ -0.01421418158818,  0.00000000000000 ]
      - [ -0.00000000000129,  0.00713480170684 ]
      - [ -0.00000000000224,  0.70692789706333 ]
    - # atom 2
      - [  0.01421418158818,  0.00000000000009 ]
      - [  0.00000000000117,  0.00713480170684 ]
      - [ -0.00000000000224,  0.70692789706333 ]
  - # 2
    frequency:    3.4216276963
    eigenvector:
    - # atom 1
      - [ -0.00080899165512,  0.00000000000000 ]
      - [  0.00000005359834, -0.70707047138076 ]
      - [ -0.00000000053968,  0.00711997428971 ]
    - # atom 2
      - [  0.00080899165512,  0.00000000012265 ]
      - [  0.00000005359815, -0.70707047138076 ]
      - [ -0.00000000053968,  0.00711997428971 ]
  - # 3
    frequency:    5.4882357995
    eigenvector:
    - # atom 1
      - [ -0.70710385263590,  0.00000000000000 ]
      - [ -0.00000000006132,  0.00065277335350 ]
      - [  0.00000000000066, -0.00192755659060 ]
    - # atom 2
      - [ -0.70710385263590, -0.00000000000026 ]
      - [ -0.00000000006132, -0.00065277335350 ]
      - [  0.00000000000066,  0.00192755659059 ]
  - # 4
    frequency:  109.5119219712
    eigenvector:
    - # atom 1
      - [ -0.00064808528792,  0.00000000000000 ]
      - [  0.00000006669322, -0.70710439240351 ]
      - [  0.00000000016223, -0.00171995032333 ]
    - # atom 2
      - [ -0.00064808528792, -0.00000000012225 ]
      - [ -0.00000006669300,  0.70710439240351 ]
      - [ -0.00000000016222,  0.00171995032333 ]
  - # 5
    frequency:  109.5882022814
    eigenvector:
    - # atom 1
      - [ -0.70696343793316,  0.00000000000000 ]
      - [ -0.00000000006111,  0.00066566206769 ]
      - [ -0.00000000000045, -0.01422161452619 ]
    - # atom 2
      - [  0.70696343793316,  0.00000000000023 ]
      - [  0.00000000006111,  0.00066566206769 ]
      - [  0.00000000000045, -0.01422161452619 ]
  - # 6
    frequency:  120.2058537241
    eigenvector:
    - # atom 1
      - [ -0.00192913786977,  0.00000000000000 ]
      - [ -0.00000000000044, -0.00171817653461 ]
      - [  0.00000000011037,  0.70710206214978 ]
    - # atom 2
      - [ -0.00192913786977,  0.00000000000060 ]
      - [  0.00000000000010,  0.00171817653461 ]
      - [ -0.00000000011035, -0.70710206214978 ]

- q-position: [    0.0269360,   -0.0134680,    0.0000000 ]
  distance:    0.0117394
  band:
  - # 1
    frequency:    1.5242330248
    eigenvector:
    - # atom 1
      - [ -0.01892905045393,  0.00000000000000 ]
      - [ -0.00000000000161,  0.00698547862661 ]
      - [ -0.00000000000149,  0.70681885525025 ]
    - # atom 2
      - [  0.01892905045393,  0.00000000000008 ]
      - [  0.00000000000167,  0.00698547862661 ]
      - [ -0.00000000000149,  0.70681885525025 ]
  - # 2
    frequency:    4.5609458214
    eigenvector:
    - # atom 1
      - [ -0.00108134580772,  0.00000000000000 ]
      - [  0.00000004010337, -0.70707170976727 ]
      - [ -0.00000000039474,  0.00695901846728 ]
    - # atom 2
      - [  0.00108134580773,  0.00000000012266 ]
      - [  0.00000004010311, -0.70707170976727 ]
      - [ -0.00000000039474,  0.00695901846728 ]
  - # 3
    frequency:    7.3134167583
    eigenvector:
    - # atom 1
      - [ -0.70710154523998,  0.00000000000000 ]
      - [ -0.00000000006133,  0.00086403628961 ]
      - [  0.00000000000064, -0.00258034116466 ]
    - # atom 2
      - [ -0.70710154523998, -0.00000000000035 ]
      - [ -0.00000000006133, -0.00086403628961 ]
      - [  0.00000000000064,  0.00258034116466 ]
  - # 4
    frequency:  109.4726609796
    eigenvector:
    - # atom 1
      - [ -0.00085284870441,  0.00000000000000 ]
      - [  0.00000005061702, -0.70709962352290 ]
      - [  0.00000000021942, -0.00306513667832 ]
    - # atom 2
      - [ -0.00085284870441, -0.00000000012210 ]
      - [ -0.00000005061672,  0.70709962352290 ]
      - [ -0.00000000021941,  0.00306513667832 ]
  - # 5
    frequency:  109.6081992272
    eigenvector:
    - # atom 1
      - [ -0.70685254596709,  0.00000000000000 ]
      - [ -0.00000000006103,  0.00089461452089 ]
      - [ -0.00000000000080, -0.01893879417234 ]
    - # atom 2
      - [  0.70685254596709,  0.00000000000031 ]
      - [  0.00000000006102,  0.00089461452089 ]
      - [  0.00000000000081, -0.01893879417234 ]
  - # 6
    frequency:  120.1324824108
    eigenvector:
    - # atom 1
      - [ -0.00258406043335,  0.00000000000000 ]
      - [ -0.00000000000087, -0.00306200180595 ]
      - [  0.00000000014817,  0.70709542975232 ]
    - # atom 2
      - [ -0.00258406043335,  0.00000000000108 ]
      - [  0.00000000000042,  0.00306200180595 ]
      - [ -0.00000000014812, -0.70709542975232 ]

- q-position: [    0.0336700,   -0.0168350,    0.0000000 ]
  distance:    0.0146742
  band:
  - # 1
    frequency:    1.9101283563
    eigenvector:
    - # atom 1
      - [ -0.02362414366313,  0.00000000000000 ]
      - [ -0.00000000000206,  0.00679341583821 ]
      - [ -0.00000000000098,  0.70667938227844 ]
    - # atom 2
      - [  0.02362414366313,  0.00000000000007 ]
      - [  0.00000000000204,  0.00679341583821 ]
      - [ -0.00000000000098,  0.70667938227844 ]
  - # 2
    frequency:    5.6992174629
    eigenvector:
    - # atom 1
      - [ -0.00135600292173,  0.00000000000000 ]
      - [  0.00000003201653, -0.70707324478537 ]
      - [ -0.00000000030572,  0.00675187120457 ]
    - # atom 2
      - [  0.00135600292173,  0.00000000012280 ]
      - [  0.00000003201622, -0.70707324478537 ]
      - [ -0.00000000030572,  0.00675187120457 ]
  - # 3
    frequency:    9.1349756254
    eigenvector:
    - # atom 1
      - [ -0.70709853975517,  0.00000000000000 ]
      - [ -0.00000000006140,  0.00106981421190 ]
      - [  0.00000000000061, -0.00324200148878 ]
    - # atom 2
      - [ -0.70709853975517, -0.00000000000045 ]
      - [ -0.00000000006140, -0.00106981421190 ]
      - [  0.00000000000061,  0.00324200148878 ]
  - # 4
    frequency:  109.4221513034
    eigenvector:
    - # atom 1
      - [ -0.00104777361779,  0.00000000000000 ]
      - [  0.00000004109674, -0.70708968406834 ]
      - [  0.00000000027924, -0.00480425379987 ]
    - # atom 2
      - [ -0.00104777361779, -0.00000000012179 ]
      - [ -0.00000004109637,  0.70708968406834 ]
      - [ -0.00000000027922,  0.00480425379987 ]
  - # 5
    frequency:  109.6337879087
    eigenvector:
    - # atom 1
      - [ -0.70671073367557,  0.00000000000000 ]
      - [ -0.00000000006086,  0.00112960609772 ]
      - [ -0.00000000000127, -0.02363605080812 ]
    - # atom 2
      - [  0.70671073367557,  0.00000000000039 ]
      - [  0.00000000006086,  0.00112960609772 ]
      - [  0.00000000000128, -0.02363605080812 ]
  - # 6
    frequency:  120.0383780636
    eigenvector:
    - # atom 1
      - [ -0.00324919167596,  0.00000000000000 ]
      - [ -0.00000000000155, -0.00479939388670 ]
      - [  0.00000000018690,  0.70708302806090 ]
    - # atom 2
      - [ -0.00324919167596,  0.00000000000172 ]
      - [  0.00000000000099,  0.00479939388670 ]
      - [ -0.00000000018680, -0.70708302806090 ]

- q-position: [    0.0404040,   -0.0202020,    0.0000000 ]
  distance:    0.0176091
  band:
  - # 1
    frequency:    2.2991990889
    eigenvector:
    - # atom 1
      - [ -0.02829464502314,  0.00000000000000 ]
      - [ -0.00000000000247,  0.00655854750741 ]
      - [ -0.00000000000057,  0.70651001303422 ]
    - # atom 2
      - [  0.02829464502315,  0.00000000000005 ]
      - [  0.00000000000244,  0.00655854750741 ]
      - [ -0.00000000000057,  0.70651001303422 ]
  - # 2
    frequency:    6.8361847730
    eigenvector:
    - # atom 1
      - [ -0.00163353472045,  0.00000000000000 ]
      - [  0.00000002660857, -0.70707503330636 ]
      - [ -0.00000000024453,  0.00649837203648 ]
    - # atom 2
      - [  0.00163353472045,  0.00000000012294 ]
      - [  0.00000002660821, -0.70707503330636 ]
      - [ -0.00000000024453,  0.00649837203648 ]
  - # 3
    frequency:   10.9520124095
    eigenvector:
    - # atom 1
      - [ -0.70709480582793,  0.00000000000000 ]
      - [ -0.00000000006147,  0.00126865901511 ]
      - [  0.00000000000058, -0.00391485318637 ]
    - # atom 2
      - [ -0.70709480582793, -0.00000000000056 ]
      - [ -0.00000000006147, -0.00126865901511 ]
      - [  0.00000000000058,  0.00391485318638 ]
  - # 4
    frequency:  109.3603682986
    eigenvector:
    - # atom 1
      - [ -0.00123016883231,  0.00000000000000 ]
      - [  0.00000003492511, -0.70707160904324 ]
      - [  0.00000000034303, -0.00694452083604 ]
    - # atom 2
      - [ -0.00123016883231, -0.00000000012153 ]
      - [ -0.00000003492468,  0.70707160904324 ]
      - [ -0.00000000034300,  0.00694452083604 ]
  - # 5
    frequency:  109.6648777122
    eigenvector:
    - # atom 1
      - [ -0.70653856556265,  0.00000000000000 ]
      - [ -0.00000000006070,  0.00137212586904 ]
      - [ -0.00000000000185, -0.02830852598191 ]
    - # atom 2
      - [  0.70653856556265,  0.00000000000047 ]
      - [  0.00000000006070,  0.00137212586904 ]
      - [  0.00000000000187, -0.02830852598191 ]
  - # 6
    frequency:  119.9237143489
    eigenvector:
    - # atom 1
      - [ -0.00392711800326,  0.00000000000000 ]
      - [ -0.00000000000257, -0.00693759247157 ]
      - [  0.00000000022682,  0.70706184139358 ]
    - # atom 2
      - [ -0.00392711800326,  0.00000000000252 ]
      - [  0.00000000000188,  0.00693759247157 ]
      - [ -0.00000000022665, -0.70706184139358 ]

- q-position: [    0.0471380,   -0.0235690,    0.0000000 ]
  distance:    0.0205439
  band:
  - # 1
    frequency:    2.6920319808
    eigenvector:
    - # atom 1
      - [ -0.03293582204731,  0.00000000000000 ]
      - [ -0.00000000000285,  0.00628079435188 ]
      - [ -0.00000000000027,  0.70631139255174 ]
    - # atom 2
      - [  0.03293582204731,  0.00000000000003 ]
      - [  0.00000000000286,  0.00628079435188 ]
      - [ -0.00000000000028,  0.70631139255174 ]
  - # 2
    frequency:    7.9715924120
    eigenvector:
    - # atom 1
      - [ -0.00191451031627,  0.00000000000000 ]
      - [  0.00000002273230, -0.70707702224386 ]
      - [ -0.00000000019928,  0.00619832759706 ]
    - # atom 2
      - [  0.00191451031627,  0.00000000012310 ]
      - [  0.00000002273190, -0.70707702224386 ]
      - [ -0.00000000019928,  0.00619832759706 ]
  - # 3
    frequency:   12.7636307792
    eigenvector:
    - # atom 1
      - [ -0.70709030495142,  0.00000000000000 ]
      - [ -0.00000000006155,  0.00145907013233 ]
      - [  0.00000000000054, -0.00460127787271 ]
    - # atom 2
      - [ -0.70709030495142, -0.00000000000067 ]
      - [ -0.00000000006155, -0.00145907013233 ]
      - [  0.00000000000054,  0.00460127787271 ]
  - # 4
    frequency:  109.2872805054
    eigenvector:
    - # atom 1
      - [ -0.00139718393667,  0.00000000000000 ]
      - [  0.00000003066674, -0.70704165149674 ]
      - [  0.00000000041185, -0.00949478413736 ]
    - # atom 2
      - [ -0.00139718393667, -0.00000000012120 ]
      - [ -0.00000003066626,  0.70704165149674 ]
      - [ -0.00000000041179,  0.00949478413736 ]
  - # 5
    frequency:  109.7013585966
    eigenvector:
    - # atom 1
      - [ -0.70633672301270,  0.00000000000000 ]
      - [ -0.00000000006050,  0.00162364930355 ]
      - [ -0.00000000000256, -0.03295144134363 ]
    - # atom 2
      - [  0.70633672301270,  0.00000000000056 ]
      - [  0.00000000006050,  0.00162364930355 ]
      - [  0.00000000000258, -0.03295144134362 ]
  - # 6
    frequency:  119.7887046660
    eigenvector:
    - # atom 1
      - [ -0.00462044594818,  0.00000000000000 ]
      - [ -0.00000000000400, -0.00948547115946 ]
      - [  0.00000000026821,  0.70702805977990 ]
    - # atom 2
      - [ -0.00462044594818,  0.00000000000350 ]
      - [  0.00000000000320,  0.00948547115946 ]
      - [ -0.00000000026795, -0.70702805977990 ]

- q-position: [    0.0538721,   -0.0269360,    0.0000000 ]
  distance:    0.0234788
  band:
  - # 1
    frequency:    3.0891886832
    eigenvector:
    - # atom 1
      - [ -0.03754304128653,  0.00000000000000 ]
      - [ -0.00000000000326,  0.00596006173298 ]
      - [ -0.00000000000000,  0.70608427097273 ]
    - # atom 2
      - [  0.03754304128653,  0.00000000000000 ]
      - [  0.00000000000324,  0.00596006173298 ]
      - [ -0.00000000000003,  0.70608427097273 ]
  - # 2
    frequency:    9.1051880407
    eigenvector:
    - # atom 1
      - [ -0.00219949571734,  0.00000000000000 ]
      - [  0.00000001981976, -0.70707914835750 ]
      - [ -0.00000000016401,  0.00585151062790 ]
    - # atom 2
      - [  0.00219949571734,  0.00000000012330 ]
      - [  0.00000001981933, -0.70707914835750 ]
      - [ -0.00000000016401,  0.00585151062790 ]
  - # 3
    frequency:   14.5689387624
    eigenvector:
    - # atom 1
      - [ -0.70708498955940,  0.00000000000000 ]
      - [ -0.00000000006165,  0.00163948278846 ]
      - [  0.00000000000050, -0.00530373792361 ]
    - # atom 2
      - [ -0.70708498955941, -0.00000000000080 ]
      - [ -0.00000000006165, -0.00163948278846 ]
      - [  0.00000000000049,  0.00530373792362 ]
  - # 4
    frequency:  109.2028488353
    eigenvector:
    - # atom 1
      - [ -0.00154577259947,  0.00000000000000 ]
      - [  0.00000002761760, -0.70699520600385 ]
      - [  0.00000000048698, -0.01246552344052 ]
    - # atom 2
      - [ -0.00154577259947, -0.00000000012077 ]
      - [ -0.00000002761706,  0.70699520600385 ]
      - [ -0.00000000048690,  0.01246552344052 ]
  - # 5
    frequency:  109.7431015069
    eigenvector:
    - # atom 1
      - [ -0.70610599931565,  0.00000000000000 ]
      - [ -0.00000000006024,  0.00188563574904 ]
      - [ -0.00000000000340, -0.03756011326227 ]
    - # atom 2
      - [  0.70610599931565,  0.00000000000064 ]
      - [  0.00000000006024,  0.00188563574904 ]
      - [  0.00000000000344, -0.03756011326227 ]
  - # 6
    frequency:  119.6336028422
    eigenvector:
    - # atom 1
      - [ -0.00533180333909,  0.00000000000000 ]
      - [ -0.00000000000595, -0.01245354502790 ]
      - [  0.00000000031143,  0.70697700181080 ]
    - # atom 2
      - [ -0.00533180333909,  0.00000000000469 ]
      - [  0.00000000000502,  0.01245354502790 ]
      - [ -0.00000000031103, -0.70697700181080 ]

- q-position: [    0.0606061,   -0.0303030,    0.0000000 ]
  distance:    0.0264136
  band:
  - # 1
    frequency:    3.4912025389
    eigenvector:
    - # atom 1
      - [ -0.04211178292864,  0.00000000000000 ]
      - [ -0.00000000000364,  0.00559623854527 ]
      - [  0.00000000000023,  0.70582949772074 ]
    - # atom 2
      - [  0.04211178292864, -0.00000000000002 ]
      - [  0.00000000000366,  0.00559623854527 ]
      - [  0.00000000000019,  0.70582949772074 ]
  - # 2
    frequency:   10.2367228079
    eigenvector:
    - # atom 1
      - [ -0.00248905336012,  0.00000000000000 ]
      - [  0.00000001754404, -0.70708133800965 ]
      - [ -0.00000000013543,  0.00545765992503 ]
    - # atom 2
      - [  0.00248905336012,  0.00000000012352 ]
      - [  0.00000001754359, -0.70708133800965 ]
      - [ -0.00000000013542,  0.00545765992503 ]
  - # 3
    frequency:   16.3670494302
    eigenvector:
    - # atom 1
      - [ -0.70707880189658,  0.00000000000000 ]
      - [ -0.00000000006175,  0.00180825553406 ]
      - [  0.00000000000044, -0.00602479214747 ]
    - # atom 2
      - [ -0.70707880189658, -0.00000000000093 ]
      - [ -0.00000000006175, -0.00180825553406 ]
      - [  0.00000000000044,  0.00602479214747 ]
  - # 4
    frequency:  109.1070256059
    eigenvector:
    - # atom 1
      - [ -0.00167265318980,  0.00000000000000 ]
      - [  0.00000002542192, -0.70692671598829 ]
      - [  0.00000000057072, -0.01586885167000 ]
    - # atom 2
      - [ -0.00167265318980, -0.00000000012030 ]
      - [ -0.00000002542134,  0.70692671598829 ]
      - [ -0.00000000057059,  0.01586885167000 ]
  - # 5
    frequency:  109.7899588554
    eigenvector:
    - # atom 1
      - [ -0.70584729393258,  0.00000000000000 ]
      - [ -0.00000000005996,  0.00215952602003 ]
      - [ -0.00000000000440, -0.04212996671524 ]
    - # atom 2
      - [  0.70584729393258,  0.00000000000073 ]
      - [  0.00000000005995,  0.00215952602003 ]
      - [  0.00000000000444, -0.04212996671524 ]
  - # 6
    frequency:  119.4587039648
    eigenvector:
    - # atom 1
      - [ -0.00606383870195,  0.00000000000000 ]
      - [ -0.00000000000853, -0.01585397218180 ]
      - [  0.00000000035686,  0.70690302123152 ]
    - # atom 2
      - [ -0.00606383870195,  0.00000000000612 ]
      - [  0.00000000000747,  0.01585397218180 ]
      - [ -0.00000000035628, -0.70690302123152 ]

- q-position: [    0.0673401,   -0.0336700,    0.0000000 ]
  distance:    0.0293485
  band:
  - # 1
    frequency:    3.8985757791
    eigenvector:
    - # atom 1
      - [ -0.04663765457327,  0.00000000000000 ]
      - [ -0.00000000000403,  0.00518919624310 ]
      - [  0.00000000000043,  0.70554801496302 ]
    - # atom 2
      - [  0.04663765457327, -0.00000000000005 ]
      - [  0.00000000000405,  0.00518919624310 ]
      - [  0.00000000000037,  0.70554801496302 ]
  - # 2
    frequency:   11.3659518332
    eigenvector:
    - # atom 1
      - [ -0.00278374166869,  0.00000000000000 ]
      - [  0.00000001571928, -0.70708350688246 ]
      - [ -0.00000000011153,  0.00501648055136 ]
    - # atom 2
      - [  0.00278374166869,  0.00000000012377 ]
      - [  0.00000001571882, -0.70708350688246 ]
      - [ -0.00000000011152,  0.00501648055136 ]
  - # 3
    frequency:   18.1570815589
    eigenvector:
    - # atom 1
      - [ -0.70707167263246,  0.00000000000000 ]
      - [ -0.00000000006188,  0.00196365690905 ]
      - [  0.00000000000039, -0.00676711255161 ]
    - # atom 2
      - [ -0.70707167263245, -0.00000000000108 ]
      - [ -0.00000000006188, -0.00196365690905 ]
      - [  0.00000000000038,  0.00676711255161 ]
  - # 4
    frequency:  108.9997534226
    eigenvector:
    - # atom 1
      - [ -0.00177426627370,  0.00000000000000 ]
      - [  0.00000002385242, -0.70682956402802 ]
      - [  0.00000000066549, -0.01971850387687 ]
    - # atom 2
      - [ -0.00177426627370, -0.00000000011975 ]
      - [ -0.00000002385180,  0.70682956402802 ]
      - [ -0.00000000066532,  0.01971850387687 ]
  - # 5
    frequency:  109.8417650630
    eigenvector:
    - # atom 1
      - [ -0.70556160606869,  0.00000000000000 ]
      - [ -0.00000000005961,  0.00244674010690 ]
      - [ -0.00000000000556, -0.04665654835736 ]
    - # atom 2
      - [  0.70556160606869,  0.00000000000082 ]
      - [  0.00000000005960,  0.00244674010690 ]
      - [  0.00000000000562, -0.04665654835736 ]
  - # 6
    frequency:  119.2643453490
    eigenvector:
    - # atom 1
      - [ -0.00681921842535,  0.00000000000000 ]
      - [ -0.00000000001187, -0.01970054485277 ]
      - [  0.00000000040494,  0.70679939642912 ]
    - # atom 2
      - [ -0.00681921842535,  0.00000000000781 ]
      - [  0.00000000001068,  0.01970054485277 ]
      - [ -0.00000000040413, -0.70679939642912 ]

- q-position: [    0.0740741,   -0.0370370,    0.0000000 ]
  distance:    0.0322833
  band:
  - # 1
    frequency:    4.3117771391
    eigenvector:
    - # atom 1
      - [ -0.05111640410213,  0.00000000000000 ]
      - [ -0.00000000000443,  0.00473878786592 ]
      - [  0.00000000000062,  0.70524085043425 ]
    - # atom 2
      - [  0.05111640410213, -0.00000000000008 ]
      - [  0.00000000000443,  0.00473878786592 ]
      - [  0.00000000000054,  0.70524085043425 ]
  - # 2
    frequency:   12.4926346820
    eigenvector:
    - # atom 1
      - [ -0.00308411464429,  0.00000000000000 ]
      - [  0.00000001422068, -0.70708555965682 ]
      - [ -0.00000000009106,  0.00452764416276 ]
    - # atom 2
      - [  0.00308411464429,  0.00000000012405 ]
      - [  0.00000001422023, -0.70708555965682 ]
      - [ -0.00000000009105,  0.00452764416276 ]
  - # 3
    frequency:   19.9381602675
    eigenvector:
    - # atom 1
      - [ -0.70706351917776,  0.00000000000000 ]
      - [ -0.00000000006202,  0.00210385106988 ]
      - [  0.00000000000032, -0.00753350241509 ]
    - # atom 2
      - [ -0.70706351917776, -0.00000000000124 ]
      - [ -0.00000000006202, -0.00210385106988 ]
      - [  0.00000000000031,  0.00753350241509 ]
  - # 4
    frequency:  108.8809639081
    eigenvector:
    - # atom 1
      - [ -0.00184672855392,  0.00000000000000 ]
      - [  0.00000002279010, -0.70669594441010 ]
      - [  0.00000000077504, -0.02402980956985 ]
    - # atom 2
      - [ -0.00184672855392, -0.00000000011911 ]
      - [ -0.00000002278945,  0.70669594441010 ]
      - [ -0.00000000077480,  0.02402980956985 ]
  - # 5
    frequency:  109.8983371576
    eigenvector:
    - # atom 1
      - [ -0.70525002762746,  0.00000000000000 ]
      - [ -0.00000000005919,  0.00274867502000 ]
      - [ -0.00000000000692, -0.05113553868989 ]
    - # atom 2
      - [  0.70525002762746,  0.00000000000091 ]
      - [  0.00000000005919,  0.00274867502000 ]
      - [  0.00000000000698, -0.05113553868989 ]
  - # 6
    frequency:  119.0509076443
    eigenvector:
    - # atom 1
      - [ -0.00760062113321,  0.00000000000000 ]
      - [ -0.00000000001615, -0.02400866437332 ]
      - [  0.00000000045622,  0.70665820209872 ]
    - # atom 2
      - [ -0.00760062113321,  0.00000000000980 ]
      - [  0.00000000001481,  0.02400866437332 ]
      - [ -0.00000000045512, -0.70665820209872 ]

- q-position: [    0.0808081,   -0.0404040,    0.0000000 ]
  distance:    0.0352182
  band:
  - # 1
    frequency:    4.7312399019
    eigenvector:
    - # atom 1
      - [ -0.05554393157762,  0.00000000000000 ]
      - [ -0.00000000000481,  0.00424484703416 ]
      - [  0.00000000000079,  0.70490910970036 ]
    - # atom 2
      - [  0.05554393157762, -0.00000000000012 ]
      - [  0.00000000000482,  0.00424484703416 ]
      - [  0.00000000000068,  0.70490910970036 ]
  - # 2
    frequency:   13.6165358345
    eigenvector:
    - # atom 1
      - [ -0.00339072148960,  0.00000000000000 ]
      - [  0.00000001296581, -0.70708738965400 ]
      - [ -0.00000000007319,  0.00399078940495 ]
    - # atom 2
      - [  0.00339072148960,  0.00000000012435 ]