mesh: [    48,    48,     1 ]
nqpoint: 217    
reciprocal_lattice:
- [   0.43582507,   0.25162372,   0.00000000 ] # a*
- [   0.00000000,   0.50324744,   0.00000000 ] # b*
- [   0.00000000,   0.00000000,   0.06250000 ] # c*
natom:   2      
lattice:
- [     2.294498594447439,     0.000000000000000,     0.000000000000000 ] # a
- [    -1.147249297223719,     1.987094071739169,     0.000000000000000 ] # b
- [     0.000000000000000,     0.000000000000000,    16.000000000000000 ] # c
points:
- symbol: H  # 1
  coordinates: [  0.666666666666664,  0.333333333333336,  0.478221853946259 ]
  mass: 1.007940
- symbol: H  # 2
  coordinates: [  0.333333333333336,  0.666666666666664,  0.521778146053741 ]
  mass: 1.007940

phonon:
- q-position: [    0.0000000,    0.0000000,    0.0000000 ]
  distance_from_gamma:  0.000000000
  weight: 1    
  band:
  - # 1
    frequency:    -0.0003727012
  - # 2
    frequency:     0.0005270810
  - # 3
    frequency:     0.0006455396
  - # 4
    frequency:   109.5623698520
  - # 5
    frequency:   109.5623698552
  - # 6
    frequency:   120.3004178543

- q-position: [    0.0208333,    0.0000000,    0.0000000 ]
  distance_from_gamma:  0.010484322
  weight: 6    
  band:
  - # 1
    frequency:     1.3603765285
  - # 2
    frequency:     4.0722314108
  - # 3
    frequency:     6.5342030425
  - # 4
    frequency:   109.4909227865
  - # 5
    frequency:   109.5988605401
  - # 6
    frequency:   120.1664069960

- q-position: [    0.0416667,    0.0000000,    0.0000000 ]
  distance_from_gamma:  0.020968643
  weight: 6    
  band:
  - # 1
    frequency:     2.7497980450
  - # 2
    frequency:     8.1240913712
  - # 3
    frequency:    13.0324025987
  - # 4
    frequency:   109.2773312985
  - # 5
    frequency:   109.7054047988
  - # 6
    frequency:   119.7676053806

- q-position: [    0.0625000,    0.0000000,    0.0000000 ]
  distance_from_gamma:  0.031452965
  weight: 6    
  band:
  - # 1
    frequency:     4.1948812772
  - # 2
    frequency:    12.1354935180
  - # 3
    frequency:    19.4588938586
  - # 4
    frequency:   108.9238450232
  - # 5
    frequency:   109.8724356544
  - # 6
    frequency:   119.1145592473

- q-position: [    0.0833333,    0.0000000,    0.0000000 ]
  distance_from_gamma:  0.041937286
  weight: 6    
  band:
  - # 1
    frequency:     5.7178323661
  - # 2
    frequency:    16.0869138530
  - # 3
    frequency:    25.7785577594
  - # 4
    frequency:   108.4342146761
  - # 5
    frequency:   110.0805811045
  - # 6
    frequency:   118.2284977452

- q-position: [    0.1041667,    0.0000000,    0.0000000 ]
  distance_from_gamma:  0.052421608
  weight: 6    
  band:
  - # 1
    frequency:     7.3351985731
  - # 2
    frequency:    19.9596528709
  - # 3
    frequency:    31.9571240990
  - # 4
    frequency:   107.8136930731
  - # 5
    frequency:   110.2915263386
  - # 6
    frequency:   117.1507838747

- q-position: [    0.1250000,    0.0000000,    0.0000000 ]
  distance_from_gamma:  0.062905930
  weight: 6    
  band:
  - # 1
    frequency:     9.0574125037
  - # 2
    frequency:    23.7360744667
  - # 3
    frequency:    37.9613948315
  - # 4
    frequency:   107.0690347533
  - # 5
    frequency:   110.4217094655
  - # 6
    frequency:   115.9696161355

- q-position: [    0.1458333,    0.0000000,    0.0000000 ]
  distance_from_gamma:  0.073390251
  weight: 6    
  band:
  - # 1
    frequency:    10.8889987776
  - # 2
    frequency:    27.3998135407
  - # 3
    frequency:    43.7594055847
  - # 4
    frequency:   106.2084927637
  - # 5
    frequency:   110.2770705420
  - # 6
    frequency:   114.8857372115

- q-position: [    0.1666667,    0.0000000,    0.0000000 ]
  distance_from_gamma:  0.083874573
  weight: 6    
  band:
  - # 1
    frequency:    12.8292196761
  - # 2
    frequency:    30.9359436911
  - # 3
    frequency:    49.3204902469
  - # 4
    frequency:   105.2418112978
  - # 5
    frequency:   109.5298941873
  - # 6
    frequency:   114.2361024067

- q-position: [    0.1875000,    0.0000000,    0.0000000 ]
  distance_from_gamma:  0.094358895
  weight: 6    
  band:
  - # 1
    frequency:    14.8729320294
  - # 2
    frequency:    34.3310956553
  - # 3
    frequency:    54.6151855219
  - # 4
    frequency:   104.1802134795
  - # 5
    frequency:   108.0633875808
  - # 6
    frequency:   114.1498963842

- q-position: [    0.2083333,    0.0000000,    0.0000000 ]
  distance_from_gamma:  0.104843216
  weight: 6    
  band:
  - # 1
    frequency:    17.0114726365
  - # 2
    frequency:    37.5735160759
  - # 3
    frequency:    59.6148503508
  - # 4
    frequency:   103.0363848199
  - # 5
    frequency:   106.1054530140
  - # 6
    frequency:   114.4155448754

- q-position: [    0.2291667,    0.0000000,    0.0000000 ]
  distance_from_gamma:  0.115327538
  weight: 6    
  band:
  - # 1
    frequency:    19.2334450883
  - # 2
    frequency:    40.6530546404
  - # 3
    frequency:    64.2907298853
  - # 4
    frequency:   101.8244549049
  - # 5
    frequency:   103.8634737844
  - # 6
    frequency:   114.8471699317

- q-position: [    0.2500000,    0.0000000,    0.0000000 ]
  distance_from_gamma:  0.125811859
  weight: 6    
  band:
  - # 1
    frequency:    21.5253238174
  - # 2
    frequency:    43.5610656501
  - # 3
    frequency:    68.6118302129
  - # 4
    frequency:   100.5599828397
  - # 5
    frequency:   101.4544924835
  - # 6
    frequency:   115.3567593482

- q-position: [    0.2708333,    0.0000000,    0.0000000 ]
  distance_from_gamma:  0.136296181
  weight: 6    
  band:
  - # 1
    frequency:    23.8718126654
  - # 2
    frequency:    46.2902077664
  - # 3
    frequency:    72.5399873024
  - # 4
    frequency:    98.9621788492
  - # 5
    frequency:    99.2599558451
  - # 6
    frequency:   115.9023079074

- q-position: [    0.2916667,    0.0000000,    0.0000000 ]
  distance_from_gamma:  0.146780503
  weight: 6    
  band:
  - # 1
    frequency:    26.2558939687
  - # 2
    frequency:    48.8341236604
  - # 3
    frequency:    76.0176464361
  - # 4
    frequency:    96.4767873370
  - # 5
    frequency:    97.9428147255
  - # 6
    frequency:   116.4602808592

- q-position: [    0.3125000,    0.0000000,    0.0000000 ]
  distance_from_gamma:  0.157264824
  weight: 6    
  band:
  - # 1
    frequency:    28.6584806096
  - # 2
    frequency:    51.1869810924
  - # 3
    frequency:    78.9353312374
  - # 4
    frequency:    94.1386570353
  - # 5
    frequency:    96.6285233092
  - # 6
    frequency:   117.0149736897

- q-position: [    0.3333333,    0.0000000,    0.0000000 ]
  distance_from_gamma:  0.167749146
  weight: 6    
  band:
  - # 1
    frequency:    31.0575370844
  - # 2
    frequency:    53.3428619519
  - # 3
    frequency:    81.0483547104
  - # 4
    frequency:    92.2265167774
  - # 5
    frequency:    95.3386981401
  - # 6
    frequency:   117.5541135684

- q-position: [    0.3541667,    0.0000000,    0.0000000 ]
  distance_from_gamma:  0.178233468
  weight: 6    
  band:
  - # 1
    frequency:    33.4264660248
  - # 2
    frequency:    55.2950026327
  - # 3
    frequency:    81.8883245680
  - # 4
    frequency:    91.2491871151
  - # 5
    frequency:    94.0968030760
  - # 6
    frequency:   118.0667942852

- q-position: [    0.3750000,    0.0000000,    0.0000000 ]
  distance_from_gamma:  0.188717789
  weight: 6    
  band:
  - # 1
    frequency:    35.7314738281
  - # 2
    frequency:    57.0349291619
  - # 3
    frequency:    81.2172230380
  - # 4
    frequency:    91.4945263981
  - # 5
    frequency:    92.9283795509
  - # 6
    frequency:   118.5424408172

- q-position: [    0.3958333,    0.0000000,    0.0000000 ]
  distance_from_gamma:  0.199202111
  weight: 6    
  band:
  - # 1
    frequency:    37.9275895646
  - # 2
    frequency:    58.5516094647
  - # 3
    frequency:    79.6188139753
  - # 4
    frequency:    91.8612110683
  - # 5
    frequency:    92.4416638936
  - # 6
    frequency:   118.9703766576

- q-position: [    0.4166667,    0.0000000,    0.0000000 ]
  distance_from_gamma:  0.209686432
  weight: 6    
  band:
  - # 1
    frequency:    39.9532209675
  - # 2
    frequency:    59.8308745733
  - # 3
    frequency:    77.7490957503
  - # 4
    frequency:    90.9251978584
  - # 5
    frequency:    93.5151072054
  - # 6
    frequency:   119.3398541842

- q-position: [    0.4375000,    0.0000000,    0.0000000 ]
  distance_from_gamma:  0.220170754
  weight: 6    
  band:
  - # 1
    frequency:    41.7241675460
  - # 2
    frequency:    60.8555202397
  - # 3
    frequency:    75.9717933128
  - # 4
    frequency:    90.1515639804
  - # 5
    frequency:    94.4539437504
  - # 6
    frequency:   119.6404713991

- q-position: [    0.4583333,    0.0000000,    0.0000000 ]
  distance_from_gamma:  0.230655076
  weight: 6    
  band:
  - # 1
    frequency:    43.1309780884
  - # 2
    frequency:    61.6065860479
  - # 3
    frequency:    74.5124541627
  - # 4
    frequency:    89.5709376483
  - # 5
    frequency:    95.1588509128
  - # 6
    frequency:   119.8628700287

- q-position: [    0.4791667,    0.0000000,    0.0000000 ]
  distance_from_gamma:  0.241139397
  weight: 6    
  band:
  - # 1
    frequency:    44.0487189426
  - # 2
    frequency:    62.0661021433
  - # 3
    frequency:    73.5478715120
  - # 4
    frequency:    89.2100537767
  - # 5
    frequency:    95.5913436168
  - # 6
    frequency:   119.9995596012

- q-position: [    0.5000000,    0.0000000,    0.0000000 ]
  distance_from_gamma:  0.251623719
  weight: 3    
  band:
  - # 1
    frequency:    44.3693347783
  - # 2
    frequency:    62.2208978258
  - # 3
    frequency:    73.2093822756
  - # 4
    frequency:    89.0875211014
  - # 5
    frequency:    95.7367726441
  - # 6
    frequency:   120.0456838729

- q-position: [    0.0208333,    0.0208333,    0.0000000 ]
  distance_from_gamma:  0.018159378
  weight: 6    
  band:
  - # 1
    frequency:     2.3725513894
  - # 2
    frequency:     7.0492001672
  - # 3
    frequency:    11.2921305380
  - # 4
    frequency:   109.3475265110
  - # 5
    frequency:   109.6713108657
  - # 6
    frequency:   119.8999427277

- q-position: [    0.0416667,    0.0208333,    0.0000000 ]
  distance_from_gamma:  0.027738908
  weight: 12   
  band:
  - # 1
    frequency:     3.6746467604
  - # 2
    frequency:    10.7391711691
  - # 3
    frequency:    17.1811853035
  - # 4
    frequency:   109.0614159796
  - # 5
    frequency:   109.8111662652
  - # 6
    frequency:   119.3735055627

- q-position: [    0.0625000,    0.0208333,    0.0000000 ]
  distance_from_gamma:  0.037801759
  weight: 12   
  band:
  - # 1
    frequency:     5.1063390807
  - # 2
    frequency:    14.5661443932
  - # 3
    frequency:    23.2827238988
  - # 4
    frequency:   108.6356384544
  - # 5
    frequency:   110.0049852618
  - # 6
    frequency:   118.6018841053

- q-position: [    0.0833333,    0.0208333,    0.0000000 ]
  distance_from_gamma:  0.048045197
  weight: 12   
  band:
  - # 1
    frequency:     6.6475813209
  - # 2
    frequency:    18.3934654822
  - # 3
    frequency:    29.3733319171
  - # 4
    frequency:   108.0744381835
  - # 5
    frequency:   110.2269188707
  - # 6
    frequency:   117.6136050181

- q-position: [    0.1041667,    0.0208333,    0.0000000 ]
  distance_from_gamma:  0.058374232
  weight: 12   
  band:
  - # 1
    frequency:     8.2994859123
  - # 2
    frequency:    22.1662179635
  - # 3
    frequency:    35.3599904140
  - # 4
    frequency:   107.3833173274
  - # 5
    frequency:   110.4235191465
  - # 6
    frequency:   116.4664226204

- q-position: [    0.1250000,    0.0208333,    0.0000000 ]
  distance_from_gamma:  0.068750294
  weight: 12   
  band:
  - # 1
    frequency:    10.0644721177
  - # 2
    frequency:    25.8525014411
  - # 3
    frequency:    41.1860493451
  - # 4
    frequency:   106.5689279417
  - # 5
    frequency:   110.4698871957
  - # 6
    frequency:   115.2917083160

- q-position: [    0.1458333,    0.0208333,    0.0000000 ]
  distance_from_gamma:  0.079154892
  weight: 12   
  band:
  - # 1
    frequency:    11.9419823402
  - # 2
    frequency:    29.4295326320
  - # 3
    frequency:    46.8086632549
  - # 4
    frequency:   105.6387841641
  - # 5
    frequency:   110.0882164413
  - # 6
    frequency:   114.3766774108

- q-position: [    0.1666667,    0.0208333,    0.0000000 ]
  distance_from_gamma:  0.089578083
  weight: 12   
  band:
  - # 1
    frequency:    13.9277497642
  - # 2
    frequency:    32.8793306845
  - # 3
    frequency:    52.1915744761
  - # 4
    frequency:   104.6005943804
  - # 5
    frequency:   108.9837342272
  - # 6
    frequency:   114.0296599743

- q-position: [    0.1875000,    0.0208333,    0.0000000 ]
  distance_from_gamma:  0.100014054
  weight: 12   
  band:
  - # 1
    frequency:    16.0141038187
  - # 2
    frequency:    36.1870990621
  - # 3
    frequency:    57.3021164596
  - # 4
    frequency:   103.4605518886
  - # 5
    frequency:   107.2645182965
  - # 6
    frequency:   114.1626658451

- q-position: [    0.2083333,    0.0208333,    0.0000000 ]
  distance_from_gamma:  0.110459182
  weight: 12   
  band:
  - # 1
    frequency:    18.1905585761
  - # 2
    frequency:    39.3404991827
  - # 3
    frequency:    62.1093581573
  - # 4
    frequency:   102.2182400608
  - # 5
    frequency:   105.2041777269
  - # 6
    frequency:   114.5347779570

- q-position: [    0.2291667,    0.0208333,    0.0000000 ]
  distance_from_gamma:  0.120911095
  weight: 12   
  band:
  - # 1
    frequency:    20.4443887033
  - # 2
    frequency:    42.3292290870
  - # 3
    frequency:    66.5820377687
  - # 4
    frequency:   100.8487122814
  - # 5
    frequency:   102.9980335912
  - # 6
    frequency:   115.0156147765

- q-position: [    0.2500000,    0.0208333,    0.0000000 ]
  distance_from_gamma:  0.131368173
  weight: 12   
  band:
  - # 1
    frequency:    22.7610507620
  - # 2
    frequency:    45.1446784317
  - # 3
    frequency:    70.6849032550
  - # 4
    frequency:    99.2444892046
  - # 5
    frequency:   100.8629785433
  - # 6
    frequency:   115.5470133559

- q-position: [    0.2708333,    0.0208333,    0.0000000 ]
  distance_from_gamma:  0.141829274
  weight: 12   
  band:
  - # 1
    frequency:    25.1243593358
  - # 2
    frequency:    47.7795525584
  - # 3
    frequency:    74.3705630322
  - # 4
    frequency:    97.2428725193
  - # 5
    frequency:    99.0619986787
  - # 6
    frequency:   116.0993682997

- q-position: [    0.2916667,    0.0208333,    0.0000000 ]
  distance_from_gamma:  0.152293568
  weight: 12   
  band:
  - # 1
    frequency:    27.5163313401
  - # 2
    frequency:    50.2274044524
  - # 3
    frequency:    77.5589654006
  - # 4
    frequency:    95.0227202370
  - # 5
    frequency:    97.5451965047
  - # 6
    frequency:   116.6545614227

- q-position: [    0.3125000,    0.0208333,    0.0000000 ]
  distance_from_gamma:  0.162760440
  weight: 12   
  band:
  - # 1
    frequency:    29.9165840972
  - # 2
    frequency:    52.4820348906
  - # 3
    frequency:    80.0832941534
  - # 4
    frequency:    92.9639934801
  - # 5
    frequency:    96.1514014193
  - # 6
    frequency:   117.1994176381

- q-position: [    0.3333333,    0.0208333,    0.0000000 ]
  distance_from_gamma:  0.173229423
  weight: 12   
  band:
  - # 1
    frequency:    32.3011176144
  - # 2
    frequency:    54.5367399775
  - # 3
    frequency:    81.5827269119
  - # 4
    frequency:    91.5334721983
  - # 5
    frequency:    94.8335544699
  - # 6
    frequency:   117.7228512830

- q-position: [    0.3541667,    0.0208333,    0.0000000 ]
  distance_from_gamma:  0.183700155
  weight: 12   
  band:
  - # 1
    frequency:    34.6402331297
  - # 2
    frequency:    56.3834189185
  - # 3
    frequency:    81.6112303499
  - # 4
    frequency:    91.2431379644
  - # 5
    frequency:    93.5946986943
  - # 6
    frequency:   118.2144634285

- q-position: [    0.3750000,    0.0208333,    0.0000000 ]
  distance_from_gamma:  0.194172354
  weight: 12   
  band:
  - # 1
    frequency:    36.8952640329
  - # 2
    frequency:    58.0116265631
  - # 3
    frequency:    80.3814251970
  - # 4
    frequency:    91.9284782792
  - # 5
    frequency:    92.4693000859
  - # 6
    frequency:   118.6638652114

- q-position: [    0.3958333,    0.0208333,    0.0000000 ]
  distance_from_gamma:  0.204645794
  weight: 12   
  band:
  - # 1
    frequency:    39.0138316482
  - # 2
    frequency:    59.4077996304
  - # 3
    frequency:    78.6078329299
  - # 4
    frequency:    91.4125257750
  - # 5
    frequency:    93.0201253876
  - # 6
    frequency:   119.0604993020

- q-position: [    0.4166667,    0.0208333,    0.0000000 ]
  distance_from_gamma:  0.215120294
  weight: 12   
  band:
  - # 1
    frequency:    40.9238423915
  - # 2
    frequency:    60.5551391378
  - # 3
    frequency:    76.7756999284
  - # 4
    frequency:    90.5434170368
  - # 5
    frequency:    94.0361607682
  - # 6
    frequency:   119.3938763908

- q-position: [    0.4375000,    0.0208333,    0.0000000 ]
  distance_from_gamma:  0.225595707
  weight: 12   
  band:
  - # 1
    frequency:    42.5282799161
  - # 2
    frequency:    61.4349480189
  - # 3
    frequency:    75.1575255745
  - # 4
    frequency:    89.8522842354
  - # 5
    frequency:    94.8599513814
  - # 6
    frequency:   119.6541473271

- q-position: [    0.4583333,    0.0208333,    0.0000000 ]
  distance_from_gamma:  0.236071910
  weight: 12   
  band:
  - # 1
    frequency:    43.7071425910
  - # 2
    frequency:    62.0301258342
  - # 3
    frequency:    73.9471196970
  - # 4
    frequency:    89.3710448586
  - # 5
    frequency:    95.4281460502
  - # 6
    frequency:   119.8328835687

- q-position: [    0.4791667,    0.0208333,    0.0000000 ]
  distance_from_gamma:  0.246548804
  weight: 12   
  band:
  - # 1
    frequency:    44.3377084773
  - # 2
    frequency:    62.3296517815
  - # 3
    frequency:    73.2965967875
  - # 4
    frequency:    89.1237085082
  - # 5
    frequency:    95.7164781986
  - # 6
    frequency:   119.9238936344

- q-position: [    0.0416667,    0.0416667,    0.0000000 ]
  distance_from_gamma:  0.036318755
  weight: 6    
  band:
  - # 1
    frequency:     4.8902347988
  - # 2
    frequency:    14.0372344594
  - # 3
    frequency:    22.3709312064
  - # 4
    frequency:   108.6986719371
  - # 5
    frequency:   109.9835359508
  - # 6
    frequency:   118.7270672053

- q-position: [    0.0625000,    0.0416667,    0.0000000 ]
  distance_from_gamma:  0.045700098
  weight: 12   
  band:
  - # 1
    frequency:     6.2861907136
  - # 2
    frequency:    17.5909418413
  - # 3
    frequency:    27.9506415080
  - # 4
    frequency:   108.1928230800
  - # 5
    frequency:   110.2057487349
  - # 6
    frequency:   117.8469821073

- q-position: [    0.0833333,    0.0416667,    0.0000000 ]
  distance_from_gamma:  0.055477815
  weight: 12   
  band:
  - # 1
    frequency:     7.8254047657
  - # 2
    frequency:    21.2196469059
  - # 3
    frequency:    33.6374273493
  - # 4
    frequency:   107.5483251051
  - # 5
    frequency:   110.4456752441
  - # 6
    frequency:   116.7692816663

- q-position: [    0.1041667,    0.0416667,    0.0000000 ]
  distance_from_gamma:  0.065474568
  weight: 12   
  band:
  - # 1
    frequency:     9.4948702234
  - # 2
    frequency:    24.8361498286
  - # 3
    frequency:    39.2885388572
  - # 4
    frequency:   106.7699566081
  - # 5
    frequency:   110.6315033057
  - # 6
    frequency:   115.5724631389

- q-position: [    0.1250000,    0.0416667,    0.0000000 ]
  distance_from_gamma:  0.075603518
  weight: 12   
  band:
  - # 1
    frequency:    11.2877978994
  - # 2
    frequency:    28.3905186088
  - # 3
    frequency:    44.8181153471
  - # 4
    frequency:   105.8624783047
  - # 5
    frequency:   110.5759593602
  - # 6
    frequency:   114.4540732467

- q-position: [    0.1458333,    0.0416667,    0.0000000 ]
  distance_from_gamma:  0.085817871
  weight: 12   
  band:
  - # 1
    frequency:    13.1975517082
  - # 2
    frequency:    31.8499290896
  - # 3
    frequency:    50.1663064849
  - # 4
    frequency:   104.8297036871
  - # 5
    frequency:   109.9051512043
  - # 6
    frequency:   113.8033230377

- q-position: [    0.1666667,    0.0416667,    0.0000000 ]
  distance_from_gamma:  0.096090395
  weight: 12   
  band:
  - # 1
    frequency:    15.2157559125
  - # 2
    frequency:    35.1906768618
  - # 3
    frequency:    55.2864849905
  - # 4
    frequency:   103.6725460802
  - # 5
    frequency:   108.4925113496
  - # 6
    frequency:   113.7697311627

- q-position: [    0.1875000,    0.0416667,    0.0000000 ]
  distance_from_gamma:  0.106404243
  weight: 12   
  band:
  - # 1
    frequency:    17.3319303697
  - # 2
    frequency:    38.3946419174
  - # 3
    frequency:    60.1390671456
  - # 4
    frequency:   102.3851802023
  - # 5
    frequency:   106.6486307387
  - # 6
    frequency:   114.0779962788

- q-position: [    0.2083333,    0.0416667,    0.0000000 ]
  distance_from_gamma:  0.116748465
  weight: 12   
  band:
  - # 1
    frequency:    19.5336574934
  - # 2
    frequency:    41.4475258343
  - # 3
    frequency:    64.6875916492
  - # 4
    frequency:   100.9485685428
  - # 5
    frequency:   104.6276161486
  - # 6
    frequency:   114.5295306471

- q-position: [    0.2291667,    0.0416667,    0.0000000 ]
  distance_from_gamma:  0.127115644
  weight: 12   
  band:
  - # 1
    frequency:    21.8068584367
  - # 2
    frequency:    44.3378253329
  - # 3
    frequency:    68.8947467535
  - # 4
    frequency:    99.3261723005
  - # 5
    frequency:   102.5927687940
  - # 6
    frequency:   115.0437941750

- q-position: [    0.2500000,    0.0416667,    0.0000000 ]
  distance_from_gamma:  0.137500589
  weight: 12   
  band:
  - # 1
    frequency:    24.1359713035
  - # 2
    frequency:    47.0560934407
  - # 3
    frequency:    72.7158269098
  - # 4
    frequency:    97.4879015865
  - # 5
    frequency:   100.6720057642
  - # 6
    frequency:   115.5848499968

- q-position: [    0.2708333,    0.0416667,    0.0000000 ]
  distance_from_gamma:  0.147899557
  weight: 12   
  band:
  - # 1
    frequency:    26.5039008187
  - # 2
    frequency:    49.5942677989
  - # 3
    frequency:    76.0843283444
  - # 4
    frequency:    95.4851372693
  - # 5
    frequency:    98.9256081555
  - # 6
    frequency:   116.1327932090

- q-position: [    0.2916667,    0.0416667,    0.0000000 ]
  distance_from_gamma:  0.158309785
  weight: 12   
  band:
  - # 1
    frequency:    28.8916195118
  - # 2
    frequency:    51.9449413371
  - # 3
    frequency:    78.8760813313
  - # 4
    frequency:    93.5071126029
  - # 5
    frequency:    97.3354972977
  - # 6
    frequency:   116.6741463883

- q-position: [    0.3125000,    0.0416667,    0.0000000 ]
  distance_from_gamma:  0.168729188
  weight: 12   
  band:
  - # 1
    frequency:    31.2772697572
  - # 2
    frequency:    54.1004974137
  - # 3
    frequency:    80.8283387205
  - # 4
    frequency:    91.9058855382
  - # 5
    frequency:    95.8655885969
  - # 6
    frequency:   117.1981343903

- q-position: [    0.3333333,    0.0416667,    0.0000000 ]
  distance_from_gamma:  0.179156166
  weight: 12   
  band:
  - # 1
    frequency:    33.6345523149
  - # 2
    frequency:    56.0520714402
  - # 3
    frequency:    81.5053298422
  - # 4
    frequency:    91.1952157698
  - # 5
    frequency:    94.5004825437
  - # 6
    frequency:   117.6949690363

- q-position: [    0.3541667,    0.0416667,    0.0000000 ]
  distance_from_gamma:  0.189589469
  weight: 12   
  band:
  - # 1
    frequency:    35.9301015089
  - # 2
    frequency:    57.7883746150
  - # 3
    frequency:    80.7881858989
  - # 4
    frequency:    91.5560247791
  - # 5
    frequency:    93.2533360617
  - # 6
    frequency:   118.1549867363

- q-position: [    0.3750000,    0.0416667,    0.0000000 ]
  distance_from_gamma:  0.200028108
  weight: 12   
  band:
  - # 1
    frequency:    38.1194918792
  - # 2
    frequency:    59.2945937937
  - # 3
    frequency:    79.2501575841
  - # 4
    frequency:    91.9782092021
  - # 5
    frequency:    92.6527465296
  - # 6
    frequency:   118.5682939755

- q-position: [    0.3958333,    0.0416667,    0.0000000 ]
  distance_from_gamma:  0.210471288
  weight: 12   
  band:
  - # 1
    frequency:    40.1416936153
  - # 2
    frequency:    60.5520013743
  - # 3
    frequency:    77.4740792330
  - # 4
    frequency:    91.0548408386
  - # 5
    frequency:    93.6353674275
  - # 6
    frequency:   118.9248235290

- q-position: [    0.4166667,    0.0416667,    0.0000000 ]
  distance_from_gamma:  0.220918365
  weight: 12   
  band:
  - # 1
    frequency:    41.9127781175
  - # 2
    frequency:    61.5397252754
  - # 3
    frequency:    75.7969367119
  - # 4
    frequency:    90.2389745118
  - # 5
    frequency:    94.5470559169
  - # 6
    frequency:   119.2147499968

- q-position: [    0.4375000,    0.0416667,    0.0000000 ]
  distance_from_gamma:  0.231368811
  weight: 12   
  band:
  - # 1
    frequency:    43.3226727476
  - # 2
    frequency:    62.2408466629
  - # 3
    frequency:    74.4338766845
  - # 4
    frequency:    89.6226695845
  - # 5
    frequency:    95.2348212656
  - # 6
    frequency:   119.4291765208

- q-position: [    0.4583333,    0.0416667,    0.0000000 ]
  distance_from_gamma:  0.241822191
  weight: 12   
  band:
  - # 1
    frequency:    44.2443521699
  - # 2
    frequency:    62.6521844226
  - # 3
    frequency:    73.5448956600
  - # 4
    frequency:    89.2385340061
  - # 5
    frequency:    95.6575206896
  - # 6
    frequency:   119.5609478002

- q-position: [    0.4791667,    0.0416667,    0.0000000 ]
  distance_from_gamma:  0.252278138
  weight: 6    
  band:
  - # 1
    frequency:    44.5667862391
  - # 2
    frequency:    62.7861812576
  - # 3
    frequency:    73.2361532322
  - # 4
    frequency:    89.1079269114
  - # 5
    frequency:    95.7997568257
  - # 6
    frequency:   119.6054101011

- q-position: [    0.0625000,    0.0625000,    0.0000000 ]
  distance_from_gamma:  0.054478133
  weight: 6    
  band:
  - # 1
    frequency:     7.6636120142
  - # 2
    frequency:    20.9074238645
  - # 3
    frequency:    33.0294808465
  - # 4
    frequency:   107.5987017948
  - # 5
    frequency:   110.4572831535
  - # 6
    frequency:   116.8710120493

- q-position: [    0.0833333,    0.0625000,    0.0000000 ]
  distance_from_gamma:  0.063773639
  weight: 12   
  band:
  - # 1
    frequency:     9.2031842837
  - # 2
    frequency:    24.3433514228
  - # 3
    frequency:    38.2705834611
  - # 4
    frequency:   106.8576238034
  - # 5
    frequency:   110.7234959302
  - # 6
    frequency:   115.7156517846

- q-position: [    0.1041667,    0.0625000,    0.0000000 ]
  distance_from_gamma:  0.073390251
  weight: 12   
  band:
  - # 1
    frequency:    10.8860404516
  - # 2
    frequency:    27.8001796383
  - # 3
    frequency:    43.5237557011
  - # 4
    frequency:   105.9732438897
  - # 5
    frequency:   110.9099595354
  - # 6
    frequency:   114.4849652662

- q-position: [    0.1250000,    0.0625000,    0.0000000 ]
  distance_from_gamma:  0.083216723
  weight: 12   
  band:
  - # 1
    frequency:    12.6994778805
  - # 2
    frequency:    31.2173739104
  - # 3
    frequency:    48.6902471155
  - # 4
    frequency:   104.9478772994
  - # 5
    frequency:   110.7118501219
  - # 6
    frequency:   113.4986255286

- q-position: [    0.1458333,    0.0625000,    0.0000000 ]
  distance_from_gamma:  0.093186689
  weight: 12   
  band:
  - # 1
    frequency:    14.6322294077
  - # 2
    frequency:    34.5546917819
  - # 3
    frequency:    53.6991709375
  - # 4
    frequency:   103.7815789113
  - # 5
    frequency:   109.6741620099
  - # 6
    frequency:   113.2332409022

- q-position: [    0.1666667,    0.0625000,    0.0000000 ]
  distance_from_gamma:  0.103258593
  weight: 12   
  band:
  - # 1
    frequency:    16.6725553183
  - # 2
    frequency:    37.7835709128
  - # 3
    frequency:    58.4952619827
  - # 4
    frequency:   102.4709376321
  - # 5
    frequency:   108.0341122320
  - # 6
    frequency:   113.4819776952

- q-position: [    0.1875000,    0.0625000,    0.0000000 ]
  distance_from_gamma:  0.113405278
  weight: 12   
  band:
  - # 1
    frequency:    18.8076159942
  - # 2
    frequency:    40.8827507883
  - # 3
    frequency:    63.0317233811
  - # 4
    frequency:   101.0086149026
  - # 5
    frequency:   106.1646191887
  - # 6
    frequency:   113.9128118857

- q-position: [    0.2083333,    0.0625000,    0.0000000 ]
  distance_from_gamma:  0.123608329
  weight: 12   
  band:
  - # 1
    frequency:    21.0233647360
  - # 2
    frequency:    43.8358604605
  - # 3
    frequency:    67.2647802101
  - # 4
    frequency:    99.3868571450
  - # 5
    frequency:   104.2299036110
  - # 6
    frequency:   114.4117079978

- q-position: [    0.2291667,    0.0625000,    0.0000000 ]
  distance_from_gamma:  0.133854858
  weight: 12   
  band:
  - # 1
    frequency:    23.3045769482
  - # 2
    frequency:    46.6299156006
  - # 3
    frequency:    71.1472508667
  - # 4
    frequency:    97.6108508200
  - # 5
    frequency:   102.3214706872
  - # 6
    frequency:   114.9379826525

- q-position: [    0.2500000,    0.0625000,    0.0000000 ]
  distance_from_gamma:  0.144135592
  weight: 12   
  band:
  - # 1
    frequency:    25.6348007732
  - # 2
    frequency:    49.2542019535
  - # 3
    frequency:    74.6170513570
  - # 4
    frequency:    95.7251610918
  - # 5
    frequency:   100.4947881739
  - # 6
    frequency:   115.4717923789

- q-position: [    0.2708333,    0.0625000,    0.0000000 ]
  distance_from_gamma:  0.154443702
  weight: 12   
  band:
  - # 1
    frequency:    27.9960776055
  - # 2
    frequency:    51.6992584003
  - # 3
    frequency:    77.5715127408
  - # 4
    frequency:    93.8490414238
  - # 5
    frequency:    98.7729881138
  - # 6
    frequency:   116.0005295026

- q-position: [    0.2916667,    0.0625000,    0.0000000 ]
  distance_from_gamma:  0.164774048
  weight: 12   