phonopy:
  version: "2.20.0"
  frequency_unit_conversion_factor: 15.633302
  symmetry_tolerance: 1.00000e-05
  configuration:
    atom_name: "N"
    dim: "3 3 1"
    cell_filename: "POSCAR"
    create_displacements: ".true."

physical_unit:
  atomic_mass: "AMU"
  length: "angstrom"
  force_constants: "eV/angstrom^2"

space_group:
  type: "P-3m1"
  number: 164
  Hall_symbol: "-P 3 2\""

supercell_matrix:
- [   3,   0,   0 ]
- [   0,   3,   0 ]
- [   0,   0,   1 ]

primitive_cell:
  lattice:
  - [     2.294498594447439,     0.000000000000000,     0.000000000000000 ] # a
  - [    -1.147249297223719,     1.987094071739169,     0.000000000000000 ] # b
  - [     0.000000000000000,     0.000000000000000,    16.000000000000000 ] # c
  points:
  - symbol: H  # 1
    coordinates: [  0.666666666666664,  0.333333333333336,  0.478221853946259 ]
    mass: 1.007940
  - symbol: H  # 2
    coordinates: [  0.333333333333336,  0.666666666666664,  0.521778146053741 ]
    mass: 1.007940
  reciprocal_lattice: # without 2pi
  - [     0.435825065406423,     0.251623718831984,     0.000000000000000 ] # a*
  - [     0.000000000000000,     0.503247437663969,     0.000000000000000 ] # b*
  - [     0.000000000000000,     0.000000000000000,     0.062500000000000 ] # c*

unit_cell:
  lattice:
  - [     2.294498594447439,     0.000000000000000,     0.000000000000000 ] # a
  - [    -1.147249297223719,     1.987094071739169,     0.000000000000000 ] # b
  - [     0.000000000000000,     0.000000000000000,    16.000000000000000 ] # c
  points:
  - symbol: H  # 1
    coordinates: [  0.666666666666664,  0.333333333333336,  0.478221853946259 ]
    mass: 1.007940
    reduced_to: 1
  - symbol: H  # 2
    coordinates: [  0.333333333333336,  0.666666666666664,  0.521778146053741 ]
    mass: 1.007940
    reduced_to: 2

supercell:
  lattice:
  - [     6.883495783342316,     0.000000000000000,     0.000000000000000 ] # a
  - [    -3.441747891671158,     5.961282215217508,     0.000000000000000 ] # b
  - [     0.000000000000000,     0.000000000000000,    16.000000000000000 ] # c
  points:
  - symbol: H  # 1
    coordinates: [  0.222222222222221,  0.111111111111112,  0.478221853946259 ]
    mass: 1.007940
    reduced_to: 1
  - symbol: H  # 2
    coordinates: [  0.555555555555555,  0.111111111111112,  0.478221853946259 ]
    mass: 1.007940
    reduced_to: 1
  - symbol: H  # 3
    coordinates: [  0.888888888888888,  0.111111111111112,  0.478221853946259 ]
    mass: 1.007940
    reduced_to: 1
  - symbol: H  # 4
    coordinates: [  0.222222222222221,  0.444444444444445,  0.478221853946259 ]
    mass: 1.007940
    reduced_to: 1
  - symbol: H  # 5
    coordinates: [  0.555555555555555,  0.444444444444445,  0.478221853946259 ]
    mass: 1.007940
    reduced_to: 1
  - symbol: H  # 6
    coordinates: [  0.888888888888888,  0.444444444444445,  0.478221853946259 ]
    mass: 1.007940
    reduced_to: 1
  - symbol: H  # 7
    coordinates: [  0.222222222222221,  0.777777777777779,  0.478221853946259 ]
    mass: 1.007940
    reduced_to: 1
  - symbol: H  # 8
    coordinates: [  0.555555555555555,  0.777777777777779,  0.478221853946259 ]
    mass: 1.007940
    reduced_to: 1
  - symbol: H  # 9
    coordinates: [  0.888888888888888,  0.777777777777779,  0.478221853946259 ]
    mass: 1.007940
    reduced_to: 1
  - symbol: H  # 10
    coordinates: [  0.111111111111112,  0.222222222222221,  0.521778146053741 ]
    mass: 1.007940
    reduced_to: 10
  - symbol: H  # 11
    coordinates: [  0.444444444444445,  0.222222222222221,  0.521778146053741 ]
    mass: 1.007940
    reduced_to: 10
  - symbol: H  # 12
    coordinates: [  0.777777777777779,  0.222222222222221,  0.521778146053741 ]
    mass: 1.007940
    reduced_to: 10
  - symbol: H  # 13
    coordinates: [  0.111111111111112,  0.555555555555555,  0.521778146053741 ]
    mass: 1.007940
    reduced_to: 10
  - symbol: H  # 14
    coordinates: [  0.444444444444445,  0.555555555555555,  0.521778146053741 ]
    mass: 1.007940
    reduced_to: 10
  - symbol: H  # 15
    coordinates: [  0.777777777777779,  0.555555555555555,  0.521778146053741 ]
    mass: 1.007940
    reduced_to: 10
  - symbol: H  # 16
    coordinates: [  0.111111111111112,  0.888888888888888,  0.521778146053741 ]
    mass: 1.007940
    reduced_to: 10
  - symbol: H  # 17
    coordinates: [  0.444444444444445,  0.888888888888888,  0.521778146053741 ]
    mass: 1.007940
    reduced_to: 10
  - symbol: H  # 18
    coordinates: [  0.777777777777779,  0.888888888888888,  0.521778146053741 ]
    mass: 1.007940
    reduced_to: 10

displacements:
- atom:    1
  displacement:
    [   0.0039519712605392,  0.0000000000000000,  0.0091859633765802 ]
- atom:    1
  displacement:
    [  -0.0039519712605392,  0.0000000000000000, -0.0091859633765802 ]
