# Thermal properties / unit cell (natom)

unit:
  temperature:   K
  free_energy:   kJ/mol
  entropy:       J/K/mol
  heat_capacity: J/K/mol

natom: 2    
cutoff_frequency: 0.00000
num_modes: 13824
num_integrated_modes: 13823

zero_point_energy:      93.0041490

thermal_properties:
- temperature:         0.0000000
  free_energy:        93.0041490
  entropy:             0.0000000
  heat_capacity:       0.0000000
  energy:             93.0041490

- temperature:        10.0000000
  free_energy:        93.0037244
  entropy:             0.0498859
  heat_capacity:       0.0086088
  energy:             93.0042232

- temperature:        20.0000000
  free_energy:        93.0031812
  entropy:             0.0591055
  heat_capacity:       0.0211939
  energy:             93.0043634

- temperature:        30.0000000
  free_energy:        93.0025310
  entropy:             0.0715906
  heat_capacity:       0.0434530
  energy:             93.0046787

- temperature:        40.0000000
  free_energy:        93.0017357
  entropy:             0.0881823
  heat_capacity:       0.0748466
  energy:             93.0052630

- temperature:        50.0000000
  free_energy:        93.0007533
  entropy:             0.1089924
  heat_capacity:       0.1144138
  energy:             93.0062029

- temperature:        60.0000000
  free_energy:        92.9995422
  entropy:             0.1338819
  heat_capacity:       0.1611549
  energy:             93.0075751

- temperature:        70.0000000
  free_energy:        92.9980628
  entropy:             0.1626349
  heat_capacity:       0.2142651
  energy:             93.0094472

- temperature:        80.0000000
  free_energy:        92.9962774
  entropy:             0.1950280
  heat_capacity:       0.2731401
  energy:             93.0118796

- temperature:        90.0000000
  free_energy:        92.9941508
  entropy:             0.2308552
  heat_capacity:       0.3373347
  energy:             93.0149277

- temperature:       100.0000000
  free_energy:        92.9916495
  entropy:             0.2699350
  heat_capacity:       0.4065183
  energy:             93.0186430

- temperature:       110.0000000
  free_energy:        92.9887417
  entropy:             0.3121105
  heat_capacity:       0.4804453
  energy:             93.0230739

- temperature:       120.0000000
  free_energy:        92.9853974
  entropy:             0.3572474
  heat_capacity:       0.5589357
  energy:             93.0282671

- temperature:       130.0000000
  free_energy:        92.9815873
  entropy:             0.4052315
  heat_capacity:       0.6418631
  energy:             93.0342674

- temperature:       140.0000000
  free_energy:        92.9772836
  entropy:             0.4559662
  heat_capacity:       0.7291466
  energy:             93.0411188

- temperature:       150.0000000
  free_energy:        92.9724591
  entropy:             0.5093708
  heat_capacity:       0.8207432
  energy:             93.0488647

- temperature:       160.0000000
  free_energy:        92.9670875
  entropy:             0.5653785
  heat_capacity:       0.9166402
  energy:             93.0575480

- temperature:       170.0000000
  free_energy:        92.9611430
  entropy:             0.6239344
  heat_capacity:       1.0168476
  energy:             93.0672119

- temperature:       180.0000000
  free_energy:        92.9546005
  entropy:             0.6849944
  heat_capacity:       1.1213899
  energy:             93.0778994

- temperature:       190.0000000
  free_energy:        92.9474349
  entropy:             0.7485227
  heat_capacity:       1.2302982
  energy:             93.0896542

- temperature:       200.0000000
  free_energy:        92.9396219
  entropy:             0.8144910
  heat_capacity:       1.3436035
  energy:             93.1025201

- temperature:       210.0000000
  free_energy:        92.9311370
  entropy:             0.8828762
  heat_capacity:       1.4613306
  energy:             93.1165410

- temperature:       220.0000000
  free_energy:        92.9219563
  entropy:             0.9536596
  heat_capacity:       1.5834936
  energy:             93.1317615

- temperature:       230.0000000
  free_energy:        92.9120559
  entropy:             1.0268252
  heat_capacity:       1.7100937
  energy:             93.1482257

- temperature:       240.0000000
  free_energy:        92.9014119
  entropy:             1.1023589
  heat_capacity:       1.8411171
  energy:             93.1659781

- temperature:       250.0000000
  free_energy:        92.8900009
  entropy:             1.1802473
  heat_capacity:       1.9765354
  energy:             93.1850627

- temperature:       260.0000000
  free_energy:        92.8777992
  entropy:             1.2604773
  heat_capacity:       2.1163063
  energy:             93.2055233

- temperature:       270.0000000
  free_energy:        92.8647836
  entropy:             1.3430355
  heat_capacity:       2.2603752
  energy:             93.2274032

- temperature:       280.0000000
  free_energy:        92.8509308
  entropy:             1.4279077
  heat_capacity:       2.4086773
  energy:             93.2507449

- temperature:       290.0000000
  free_energy:        92.8362178
  entropy:             1.5150787
  heat_capacity:       2.5611397
  energy:             93.2755906

- temperature:       300.0000000
  free_energy:        92.8206216
  entropy:             1.6045324
  heat_capacity:       2.7176841
  energy:             93.3019813

- temperature:       310.0000000
  free_energy:        92.8041196
  entropy:             1.6962517
  heat_capacity:       2.8782285
  energy:             93.3299576

- temperature:       320.0000000
  free_energy:        92.7866891
  entropy:             1.7902184
  heat_capacity:       3.0426895
  energy:             93.3595589

- temperature:       330.0000000
  free_energy:        92.7683078
  entropy:             1.8864133
  heat_capacity:       3.2109839
  energy:             93.3908241

- temperature:       340.0000000
  free_energy:        92.7489534
  entropy:             1.9848167
  heat_capacity:       3.3830305
  energy:             93.4237911

- temperature:       350.0000000
  free_energy:        92.7286041
  entropy:             2.0854082
  heat_capacity:       3.5587505
  energy:             93.4584970

- temperature:       360.0000000
  free_energy:        92.7072380
  entropy:             2.1881669
  heat_capacity:       3.7380688
  energy:             93.4949781

- temperature:       370.0000000
  free_energy:        92.6848336
  entropy:             2.2930716
  heat_capacity:       3.9209143
  energy:             93.5332701

- temperature:       380.0000000
  free_energy:        92.6613695
  entropy:             2.4001011
  heat_capacity:       4.1072202
  energy:             93.5734080

- temperature:       390.0000000
  free_energy:        92.6368246
  entropy:             2.5092340
  heat_capacity:       4.2969238
  energy:             93.6154259

- temperature:       400.0000000
  free_energy:        92.6111779
  entropy:             2.6204491
  heat_capacity:       4.4899663
  energy:             93.6593576

- temperature:       410.0000000
  free_energy:        92.5844088
  entropy:             2.7337253
  heat_capacity:       4.6862926
  energy:             93.7052361

- temperature:       420.0000000
  free_energy:        92.5564966
  entropy:             2.8490418
  heat_capacity:       4.8858506
  energy:             93.7530942

- temperature:       430.0000000
  free_energy:        92.5274212
  entropy:             2.9663781
  heat_capacity:       5.0885908
  energy:             93.8029638

- temperature:       440.0000000
  free_energy:        92.4971624
  entropy:             3.0857138
  heat_capacity:       5.2944653
  energy:             93.8548764

- temperature:       450.0000000
  free_energy:        92.4657003
  entropy:             3.2070290
  heat_capacity:       5.5034276
  energy:             93.9088634

- temperature:       460.0000000
  free_energy:        92.4330153
  entropy:             3.3303041
  heat_capacity:       5.7154316
  energy:             93.9649551

- temperature:       470.0000000
  free_energy:        92.3990878
  entropy:             3.4555196
  heat_capacity:       5.9304310
  energy:             94.0231820

- temperature:       480.0000000
  free_energy:        92.3638985
  entropy:             3.5826565
  heat_capacity:       6.1483788
  energy:             94.0835736

- temperature:       490.0000000
  free_energy:        92.3274283
  entropy:             3.7116958
  heat_capacity:       6.3692267
  energy:             94.1461592

- temperature:       500.0000000
  free_energy:        92.2896583
  entropy:             3.8426187
  heat_capacity:       6.5929243
  energy:             94.2109676

- temperature:       510.0000000
  free_energy:        92.2505697
  entropy:             3.9754065
  heat_capacity:       6.8194193
  energy:             94.2780270

- temperature:       520.0000000
  free_energy:        92.2101440
  entropy:             4.1100407
  heat_capacity:       7.0486564
  energy:             94.3473651

- temperature:       530.0000000
  free_energy:        92.1683628
  entropy:             4.2465025
  heat_capacity:       7.2805774
  energy:             94.4190091

- temperature:       540.0000000
  free_energy:        92.1252079
  entropy:             4.3847732
  heat_capacity:       7.5151211
  energy:             94.4929854

- temperature:       550.0000000
  free_energy:        92.0806614
  entropy:             4.5248340
  heat_capacity:       7.7522225
  energy:             94.5693201

- temperature:       560.0000000
  free_energy:        92.0347053
  entropy:             4.6666658
  heat_capacity:       7.9918136
  energy:             94.6480382

- temperature:       570.0000000
  free_energy:        91.9873222
  entropy:             4.8102494
  heat_capacity:       8.2338226
  energy:             94.7291644

- temperature:       580.0000000
  free_energy:        91.9384946
  entropy:             4.9555653
  heat_capacity:       8.4781741
  energy:             94.8127224

- temperature:       590.0000000
  free_energy:        91.8882052
  entropy:             5.1025936
  heat_capacity:       8.7247895
  energy:             94.8987354

- temperature:       600.0000000
  free_energy:        91.8364371
  entropy:             5.2513141
  heat_capacity:       8.9735866
  energy:             94.9872255

- temperature:       610.0000000
  free_energy:        91.7831733
  entropy:             5.4017062
  heat_capacity:       9.2244803
  energy:             95.0782141

- temperature:       620.0000000
  free_energy:        91.7283974
  entropy:             5.5537490
  heat_capacity:       9.4773823
  energy:             95.1717218

- temperature:       630.0000000
  free_energy:        91.6720929
  entropy:             5.7074210
  heat_capacity:       9.7322014
  energy:             95.2677682

- temperature:       640.0000000
  free_energy:        91.6142436
  entropy:             5.8627004
  heat_capacity:       9.9888442
  energy:             95.3663719

- temperature:       650.0000000
  free_energy:        91.5548336
  entropy:             6.0195649
  heat_capacity:      10.2472146
  energy:             95.4675508

- temperature:       660.0000000
  free_energy:        91.4938471
  entropy:             6.1779917
  heat_capacity:      10.5072148
  energy:             95.5713216

- temperature:       670.0000000
  free_energy:        91.4312687
  entropy:             6.3379575
  heat_capacity:      10.7687450
  energy:             95.6777002

- temperature:       680.0000000
  free_energy:        91.3670829
  entropy:             6.4994388
  heat_capacity:      11.0317039
  energy:             95.7867013

- temperature:       690.0000000
  free_energy:        91.3012749
  entropy:             6.6624113
  heat_capacity:      11.2959894
  energy:             95.8983387

- temperature:       700.0000000
  free_energy:        91.2338298
  entropy:             6.8268505
  heat_capacity:      11.5614979
  energy:             96.0126252

- temperature:       710.0000000
  free_energy:        91.1647331
  entropy:             6.9927314
  heat_capacity:      11.8281258
  energy:             96.1295724

- temperature:       720.0000000
  free_energy:        91.0939705
  entropy:             7.1600286
  heat_capacity:      12.0957687
  energy:             96.2491911

- temperature:       730.0000000
  free_energy:        91.0215279
  entropy:             7.3287163
  heat_capacity:      12.3643223
  energy:             96.3714908

- temperature:       740.0000000
  free_energy:        90.9473916
  entropy:             7.4987684
  heat_capacity:      12.6336825
  energy:             96.4964802

- temperature:       750.0000000
  free_energy:        90.8715481
  entropy:             7.6701583
  heat_capacity:      12.9037456
  energy:             96.6241668

- temperature:       760.0000000
  free_energy:        90.7939841
  entropy:             7.8428593
  heat_capacity:      13.1744085
  energy:             96.7545571

- temperature:       770.0000000
  free_energy:        90.7146866
  entropy:             8.0168442
  heat_capacity:      13.4455693
  energy:             96.8876566

- temperature:       780.0000000
  free_energy:        90.6336430
  entropy:             8.1920857
  heat_capacity:      13.7171267
  energy:             97.0234698

- temperature:       790.0000000
  free_energy:        90.5508408
  entropy:             8.3685561
  heat_capacity:      13.9889810
  energy:             97.1620002

- temperature:       800.0000000
  free_energy:        90.4662679
  entropy:             8.5462278
  heat_capacity:      14.2610341
  energy:             97.3032501

- temperature:       810.0000000
  free_energy:        90.3799123
  entropy:             8.7250726
  heat_capacity:      14.5331892
  energy:             97.4472212

- temperature:       820.0000000
  free_energy:        90.2917626
  entropy:             8.9050626
  heat_capacity:      14.8053515
  energy:             97.5939139

- temperature:       830.0000000
  free_energy:        90.2018074
  entropy:             9.0861693
  heat_capacity:      15.0774280
  energy:             97.7433279

- temperature:       840.0000000
  free_energy:        90.1100356
  entropy:             9.2683646
  heat_capacity:      15.3493280
  energy:             97.8954619

- temperature:       850.0000000
  free_energy:        90.0164365
  entropy:             9.4516201
  heat_capacity:      15.6209627
  energy:             98.0503136

- temperature:       860.0000000
  free_energy:        89.9209997
  entropy:             9.6359072
  heat_capacity:      15.8922457
  energy:             98.2078800

- temperature:       870.0000000
  free_energy:        89.8237150
  entropy:             9.8211977
  heat_capacity:      16.1630927
  energy:             98.3681571

- temperature:       880.0000000
  free_energy:        89.7245725
  entropy:            10.0074631
  heat_capacity:      16.4334222
  energy:             98.5311401

- temperature:       890.0000000
  free_energy:        89.6235626
  entropy:            10.1946752
  heat_capacity:      16.7031549
  energy:             98.6968235

- temperature:       900.0000000
  free_energy:        89.5206760
  entropy:            10.3828055
  heat_capacity:      16.9722140
  energy:             98.8652009

- temperature:       910.0000000
  free_energy:        89.4159035
  entropy:            10.5718261
  heat_capacity:      17.2405253
  energy:             99.0362653

- temperature:       920.0000000
  free_energy:        89.3092366
  entropy:            10.7617088
  heat_capacity:      17.5080173
  energy:             99.2100087

- temperature:       930.0000000
  free_energy:        89.2006666
  entropy:            10.9524259
  heat_capacity:      17.7746209
  energy:             99.3864227

- temperature:       940.0000000
  free_energy:        89.0901854
  entropy:            11.1439496
  heat_capacity:      18.0402698
  energy:             99.5654980

- temperature:       950.0000000
  free_energy:        88.9777850
  entropy:            11.3362523
  heat_capacity:      18.3049001
  energy:             99.7472247

- temperature:       960.0000000
  free_energy:        88.8634578
  entropy:            11.5293068
  heat_capacity:      18.5684508
  energy:             99.9315924

- temperature:       970.0000000
  free_energy:        88.7471964
  entropy:            11.7230860
  heat_capacity:      18.8308631
  energy:            100.1185899

- temperature:       980.0000000
  free_energy:        88.6289938
  entropy:            11.9175631
  heat_capacity:      19.0920811
  energy:            100.3082056

- temperature:       990.0000000
  free_energy:        88.5088429
  entropy:            12.1127115
  heat_capacity:      19.3520513
  energy:            100.5004274

- temperature:      1000.0000000
  free_energy:        88.3867374
  entropy:            12.3085049
  heat_capacity:      19.6107229
  energy:            100.6952423

- temperature:      1010.0000000
  free_energy:        88.2626708
  entropy:            12.5049174
  heat_capacity:      19.8680472
  energy:            100.8926373

- temperature:      1020.0000000
  free_energy:        88.1366371
  entropy:            12.7019231
  heat_capacity:      20.1239784
  energy:            101.0925986

- temperature:      1030.0000000
  free_energy:        88.0086304
  entropy:            12.8994968
  heat_capacity:      20.3784728
  energy:            101.2951121

- temperature:      1040.0000000
  free_energy:        87.8786453
  entropy:            13.0976133
  heat_capacity:      20.6314892
  energy:            101.5001632

- temperature:      1050.0000000
  free_energy:        87.7466764
  entropy:            13.2962480
  heat_capacity:      20.8829887
  energy:            101.7077368

- temperature:      1060.0000000
  free_energy:        87.6127187
  entropy:            13.4953765
  heat_capacity:      21.1329346
  energy:            101.9178178

- temperature:      1070.0000000
  free_energy:        87.4767673
  entropy:            13.6949747
  heat_capacity:      21.3812926
  energy:            102.1303902

- temperature:      1080.0000000
  free_energy:        87.3388177
  entropy:            13.8950190
  heat_capacity:      21.6280303
  energy:            102.3454382

- temperature:      1090.0000000
  free_energy:        87.1988656
  entropy:            14.0954860
  heat_capacity:      21.8731175
  energy:            102.5629453

- temperature:      1100.0000000
  free_energy:        87.0569067
  entropy:            14.2963530
  heat_capacity:      22.1165262
  energy:            102.7828950

- temperature:      1110.0000000
  free_energy:        86.9129372
  entropy:            14.4975972
  heat_capacity:      22.3582303
  energy:            103.0052702

- temperature:      1120.0000000
  free_energy:        86.7669536
  entropy:            14.6991967
  heat_capacity:      22.5982054
  energy:            103.2300538

- temperature:      1130.0000000
  free_energy:        86.6189522
  entropy:            14.9011294
  heat_capacity:      22.8364294
  energy:            103.4572284

- temperature:      1140.0000000
  free_energy:        86.4689299
  entropy:            15.1033742
  heat_capacity:      23.0728817
  energy:            103.6867765

- temperature:      1150.0000000
  free_energy:        86.3168837
  entropy:            15.3059099
  heat_capacity:      23.3075435
  energy:            103.9186801

- temperature:      1160.0000000
  free_energy:        86.1628108
  entropy:            15.5087160
  heat_capacity:      23.5403979
  energy:            104.1529213

- temperature:      1170.0000000
  free_energy:        86.0067086
  entropy:            15.7117721
  heat_capacity:      23.7714294
  energy:            104.3894820

- temperature:      1180.0000000
  free_energy:        85.8485746
  entropy:            15.9150586
  heat_capacity:      24.0006242
  energy:            104.6283438

- temperature:      1190.0000000
  free_energy:        85.6884067
  entropy:            16.1185560
  heat_capacity:      24.2279700
  energy:            104.8694883

- temperature:      1200.0000000
  free_energy:        85.5262029
  entropy:            16.3222451
  heat_capacity:      24.4534559
  energy:            105.1128970

- temperature:      1210.0000000
  free_energy:        85.3619612
  entropy:            16.5261074
  heat_capacity:      24.6770726
  energy:            105.3585512

- temperature:      1220.0000000
  free_energy:        85.1956802
  entropy:            16.7301246
  heat_capacity:      24.8988120
  energy:            105.6064322

- temperature:      1230.0000000
  free_energy:        85.0273583
  entropy:            16.9342788
  heat_capacity:      25.1186674
  energy:            105.8565212

- temperature:      1240.0000000
  free_energy:        84.8569942
  entropy:            17.1385524
  heat_capacity:      25.3366332
  energy:            106.1087992

- temperature:      1250.0000000
  free_energy:        84.6845869
  entropy:            17.3429285
  heat_capacity:      25.5527052
  energy:            106.3632475

- temperature:      1260.0000000
  free_energy:        84.5101354
  entropy:            17.5473902
  heat_capacity:      25.7668802
  energy:            106.6198470

- temperature:      1270.0000000
  free_energy:        84.3336389
  entropy:            17.7519212
  heat_capacity:      25.9791561
  energy:            106.8785788

- temperature:      1280.0000000
  free_energy:        84.1550968
  entropy:            17.9565055
  heat_capacity:      26.1895320
  energy:            107.1394238

- temperature:      1290.0000000
  free_energy:        83.9745086
  entropy:            18.1611275
  heat_capacity:      26.3980078
  energy:            107.4023631

- temperature:      1300.0000000
  free_energy:        83.7918741
  entropy:            18.3657719
  heat_capacity:      26.6045845
  energy:            107.6673776

- temperature:      1310.0000000
  free_energy:        83.6071932
  entropy:            18.5704239
  heat_capacity:      26.8092640
  energy:            107.9344485

- temperature:      1320.0000000
  free_energy:        83.4204657
  entropy:            18.7750689
  heat_capacity:      27.0120490
  energy:            108.2035566

- temperature:      1330.0000000
  free_energy:        83.2316919
  entropy:            18.9796927
  heat_capacity:      27.2129430
  energy:            108.4746831

- temperature:      1340.0000000
  free_energy:        83.0408719
  entropy:            19.1842815
  heat_capacity:      27.4119506
  energy:            108.7478092

- temperature:      1350.0000000
  free_energy:        82.8480064
  entropy:            19.3888218
  heat_capacity:      27.6090766
  energy:            109.0229159

- temperature:      1360.0000000
  free_energy:        82.6530957
  entropy:            19.5933005
  heat_capacity:      27.8043269
  energy:            109.2999845

- temperature:      1370.0000000
  free_energy:        82.4561406
  entropy:            19.7977048
  heat_capacity:      27.9977081
  energy:            109.5789962

- temperature:      1380.0000000
  free_energy:        82.2571419
  entropy:            20.0020221
  heat_capacity:      28.1892272
  energy:            109.8599324

- temperature:      1390.0000000
  free_energy:        82.0561005
  entropy:            20.2062403
  heat_capacity:      28.3788919
  energy:            110.1427745

- temperature:      1400.0000000
  free_energy:        81.8530175
  entropy:            20.4103476
  heat_capacity:      28.5667104
  energy:            110.4275041

- temperature:      1410.0000000
  free_energy:        81.6478940
  entropy:            20.6143324
  heat_capacity:      28.7526917
  energy:            110.7141026

- temperature:      1420.0000000
  free_energy:        81.4407313
  entropy:            20.8181835
  heat_capacity:      28.9368449
  energy:            111.0025518

- temperature:      1430.0000000
  free_energy:        81.2315308
  entropy:            21.0218900
  heat_capacity:      29.1191800
  energy:            111.2928335

- temperature:      1440.0000000
  free_energy:        81.0202940
  entropy:            21.2254413
  heat_capacity:      29.2997070
  energy:            111.5849294

- temperature:      1450.0000000
  free_energy:        80.8070225
  entropy:            21.4288270
  heat_capacity:      29.4784367
  energy:            111.8788216

- temperature:      1460.0000000
  free_energy:        80.5917180
  entropy:            21.6320371
  heat_capacity:      29.6553800
  energy:            112.1744922

- temperature:      1470.0000000
  free_energy:        80.3743824
  entropy:            21.8350619
  heat_capacity:      29.8305483
  energy:            112.4719233

- temperature:      1480.0000000
  free_energy:        80.1550174
  entropy:            22.0378918
  heat_capacity:      30.0039534
  energy:            112.7710973

- temperature:      1490.0000000
  free_energy:        79.9336252
  entropy:            22.2405177
  heat_capacity:      30.1756073
  energy:            113.0719965

- temperature:      1500.0000000
  free_energy:        79.7102078
  entropy:            22.4429305
  heat_capacity:      30.3455223
  energy:            113.3746036

- temperature:      1510.0000000
  free_energy:        79.4847674
  entropy:            22.6451218
  heat_capacity:      30.5137111
  energy:            113.6789012

- temperature:      1520.0000000
  free_energy:        79.2573061
  entropy:            22.8470829
  heat_capacity:      30.6801864
  energy:            113.9848721

- temperature:      1530.0000000
  free_energy:        79.0278265
  entropy:            23.0488057
  heat_capacity:      30.8449613
  energy:            114.2924993

- temperature:      1540.0000000
  free_energy:        78.7963308
  entropy:            23.2502824
  heat_capacity:      31.0080492
  energy:            114.6017657

- temperature:      1550.0000000
  free_energy:        78.5628217
  entropy:            23.4515052
  heat_capacity:      31.1694634
  energy:            114.9126547

- temperature:      1560.0000000
  free_energy:        78.3273016
  entropy:            23.6524666
  heat_capacity:      31.3292177
  energy:            115.2251495

- temperature:      1570.0000000
  free_energy:        78.0897733
  entropy:            23.8531594
  heat_capacity:      31.4873258
  energy:            115.5392336

- temperature:      1580.0000000
  free_energy:        77.8502393
  entropy:            24.0535767
  heat_capacity:      31.6438016
  energy:            115.8548905

- temperature:      1590.0000000
  free_energy:        77.6087027
  entropy:            24.2537117
  heat_capacity:      31.7986593
  energy:            116.1721042

- temperature:      1600.0000000
  free_energy:        77.3651661
  entropy:            24.4535577
  heat_capacity:      31.9519130
  energy:            116.4908584

- temperature:      1610.0000000
  free_energy:        77.1196325
  entropy:            24.6531085
  heat_capacity:      32.1035769
  energy:            116.8111372

- temperature:      1620.0000000
  free_energy:        76.8721049
  entropy:            24.8523579
  heat_capacity:      32.2536655
  energy:            117.1329247

- temperature:      1630.0000000
  free_energy:        76.6225864
  entropy:            25.0512999
  heat_capacity:      32.4021931
  energy:            117.4562053

- temperature:      1640.0000000
  free_energy:        76.3710799
  entropy:            25.2499289
  heat_capacity:      32.5491742
  energy:            117.7809634

- temperature:      1650.0000000
  free_energy:        76.1175888
  entropy:            25.4482393
  heat_capacity:      32.6946234
  energy:            118.1071836

- temperature:      1660.0000000
  free_energy:        75.8621162
  entropy:            25.6462256
  heat_capacity:      32.8385552
  energy:            118.4348508

- temperature:      1670.0000000
  free_energy:        75.6046654
  entropy:            25.8438828
  heat_capacity:      32.9809841
  energy:            118.7639497

- temperature:      1680.0000000
  free_energy:        75.3452397
  entropy:            26.0412058
  heat_capacity:      33.1219249
  energy:            119.0944655

- temperature:      1690.0000000
  free_energy:        75.0838424
  entropy:            26.2381899
  heat_capacity:      33.2613921
  energy:            119.4263833

- temperature:      1700.0000000
  free_energy:        74.8204770
  entropy:            26.4348303
  heat_capacity:      33.3994003
  energy:            119.7596885

- temperature:      1710.0000000
  free_energy:        74.5551470
  entropy:            26.6311225
  heat_capacity:      33.5359641
  energy:            120.0943665

- temperature:      1720.0000000
  free_energy:        74.2878558
  entropy:            26.8270623
  heat_capacity:      33.6710981
  energy:            120.4304030

- temperature:      1730.0000000
  free_energy:        74.0186069
  entropy:            27.0226456
  heat_capacity:      33.8048169
  energy:            120.7677838

- temperature:      1740.0000000
  free_energy:        73.7474041
  entropy:            27.2178682
  heat_capacity:      33.9371349
  energy:            121.1064947

- temperature:      1750.0000000
  free_energy:        73.4742508
  entropy:            27.4127263
  heat_capacity:      34.0680667
  energy:            121.4465218

- temperature:      1760.0000000
  free_energy:        73.1991508
  entropy:            27.6072163
  heat_capacity:      34.1976266
  energy:            121.7878514

- temperature:      1770.0000000
  free_energy:        72.9221077
  entropy:            27.8013345
  heat_capacity:      34.3258291
  energy:            122.1304698

- temperature:      1780.0000000
  free_energy:        72.6431253
  entropy:            27.9950776
  heat_capacity:      34.4526884
  energy:            122.4743635
