unknown system                          
   1.00000000000000     
     4.113367    0.000000    0.000000
    -2.056683    3.562280    0.000000
     0.000000    0.000000   16.000000
  Sb_GW/0189e04b
               2
Direct
  0.666667  0.333333  0.448625
  0.333333  0.666667  0.551375
 
   40   40  160
 0.31516E-04 0.31286E-04 0.30162E-04 0.28231E-04 0.26037E-04 0.25712E-04 0.23307E-04 0.23567E-04 0.20601E-04 0.19144E-04
 0.18416E-04 0.11363E-04 0.18919E-04 0.21292E-04 0.14665E-04 0.59699E-05 0.12706E-04 0.12329E-04 0.70073E-05 0.12460E-04
 0.67005E-05 0.12460E-04 0.70073E-05 0.12329E-04 0.12706E-04 0.59699E-05 0.14665E-04 0.21292E-04 0.18919E-04 0.11363E-04
 0.18416E-04 0.19144E-04 0.20601E-04 0.23567E-04 0.23307E-04 0.25712E-04 0.26037E-04 0.28231E-04 0.30162E-04 0.31286E-04
 0.31383E-04 0.31108E-04 0.30362E-04 0.29098E-04 0.27707E-04 0.24351E-04 0.23568E-04 0.20348E-04 0.20659E-04 0.19930E-04
 0.18856E-04 0.24722E-04 0.16038E-04 0.11396E-04 0.15402E-04 0.20492E-04 0.85072E-05 0.31624E-05 0.26149E-05 -.79308E-05
 -.42096E-05 -.88056E-05 -.30543E-06 -.10395E-05 0.49408E-05 0.16722E-04 0.13120E-04 0.96344E-05 0.13856E-04 0.23103E-04
 0.18042E-04 0.18978E-04 0.20338E-04 0.19992E-04 0.23345E-04 0.23743E-04 0.26673E-04 0.27686E-04 0.29090E-04 0.30325E-04
 0.29819E-04 0.30608E-04 0.29728E-04 0.28380E-04 0.25876E-04 0.25677E-04 0.22831E-04 0.23308E-04 0.20228E-04 0.18730E-04
 0.17716E-04 0.10320E-04 0.17114E-04 0.20163E-04 0.12821E-04 0.35191E-05 0.10642E-04 0.10411E-04 0.49520E-05 0.13683E-04
 0.79159E-05 0.12356E-04 0.53024E-05 0.10161E-04 0.82602E-05 0.53235E-06 0.70164E-05 0.13988E-04 0.13526E-04 0.70476E-05
 0.14287E-04 0.16716E-04 0.18084E-04 0.22085E-04 0.21552E-04 0.24247E-04 0.23836E-04 0.26064E-04 0.27533E-04 0.29336E-04
 0.28971E-04 0.28455E-04 0.28777E-04 0.27385E-04 0.26956E-04 0.23326E-04 0.23475E-04 0.20136E-04 0.21083E-04 0.19694E-04
 0.17979E-04 0.22181E-04 0.12793E-04 0.63159E-05 0.10686E-04 0.16663E-04 0.55303E-05 0.21041E-05 0.83813E-05 -.65844E-05
 -.52143E-05 -.11052E-04 -.24866E-05 -.57804E-05 -.94066E-06 0.10194E-04 0.85053E-05 0.40052E-05 0.63327E-05 0.15757E-04
 0.12477E-04 0.12572E-04 0.15738E-04 0.15247E-04 0.20222E-04 0.20492E-04 0.24307E-04 0.24524E-04 0.26461E-04 0.27044E-04
 0.27162E-04 0.26485E-04 0.27344E-04 0.25091E-04 0.24883E-04 0.24111E-04 0.23535E-04 0.23099E-04 0.21862E-04 0.18340E-04
 0.17817E-04 0.70082E-05 0.13475E-04 0.14413E-04 0.86079E-05 -.11364E-05 0.10166E-04 0.17540E-04 0.59113E-05 0.19994E-04
 0.33445E-04 0.44918E-04 0.40007E-04 0.38953E-04 0.30745E-04 0.10913E-04 0.90452E-05 0.10918E-04 0.13001E-04 0.15985E-05
 0.77208E-05 0.90908E-05 0.11088E-04 0.14586E-04 0.16424E-04 0.19079E-04 0.21112E-04 0.22442E-04 0.25304E-04 0.25450E-04
 0.24743E-04 0.25418E-04 0.24365E-04 0.25036E-04 0.24266E-04 0.23203E-04 0.23293E-04 0.22074E-04 0.22170E-04 0.21536E-04
 0.17507E-04 0.20535E-04 0.87156E-05 0.92701E-06 0.69530E-05 0.14389E-04 0.14578E-04 0.64894E-05 0.25863E-04 0.50416E-04
 0.47426E-04 0.32256E-04 0.32158E-04 0.32135E-04 0.38576E-04 0.55413E-04 0.47347E-04 0.29512E-04 0.12731E-04 0.19948E-04
 0.10522E-04 0.67856E-05 0.69821E-05 0.73385E-05 0.11723E-04 0.15301E-04 0.19235E-04 0.22201E-04 0.22935E-04 0.24810E-04
 0.23188E-04 0.23590E-04 0.23055E-04 0.22855E-04 0.22290E-04 0.24382E-04 0.23442E-04 0.25290E-04 0.22747E-04 0.20402E-04
 0.17257E-04 0.66769E-05 0.93996E-05 0.12060E-04 0.41635E-05 0.18983E-05 0.17337E-04 0.27969E-04 0.66890E-04 0.65906E-04
 0.51325E-04 0.76033E-04 0.93179E-04 0.10458E-03 0.90786E-04 0.61725E-04 0.56034E-04 0.64846E-04 0.59761E-04 0.23803E-04
 0.14863E-04 0.12094E-04 0.48014E-05 0.78073E-05 0.74232E-05 0.12812E-04 0.15180E-04 0.19602E-04 0.21775E-04 0.23367E-04
 0.20793E-04 0.23220E-04 0.20191E-04 0.23650E-04 0.21450E-04 0.23879E-04 0.22396E-04 0.24687E-04 0.22035E-04 0.24536E-04
 0.16361E-04 0.22250E-04 0.49385E-05 0.10622E-05 0.15206E-05 0.21936E-04 0.14467E-04 0.40968E-04 0.72928E-04 0.59623E-04
 0.10590E-03 0.16823E-03 0.21773E-03 0.23591E-03 0.23802E-03 0.22798E-03 0.16856E-03 0.10219E-03 0.69116E-04 0.80960E-04
 0.43782E-04 0.18703E-04 0.11119E-04 0.37024E-05 0.49136E-05 0.91432E-05 0.12937E-04 0.18760E-04 0.18968E-04 0.22863E-04
 0.19754E-04 0.21408E-04 0.19724E-04 0.21190E-04 0.19891E-04 0.23986E-04 0.22020E-04 0.25655E-04 0.21897E-04 0.21475E-04
 0.16924E-04 0.84323E-05 0.86241E-05 0.13528E-04 0.19061E-05 0.56078E-05 0.18108E-04 0.59116E-04 0.82655E-04 0.97219E-04
 0.18241E-03 0.26545E-03 0.29200E-03 0.30036E-03 0.29814E-03 0.29024E-03 0.29545E-03 0.26643E-03 0.17740E-03 0.84882E-04
 0.79563E-04 0.53087E-04 0.18217E-04 0.14740E-04 0.40746E-05 0.87979E-05 0.91167E-05 0.15845E-04 0.17580E-04 0.21088E-04
 0.20804E-04 0.18366E-04 0.20048E-04 0.18773E-04 0.21126E-04 0.18906E-04 0.21943E-04 0.20101E-04 0.22289E-04 0.21735E-04
 0.19011E-04 0.22147E-04 0.93863E-05 0.10088E-05 0.46098E-05 0.20212E-04 0.16620E-04 0.51189E-04 0.80410E-04 0.10176E-03
 0.22879E-03 0.29498E-03 0.32420E-03 0.32614E-03 0.33951E-03 0.34381E-03 0.32865E-03 0.31596E-03 0.30659E-03 0.23316E-03
 0.10879E-03 0.80543E-04 0.53901E-04 0.14268E-04 0.13635E-04 0.41555E-05 0.11877E-04 0.11651E-04 0.18034E-04 0.17414E-04
 0.17380E-04 0.19795E-04 0.17023E-04 0.18276E-04 0.15655E-04 0.19512E-04 0.16341E-04 0.20171E-04 0.16734E-04 0.18387E-04
 0.16163E-04 0.10934E-04 0.12878E-04 0.18676E-04 0.45388E-05 0.38361E-05 0.14784E-04 0.51366E-04 0.81418E-04 0.11786E-03
 0.24606E-03 0.32758E-03 0.34305E-03 0.36834E-03 0.39395E-03 0.40120E-03 0.39872E-03 0.37253E-03 0.34046E-03 0.31443E-03
 0.24471E-03 0.10817E-03 0.79373E-04 0.47592E-04 0.13947E-04 0.12527E-04 0.55596E-05 0.12773E-04 0.13594E-04 0.18981E-04
 0.25104E-04 0.11078E-04 0.23718E-04 0.91793E-05 0.21874E-04 0.58247E-05 0.20298E-04 0.57343E-05 0.21327E-04 0.10067E-04
 0.23639E-04 0.17214E-04 0.21252E-04 -.14132E-06 0.16734E-04 0.11400E-04 0.18841E-04 0.21071E-04 0.77543E-04 0.78261E-04
 0.23213E-03 0.30727E-03 0.35569E-03 0.38283E-03 0.46645E-03 0.50452E-03 0.50787E-03 0.44377E-03 0.40208E-03 0.34853E-03
 0.32714E-03 0.22108E-03 0.97777E-04 0.64445E-04 0.37425E-04 0.52374E-05 0.16465E-04 0.27557E-05 0.20446E-04 0.94587E-05
 0.17952E-04 0.16907E-04 0.16490E-04 0.13020E-04 0.11383E-04 0.10651E-04 0.85528E-05 0.86790E-05 0.85041E-05 0.86920E-05
 0.12948E-04 0.84769E-05 0.19031E-04 0.23030E-04 0.13903E-04 0.12428E-06 0.13579E-04 0.18450E-04 0.60407E-04 0.78199E-04
 0.17671E-03 0.31357E-03 0.33948E-03 0.39947E-03 0.47885E-03 0.55690E-03 0.59253E-03 0.57160E-03 0.47885E-03 0.38931E-03
 0.34053E-03 0.30590E-03 0.17728E-03 0.72857E-04 0.58914E-04 0.14667E-04 0.10910E-04 0.65594E-05 0.12903E-04 0.14726E-04
 0.90041E-05 0.23782E-04 0.75314E-05 0.19344E-04 0.32496E-05 0.12246E-04 -.34760E-06 0.10576E-04 0.39365E-06 0.14958E-04
 0.53520E-05 0.25888E-04 0.97750E-05 0.14825E-04 0.12023E-04 0.24647E-04 0.48119E-05 0.90258E-05 0.26360E-04 0.56668E-04
 0.97760E-04 0.25822E-03 0.31550E-03 0.36849E-03 0.45303E-03 0.57747E-03 0.61818E-03 0.62592E-03 0.55834E-03 0.46980E-03
 0.35920E-03 0.32991E-03 0.25330E-03 0.11170E-03 0.52438E-04 0.40831E-04 -.24480E-06 0.17033E-04 0.13564E-05 0.22020E-04
 0.13749E-04 0.16221E-04 0.12248E-04 0.10862E-04 0.65666E-05 0.88386E-05 0.33669E-05 0.52108E-05 0.18363E-05 0.38653E-05
 0.46587E-05 0.39094E-05 0.13953E-04 0.25228E-04 0.14348E-04 0.63209E-05 0.84528E-05 0.12602E-04 0.92440E-05 0.55726E-04
 0.55552E-04 0.17749E-03 0.29384E-03 0.33272E-03 0.39569E-03 0.49388E-03 0.59627E-03 0.63138E-03 0.59258E-03 0.49504E-03
 0.39884E-03 0.32791E-03 0.29538E-03 0.17225E-03 0.55237E-04 0.49233E-04 0.70038E-05 0.86817E-05 0.64431E-05 0.13939E-04
 0.22390E-04 0.41694E-05 0.19596E-04 0.98365E-06 0.16408E-04 -.30003E-05 0.18198E-04 0.27426E-05 0.21181E-04 0.54531E-05
 0.19220E-04 0.87216E-05 0.15577E-04 -.40613E-05 0.21824E-04 0.15419E-04 0.15176E-04 -.30340E-05 0.80040E-05 0.35710E-05
 0.52600E-04 0.53925E-04 0.22640E-03 0.28634E-03 0.34712E-03 0.40986E-03 0.50939E-03 0.54876E-03 0.57235E-03 0.50184E-03
 0.41659E-03 0.32905E-03 0.30581E-03 0.20878E-03 0.78025E-04 0.38024E-04 0.28457E-04 -.54858E-05 0.16609E-04 0.39947E-06
 0.12642E-04 0.84732E-05 0.10922E-04 0.48537E-05 0.89772E-05 0.15610E-04 0.17393E-04 0.17304E-04 0.18891E-04 0.15023E-04
 0.15757E-04 0.51635E-05 0.14482E-04 0.17163E-04 0.93058E-05 -.11800E-05 0.13116E-04 0.64463E-05 0.91702E-05 0.56216E-05
 0.31361E-04 0.47843E-04 0.91391E-04 0.24500E-03 0.29613E-03 0.33076E-03 0.39654E-03 0.46538E-03 0.47976E-03 0.45277E-03
 0.39492E-03 0.33791E-03 0.29892E-03 0.24086E-03 0.90842E-04 0.39608E-04 0.29557E-04 -.16173E-05 0.85399E-05 0.49068E-05
 0.50989E-05 0.10490E-04 0.28377E-05 0.10074E-04 0.11435E-04 0.12750E-04 0.20619E-04 0.45424E-04 0.51039E-04 0.60080E-04
 0.43100E-04 0.42042E-04 0.10253E-04 0.39676E-05 0.44559E-05 0.20616E-04 -.84702E-06 0.89016E-05 -.41993E-05 0.18003E-05
 -.67373E-05 0.32022E-04 0.32206E-04 0.10041E-03 0.23770E-03 0.30999E-03 0.32457E-03 0.36343E-03 0.39128E-03 0.40380E-03
 0.36007E-03 0.33503E-03 0.29229E-03 0.24036E-03 0.97235E-04 0.38396E-04 0.32848E-04 0.21895E-05 0.25882E-05 0.62878E-05
 0.36558E-05 0.58690E-05 0.19437E-05 0.10993E-04 0.14349E-05 0.30183E-04 0.63658E-04 0.79054E-04 0.80150E-04 0.82100E-04
 0.79103E-04 0.67154E-04 0.58022E-04 0.41999E-04 0.68089E-05 -.50642E-05 0.58821E-05 0.63821E-05 0.51211E-05 0.10336E-04
 0.36909E-05 0.94585E-05 0.36440E-04 0.42787E-04 0.88103E-04 0.21333E-03 0.29140E-03 0.33114E-03 0.33710E-03 0.34530E-03
 0.34073E-03 0.32589E-03 0.28950E-03 0.22385E-03 0.89947E-04 0.36479E-04 0.35531E-04 0.12488E-06 0.22940E-05 0.29486E-05
 -.22565E-05 0.68826E-05 -.13765E-05 0.88715E-05 0.64032E-05 0.64163E-04 0.51070E-04 0.71565E-04 0.81657E-04 0.11814E-03
 0.10211E-03 0.10672E-03 0.62517E-04 0.59096E-04 0.40093E-04 0.34707E-04 -.91578E-05 0.92864E-05 -.77317E-05 0.38009E-05
 -.78586E-05 0.33348E-05 -.86090E-05 0.39508E-04 0.33064E-04 0.85060E-04 0.16185E-03 0.26064E-03 0.29789E-03 0.33572E-03
 0.31183E-03 0.31136E-03 0.24989E-03 0.18017E-03 0.61197E-04 0.46003E-04 0.31327E-04 0.44035E-05 -.27036E-05 0.60078E-05
 0.23502E-05 0.43362E-07 0.39086E-05 -.16039E-05 0.27970E-04 0.52746E-04 0.47095E-04 0.11303E-03 0.17891E-03 0.23148E-03
 0.24275E-03 0.22274E-03 0.17333E-03 0.11440E-03 0.52118E-04 0.40531E-04 0.27074E-04 0.48430E-05 0.26920E-05 0.11208E-04
 0.23657E-05 0.11208E-04 0.26920E-05 0.48430E-05 0.27074E-04 0.40531E-04 0.52118E-04 0.11440E-03 0.17333E-03 0.22274E-03
 0.24275E-03 0.23148E-03 0.17891E-03 0.11303E-03 0.47095E-04 0.52746E-04 0.27970E-04 -.16039E-05 0.39086E-05 0.43362E-07
 -.22565E-05 0.60078E-05 -.27036E-05 0.44035E-05 0.31327E-04 0.46003E-04 0.61197E-04 0.18017E-03 0.24989E-03 0.31136E-03
 0.31183E-03 0.33572E-03 0.29789E-03 0.26064E-03 0.16185E-03 0.85060E-04 0.33064E-04 0.39508E-04 -.86090E-05 0.33348E-05
 -.78586E-05 0.38009E-05 -.77317E-05 0.92864E-05 -.91578E-05 0.34707E-04 0.40093E-04 0.59096E-04 0.62517E-04 0.10672E-03
 0.10211E-03 0.11814E-03 0.81657E-04 0.71565E-04 0.51070E-04 0.64163E-04 0.64032E-05 0.88715E-05 -.13765E-05 0.68826E-05
 0.36558E-05 0.29486E-05 0.22940E-05 0.12488E-06 0.35531E-04 0.36479E-04 0.89947E-04 0.22385E-03 0.28950E-03 0.32589E-03
 0.34073E-03 0.34530E-03 0.33710E-03 0.33114E-03 0.29140E-03 0.21333E-03 0.88103E-04 0.42787E-04 0.36440E-04 0.94585E-05
 0.36909E-05 0.10336E-04 0.51211E-05 0.63821E-05 0.58821E-05 -.50642E-05 0.68089E-05 0.41999E-04 0.58022E-04 0.67154E-04
 0.79103E-04 0.82100E-04 0.80150E-04 0.79054E-04 0.63658E-04 0.30183E-04 0.14349E-05 0.10993E-04 0.19437E-05 0.58690E-05
 0.50989E-05 0.62878E-05 0.25882E-05 0.21895E-05 0.32848E-04 0.38396E-04 0.97235E-04 0.24036E-03 0.29229E-03 0.33503E-03
 0.36007E-03 0.40380E-03 0.39128E-03 0.36343E-03 0.32457E-03 0.30999E-03 0.23770E-03 0.10041E-03 0.32206E-04 0.32022E-04
 -.67373E-05 0.18003E-05 -.41993E-05 0.89016E-05 -.84702E-06 0.20616E-04 0.44559E-05 0.39676E-05 0.10253E-04 0.42042E-04
 0.43100E-04 0.60080E-04 0.51039E-04 0.45424E-04 0.20619E-04 0.12750E-04 0.11435E-04 0.10074E-04 0.28377E-05 0.10490E-04
 0.12642E-04 0.49068E-05 0.85399E-05 -.16173E-05 0.29557E-04 0.39608E-04 0.90842E-04 0.24086E-03 0.29892E-03 0.33791E-03
 0.39492E-03 0.45277E-03 0.47976E-03 0.46538E-03 0.39654E-03 0.33076E-03 0.29613E-03 0.24500E-03 0.91391E-04 0.47843E-04
 0.31361E-04 0.56216E-05 0.91702E-05 0.64463E-05 0.13116E-04 -.11800E-05 0.93058E-05 0.17163E-04 0.14482E-04 0.51635E-05
 0.15757E-04 0.15023E-04 0.18891E-04 0.17304E-04 0.17393E-04 0.15610E-04 0.89772E-05 0.48537E-05 0.10922E-04 0.84732E-05
 0.22390E-04 0.39947E-06 0.16609E-04 -.54858E-05 0.28457E-04 0.38024E-04 0.78025E-04 0.20878E-03 0.30581E-03 0.32905E-03
 0.41659E-03 0.50184E-03 0.57235E-03 0.54876E-03 0.50939E-03 0.40986E-03 0.34712E-03 0.28634E-03 0.22640E-03 0.53925E-04
 0.52600E-04 0.35710E-05 0.80040E-05 -.30340E-05 0.15176E-04 0.15419E-04 0.21824E-04 -.40613E-05 0.15577E-04 0.87216E-05
 0.19220E-04 0.54531E-05 0.21181E-04 0.27426E-05 0.18198E-04 -.30003E-05 0.16408E-04 0.98365E-06 0.19596E-04 0.41694E-05
 0.13749E-04 0.13939E-04 0.64431E-05 0.86817E-05 0.70038E-05 0.49233E-04 0.55237E-04 0.17225E-03 0.29538E-03 0.32791E-03
 0.39884E-03 0.49504E-03 0.59258E-03 0.63138E-03 0.59627E-03 0.49388E-03 0.39569E-03 0.33272E-03 0.29384E-03 0.17749E-03
 0.55552E-04 0.55726E-04 0.92440E-05 0.12602E-04 0.84528E-05 0.63209E-05 0.14348E-04 0.25228E-04 0.13953E-04 0.39094E-05
 0.46587E-05 0.38653E-05 0.18363E-05 0.52108E-05 0.33669E-05 0.88386E-05 0.65666E-05 0.10862E-04 0.12248E-04 0.16221E-04
 0.90041E-05 0.22020E-04 0.13564E-05 0.17033E-04 -.24480E-06 0.40831E-04 0.52438E-04 0.11170E-03 0.25330E-03 0.32991E-03
 0.35920E-03 0.46980E-03 0.55834E-03 0.62592E-03 0.61818E-03 0.57747E-03 0.45303E-03 0.36849E-03 0.31550E-03 0.25822E-03
 0.97760E-04 0.56668E-04 0.26360E-04 0.90258E-05 0.48119E-05 0.24647E-04 0.12023E-04 0.14825E-04 0.97750E-05 0.25888E-04
 0.53520E-05 0.14958E-04 0.39365E-06 0.10576E-04 -.34760E-06 0.12246E-04 0.32496E-05 0.19344E-04 0.75314E-05 0.23782E-04
 0.17952E-04 0.14726E-04 0.12903E-04 0.65594E-05 0.10910E-04 0.14667E-04 0.58914E-04 0.72857E-04 0.17728E-03 0.30590E-03
 0.34053E-03 0.38931E-03 0.47885E-03 0.57160E-03 0.59253E-03 0.55690E-03 0.47885E-03 0.39947E-03 0.33948E-03 0.31357E-03
 0.17671E-03 0.78199E-04 0.60407E-04 0.18450E-04 0.13579E-04 0.12428E-06 0.13903E-04 0.23030E-04 0.19031E-04 0.84769E-05
 0.12948E-04 0.86920E-05 0.85041E-05 0.86790E-05 0.85528E-05 0.10651E-04 0.11383E-04 0.13020E-04 0.16490E-04 0.16907E-04
 0.25104E-04 0.94587E-05 0.20446E-04 0.27557E-05 0.16465E-04 0.52374E-05 0.37425E-04 0.64445E-04 0.97777E-04 0.22108E-03
 0.32714E-03 0.34853E-03 0.40208E-03 0.44377E-03 0.50787E-03 0.50452E-03 0.46645E-03 0.38283E-03 0.35569E-03 0.30727E-03
 0.23213E-03 0.78261E-04 0.77543E-04 0.21071E-04 0.18841E-04 0.11400E-04 0.16734E-04 -.14132E-06 0.21252E-04 0.17214E-04
 0.23639E-04 0.10067E-04 0.21327E-04 0.57343E-05 0.20298E-04 0.58247E-05 0.21874E-04 0.91793E-05 0.23718E-04 0.11078E-04
 0.17380E-04 0.18981E-04 0.13594E-04 0.12773E-04 0.55596E-05 0.12527E-04 0.13947E-04 0.47592E-04 0.79373E-04 0.10817E-03
 0.24471E-03 0.31443E-03 0.34046E-03 0.37253E-03 0.39872E-03 0.40120E-03 0.39395E-03 0.36834E-03 0.34305E-03 0.32758E-03
 0.24606E-03 0.11786E-03 0.81418E-04 0.51366E-04 0.14784E-04 0.38361E-05 0.45388E-05 0.18676E-04 0.12878E-04 0.10934E-04
 0.16163E-04 0.18387E-04 0.16734E-04 0.20171E-04 0.16341E-04 0.19512E-04 0.15655E-04 0.18276E-04 0.17023E-04 0.19795E-04
 0.20804E-04 0.17414E-04 0.18034E-04 0.11651E-04 0.11877E-04 0.41555E-05 0.13635E-04 0.14268E-04 0.53901E-04 0.80543E-04
 0.10879E-03 0.23316E-03 0.30659E-03 0.31596E-03 0.32865E-03 0.34381E-03 0.33951E-03 0.32614E-03 0.32420E-03 0.29498E-03
 0.22879E-03 0.10176E-03 0.80410E-04 0.51189E-04 0.16620E-04 0.20212E-04 0.46098E-05 0.10088E-05 0.93863E-05 0.22147E-04
 0.19011E-04 0.21735E-04 0.22289E-04 0.20101E-04 0.21943E-04 0.18906E-04 0.21126E-04 0.18773E-04 0.20048E-04 0.18366E-04
 0.19754E-04 0.21088E-04 0.17580E-04 0.15845E-04 0.91167E-05 0.87979E-05 0.40746E-05 0.14740E-04 0.18217E-04 0.53087E-04
 0.79563E-04 0.84882E-04 0.17740E-03 0.26643E-03 0.29545E-03 0.29024E-03 0.29814E-03 0.30036E-03 0.29200E-03 0.26545E-03
 0.18241E-03 0.97219E-04 0.82655E-04 0.59116E-04 0.18108E-04 0.56078E-05 0.19061E-05 0.13528E-04 0.86241E-05 0.84323E-05
 0.16924E-04 0.21475E-04 0.21897E-04 0.25655E-04 0.22020E-04 0.23986E-04 0.19891E-04 0.21190E-04 0.19724E-04 0.21408E-04
 0.20793E-04 0.22863E-04 0.18968E-04 0.18760E-04 0.12937E-04 0.91432E-05 0.49136E-05 0.37024E-05 0.11119E-04 0.18703E-04
 0.43782E-04 0.80960E-04 0.69116E-04 0.10219E-03 0.16856E-03 0.22798E-03 0.23802E-03 0.23591E-03 0.21773E-03 0.16823E-03
 0.10590E-03 0.59623E-04 0.72928E-04 0.40968E-04 0.14467E-04 0.21936E-04 0.15206E-05 0.10622E-05 0.49385E-05 0.22250E-04
 0.16361E-04 0.24536E-04 0.22035E-04 0.24687E-04 0.22396E-04 0.23879E-04 0.21450E-04 0.23650E-04 0.20191E-04 0.23220E-04
 0.23188E-04 0.23367E-04 0.21775E-04 0.19602E-04 0.15180E-04 0.12812E-04 0.74232E-05 0.78073E-05 0.48014E-05 0.12094E-04
 0.14863E-04 0.23803E-04 0.59761E-04 0.64846E-04 0.56034E-04 0.61725E-04 0.90786E-04 0.10458E-03 0.93179E-04 0.76033E-04
 0.51325E-04 0.65906E-04 0.66890E-04 0.27969E-04 0.17337E-04 0.18983E-05 0.41635E-05 0.12060E-04 0.93996E-05 0.66769E-05
 0.17257E-04 0.20402E-04 0.22747E-04 0.25290E-04 0.23442E-04 0.24382E-04 0.22290E-04 0.22855E-04 0.23055E-04 0.23590E-04
 0.24743E-04 0.24810E-04 0.22935E-04 0.22201E-04 0.19235E-04 0.15301E-04 0.11723E-04 0.73385E-05 0.69821E-05 0.67856E-05
 0.10522E-04 0.19948E-04 0.12731E-04 0.29512E-04 0.47347E-04 0.55413E-04 0.38576E-04 0.32135E-04 0.32158E-04 0.32256E-04
 0.47426E-04 0.50416E-04 0.25863E-04 0.64894E-05 0.14578E-04 0.14389E-04 0.69530E-05 0.92701E-06 0.87156E-05 0.20535E-04
 0.17507E-04 0.21536E-04 0.22170E-04 0.22074E-04 0.23293E-04 0.23203E-04 0.24266E-04 0.25036E-04 0.24365E-04 0.25418E-04
 0.27162E-04 0.25450E-04 0.25304E-04 0.22442E-04 0.21112E-04 0.19079E-04 0.16424E-04 0.14586E-04 0.11088E-04 0.90908E-05
 0.77208E-05 0.15985E-05 0.13001E-04 0.10918E-04 0.90452E-05 0.10913E-04 0.30745E-04 0.38953E-04 0.40007E-04 0.44918E-04
 0.33445E-04 0.19994E-04 0.59113E-05 0.17540E-04 0.10166E-04 -.11364E-05 0.86079E-05 0.14413E-04 0.13475E-04 0.70082E-05
 0.17817E-04 0.18340E-04 0.21862E-04 0.23099E-04 0.23535E-04 0.24111E-04 0.24883E-04 0.25091E-04 0.27344E-04 0.26485E-04
 0.28971E-04 0.27044E-04 0.26461E-04 0.24524E-04 0.24307E-04 0.20492E-04 0.20222E-04 0.15247E-04 0.15738E-04 0.12572E-04
 0.12477E-04 0.15757E-04 0.63327E-05 0.40052E-05 0.85053E-05 0.10194E-04 -.94066E-06 -.57804E-05 -.24866E-05 -.11052E-04
 -.52143E-05 -.65844E-05 0.83813E-05 0.21041E-05 0.55303E-05 0.16663E-04 0.10686E-04 0.63159E-05 0.12793E-04 0.22181E-04
 0.17979E-04 0.19694E-04 0.21083E-04 0.20136E-04 0.23475E-04 0.23326E-04 0.26956E-04 0.27385E-04 0.28777E-04 0.28455E-04
 0.29819E-04 0.29336E-04 0.27533E-04 0.26064E-04 0.23836E-04 0.24247E-04 0.21552E-04 0.22085E-04 0.18084E-04 0.16716E-04
 0.14287E-04 0.70476E-05 0.13526E-04 0.13988E-04 0.70164E-05 0.53235E-06 0.82602E-05 0.10161E-04 0.53024E-05 0.12356E-04
 0.79159E-05 0.13683E-04 0.49520E-05 0.10411E-04 0.10642E-04 0.35191E-05 0.12821E-04 0.20163E-04 0.17114E-04 0.10320E-04
 0.17716E-04 0.18730E-04 0.20228E-04 0.23308E-04 0.22831E-04 0.25677E-04 0.25876E-04 0.28380E-04 0.29728E-04 0.30608E-04
 0.31383E-04 0.30325E-04 0.29090E-04 0.27686E-04 0.26673E-04 0.23743E-04 0.23345E-04 0.19992E-04 0.20338E-04 0.18978E-04
 0.18042E-04 0.23103E-04 0.13856E-04 0.96344E-05 0.13120E-04 0.16722E-04 0.49408E-05 -.10395E-05 -.30543E-06 -.88056E-05
 -.42096E-05 -.79308E-05 0.26149E-05 0.31624E-05 0.85072E-05 0.20492E-04 0.15402E-04 0.11396E-04 0.16038E-04 0.24722E-04
 0.18856E-04 0.19930E-04 0.20659E-04 0.20348E-04 0.23568E-04 0.24351E-04 0.27707E-04 0.29098E-04 0.30362E-04 0.31108E-04
 0.29068E-04 0.28974E-04 0.28839E-04 0.26851E-04 0.24928E-04 0.23699E-04 0.22482E-04 0.21430E-04 0.20141E-04 0.17846E-04
 0.19540E-04 0.14210E-04 0.17189E-04 0.22228E-04 0.16184E-04 0.64849E-05 0.75860E-05 0.82950E-05 0.68956E-05 0.92077E-05
 0.61952E-05 0.13271E-04 0.12779E-04 0.15900E-04 0.14312E-04 0.97862E-05 0.19358E-04 0.24889E-04 0.17596E-04 0.13191E-04
 0.20871E-04 0.19962E-04 0.23327E-04 0.25053E-04 0.25111E-04 0.25092E-04 0.24645E-04 0.25742E-04 0.27518E-04 0.28073E-04
 0.28157E-04 0.28785E-04 0.28212E-04 0.27806E-04 0.26426E-04 0.23643E-04 0.21151E-04 0.18756E-04 0.17809E-04 0.18581E-04
 0.17000E-04 0.22614E-04 0.20119E-04 0.14970E-04 0.19504E-04 0.25959E-04 0.21728E-04 0.17286E-04 0.16737E-04 0.14542E-04
 0.19641E-04 0.15902E-04 0.21751E-04 0.23457E-04 0.27358E-04 0.32655E-04 0.21396E-04 0.13923E-04 0.20351E-04 0.24134E-04
 0.17106E-04 0.20254E-04 0.19510E-04 0.20535E-04 0.22567E-04 0.23976E-04 0.25670E-04 0.25968E-04 0.26094E-04 0.27472E-04
 0.27130E-04 0.27777E-04 0.27750E-04 0.26794E-04 0.24988E-04 0.24574E-04 0.23084E-04 0.22391E-04 0.20019E-04 0.17684E-04
 0.18238E-04 0.14030E-04 0.18462E-04 0.26411E-04 0.24247E-04 0.20632E-04 0.25824E-04 0.32268E-04 0.34198E-04 0.35892E-04
 0.32015E-04 0.38878E-04 0.35458E-04 0.35054E-04 0.30252E-04 0.23131E-04 0.30508E-04 0.33302E-04 0.20607E-04 0.13732E-04
 0.19102E-04 0.16506E-04 0.19445E-04 0.21772E-04 0.22471E-04 0.23539E-04 0.23038E-04 0.24373E-04 0.25583E-04 0.26398E-04
 0.26445E-04 0.26331E-04 0.26565E-04 0.25956E-04 0.26035E-04 0.23501E-04 0.22536E-04 0.19824E-04 0.19469E-04 0.18321E-04
 0.16272E-04 0.19927E-04 0.18376E-04 0.15051E-04 0.24522E-04 0.35231E-04 0.39918E-04 0.41630E-04 0.44775E-04 0.53887E-04
 0.66971E-04 0.63436E-04 0.66860E-04 0.63581E-04 0.62270E-04 0.58946E-04 0.39522E-04 0.25306E-04 0.29679E-04 0.27589E-04
 0.16327E-04 0.16537E-04 0.14056E-04 0.14376E-04 0.17636E-04 0.19836E-04 0.23335E-04 0.23787E-04 0.24689E-04 0.25348E-04
 0.26346E-04 0.24385E-04 0.26174E-04 0.23366E-04 0.24389E-04 0.23071E-04 0.25001E-04 0.23386E-04 0.23286E-04 0.18183E-04
 0.18630E-04 0.10201E-04 0.15428E-04 0.21992E-04 0.26080E-04 0.28449E-04 0.46079E-04 0.57584E-04 0.87733E-04 0.96069E-04
 0.88599E-04 0.92181E-04 0.91291E-04 0.88028E-04 0.82911E-04 0.71274E-04 0.76517E-04 0.66814E-04 0.41877E-04 0.25044E-04
 0.25991E-04 0.13789E-04 0.15324E-04 0.13111E-04 0.16190E-04 0.16549E-04 0.20169E-04 0.20930E-04 0.25127E-04 0.23886E-04
 0.23978E-04 0.25252E-04 0.22873E-04 0.24289E-04 0.22796E-04 0.23650E-04 0.21794E-04 0.22653E-04 0.20582E-04 0.21405E-04
 0.15057E-04 0.18874E-04 0.11882E-04 0.12202E-04 0.20687E-04 0.44876E-04 0.52485E-04 0.87815E-04 0.10076E-03 0.10188E-03
 0.14409E-03 0.17476E-03 0.19478E-03 0.19212E-03 0.17566E-03 0.15138E-03 0.11049E-03 0.86919E-04 0.81574E-04 0.61687E-04
 0.33071E-04 0.25572E-04 0.12142E-04 0.96649E-05 0.89581E-05 0.13605E-04 0.17136E-04 0.21654E-04 0.22037E-04 0.25174E-04
 0.23591E-04 0.24236E-04 0.22548E-04 0.22498E-04 0.20809E-04 0.23139E-04 0.23350E-04 0.25836E-04 0.23769E-04 0.21569E-04
 0.18168E-04 0.99968E-05 0.10398E-04 0.17355E-04 0.22514E-04 0.32671E-04 0.63500E-04 0.10634E-03 0.11817E-03 0.19312E-03
 0.25350E-03 0.28494E-03 0.28380E-03 0.28597E-03 0.28008E-03 0.26518E-03 0.23931E-03 0.18716E-03 0.12143E-03 0.93349E-04
 0.69885E-04 0.37969E-04 0.24438E-04 0.14813E-04 0.99972E-05 0.11593E-04 0.12969E-04 0.18453E-04 0.21338E-04 0.24003E-04
 0.21126E-04 0.25188E-04 0.20229E-04 0.23922E-04 0.20214E-04 0.23440E-04 0.20026E-04 0.23260E-04 0.20402E-04 0.23028E-04
 0.15675E-04 0.19108E-04 0.10038E-04 0.82925E-05 0.19148E-04 0.43036E-04 0.74054E-04 0.10961E-03 0.15269E-03 0.25347E-03
 0.29766E-03 0.31130E-03 0.32619E-03 0.34436E-03 0.34075E-03 0.33868E-03 0.31493E-03 0.29926E-03 0.24891E-03 0.16797E-03
 0.10747E-03 0.81460E-04 0.37016E-04 0.24547E-04 0.93647E-05 0.12478E-04 0.10885E-04 0.19008E-04 0.17456E-04 0.24547E-04
 0.21829E-04 0.22465E-04 0.21815E-04 0.21427E-04 0.20372E-04 0.21749E-04 0.22536E-04 0.24311E-04 0.23591E-04 0.21385E-04
 0.19955E-04 0.10802E-04 0.12034E-04 0.15241E-04 0.22041E-04 0.30154E-04 0.76283E-04 0.11550E-03 0.18846E-03 0.30629E-03
 0.33450E-03 0.38680E-03 0.45175E-03 0.51901E-03 0.53716E-03 0.50781E-03 0.44552E-03 0.38281E-03 0.33649E-03 0.29395E-03
 0.19118E-03 0.11817E-03 0.81376E-04 0.42442E-04 0.24460E-04 0.14754E-04 0.12125E-04 0.14850E-04 0.18334E-04 0.20924E-04
 0.20487E-04 0.21235E-04 0.20989E-04 0.21036E-04 0.21762E-04 0.20382E-04 0.20591E-04 0.18650E-04 0.20460E-04 0.19374E-04
 0.18650E-04 0.19084E-04 0.15817E-04 0.84168E-05 0.21479E-04 0.38399E-04 0.77127E-04 0.11064E-03 0.19949E-03 0.30839E-03
 0.35362E-03 0.44582E-03 0.58551E-03 0.69699E-03 0.75588E-03 0.76497E-03 0.70353E-03 0.58559E-03 0.45177E-03 0.36581E-03
 0.31854E-03 0.20381E-03 0.11719E-03 0.77008E-04 0.36974E-04 0.23932E-04 0.16015E-04 0.16716E-04 0.16644E-04 0.19813E-04
 0.19757E-04 0.19467E-04 0.20046E-04 0.19244E-04 0.19141E-04 0.19475E-04 0.20425E-04 0.20881E-04 0.20641E-04 0.18852E-04
 0.20150E-04 0.13022E-04 0.16852E-04 0.19250E-04 0.24126E-04 0.27869E-04 0.67456E-04 0.11010E-03 0.19093E-03 0.32285E-03
 0.37009E-03 0.51149E-03 0.68912E-03 0.84141E-03 0.92176E-03 0.94231E-03 0.91886E-03 0.84450E-03 0.69198E-03 0.50094E-03
 0.36988E-03 0.31913E-03 0.19156E-03 0.11252E-03 0.70292E-04 0.35298E-04 0.23177E-04 0.16736E-04 0.18377E-04 0.18135E-04
 0.23510E-04 0.13201E-04 0.22502E-04 0.12329E-04 0.22834E-04 0.11802E-04 0.20988E-04 0.90349E-05 0.19830E-04 0.10462E-04
 0.20777E-04 0.15979E-04 0.24062E-04 0.10192E-04 0.27709E-04 0.31942E-04 0.63975E-04 0.91400E-04 0.16551E-03 0.28528E-03
 0.36206E-03 0.49043E-03 0.72501E-03 0.89544E-03 0.10121E-02 0.10572E-02 0.10629E-02 0.10013E-02 0.90803E-03 0.72619E-03
 0.51015E-03 0.35602E-03 0.30277E-03 0.15372E-03 0.10215E-03 0.50254E-04 0.37064E-04 0.17973E-04 0.23663E-04 0.13898E-04
 0.16713E-04 0.17797E-04 0.13566E-04 0.14379E-04 0.10813E-04 0.13485E-04 0.12143E-04 0.15480E-04 0.12593E-04 0.14375E-04
 0.14112E-04 0.13112E-04 0.15973E-04 0.24895E-04 0.22882E-04 0.28218E-04 0.43047E-04 0.89074E-04 0.12694E-03 0.26105E-03
 0.34170E-03 0.45893E-03 0.69391E-03 0.90462E-03 0.10403E-02 0.10978E-02 0.11289E-02 0.11105E-02 0.10429E-02 0.89859E-03
 0.69221E-03 0.45213E-03 0.33710E-03 0.25372E-03 0.12207E-03 0.83571E-04 0.39294E-04 0.29858E-04 0.20112E-04 0.21150E-04
 0.14241E-04 0.18839E-04 0.64132E-05 0.12879E-04 0.21955E-05 0.11139E-04 -.40231E-06 0.89651E-05 -.13314E-05 0.11523E-04
 0.45229E-06 0.20869E-04 0.86899E-05 0.22144E-04 0.13744E-04 0.40133E-04 0.30781E-04 0.70375E-04 0.91023E-04 0.18498E-03
 0.29851E-03 0.37654E-03 0.58322E-03 0.83956E-03 0.10021E-02 0.11172E-02 0.11478E-02 0.11529E-02 0.10990E-02 0.10223E-02
 0.83274E-03 0.59676E-03 0.37066E-03 0.30598E-03 0.17499E-03 0.96452E-04 0.57868E-04 0.36657E-04 0.22268E-04 0.24654E-04
 0.18586E-04 0.12194E-04 0.68555E-05 0.10243E-05 -.25451E-05 -.39680E-05 -.14992E-05 0.65553E-06 0.11531E-05 0.20206E-06
 0.27976E-05 -.10714E-05 0.64075E-05 0.14250E-04 0.19382E-04 0.17648E-04 0.30116E-04 0.45703E-04 0.81368E-04 0.12367E-03
 0.24800E-03 0.32851E-03 0.45164E-03 0.70628E-03 0.92045E-03 0.10502E-02 0.11242E-02 0.11592E-02 0.11290E-02 0.10533E-02
 0.91920E-03 0.70377E-03 0.44624E-03 0.31963E-03 0.24006E-03 0.11238E-03 0.74044E-04 0.39590E-04 0.30124E-04 0.22084E-04
 0.23151E-04 0.43542E-05 0.73661E-05 -.12760E-04 -.47608E-05 -.19340E-04 -.93631E-05 -.23804E-04 -.93489E-05 -.21148E-04
 -.70268E-05 -.12701E-04 0.36654E-05 -.81808E-05 0.14421E-04 0.11590E-04 0.32143E-04 0.19689E-04 0.59084E-04 0.68625E-04
 0.15212E-03 0.26155E-03 0.33633E-03 0.50575E-03 0.76274E-03 0.94680E-03 0.10628E-02 0.10932E-02 0.11103E-02 0.10542E-02
 0.95456E-03 0.75213E-03 0.51967E-03 0.32139E-03 0.27703E-03 0.13690E-03 0.86340E-04 0.46285E-04 0.36109E-04 0.19373E-04
 0.14221E-04 0.92599E-05 -.58875E-05 -.12871E-04 -.24734E-04 -.29510E-04 -.27993E-04 -.20046E-04 -.20326E-04 -.18812E-04
 -.21330E-04 -.25999E-04 -.24234E-04 -.12142E-04 -.51611E-05 0.16882E-05 0.84807E-05 0.26389E-04 0.29150E-04 0.67196E-04
 0.85545E-04 0.18363E-03 0.28606E-03 0.34583E-03 0.54203E-03 0.74946E-03 0.92113E-03 0.10128E-02 0.10411E-02 0.10019E-02
 0.92278E-03 0.75544E-03 0.53856E-03 0.34477E-03 0.28151E-03 0.17686E-03 0.81119E-04 0.61657E-04 0.30549E-04 0.27365E-04
 0.10408E-04 0.73775E-05 -.12702E-04 -.19360E-04 -.40311E-04 -.30082E-04 -.40736E-04 -.43086E-04 -.51378E-04 -.44669E-04
 -.48983E-04 -.34268E-04 -.36644E-04 -.30613E-04 -.28749E-04 -.66507E-05 0.95614E-06 0.78049E-05 0.17174E-04 0.24105E-04
 0.57038E-04 0.80262E-04 0.18719E-03 0.28385E-03 0.34025E-03 0.52461E-03 0.70001E-03 0.83440E-03 0.89824E-03 0.91125E-03
 0.83481E-03 0.70301E-03 0.51202E-03 0.34593E-03 0.27895E-03 0.19650E-03 0.84237E-04 0.69777E-04 0.29174E-04 0.29032E-04
 0.92038E-05 0.21511E-05 -.15378E-04 -.32369E-04 -.37842E-04 -.51474E-04 -.77273E-04 -.65717E-04 -.60509E-04 -.51813E-04
 -.59548E-04 -.67827E-04 -.72332E-04 -.54443E-04 -.41306E-04 -.30974E-04 -.21774E-04 0.42270E-05 0.72126E-05 0.27187E-04
 0.30280E-04 0.70989E-04 0.86632E-04 0.19626E-03 0.28257E-03 0.32654E-03 0.44884E-03 0.59744E-03 0.69121E-03 0.71826E-03
 0.68665E-03 0.58856E-03 0.44968E-03 0.33370E-03 0.28175E-03 0.19947E-03 0.86016E-04 0.69731E-04 0.32271E-04 0.25241E-04
 -.59494E-06 0.61928E-05 -.29413E-04 -.24775E-04 -.54930E-04 -.78047E-04 -.75200E-04 -.41099E-04 -.50492E-04 -.39721E-04
 -.55517E-04 -.37554E-04 -.61823E-04 -.66932E-04 -.85191E-04 -.42835E-04 -.35103E-04 -.15899E-04 -.10674E-04 0.71205E-05
 0.79486E-05 0.29305E-04 0.53548E-04 0.88636E-04 0.16967E-03 0.28878E-03 0.31387E-03 0.37976E-03 0.44418E-03 0.51461E-03
 0.49651E-03 0.46021E-03 0.37143E-03 0.32124E-03 0.26955E-03 0.18751E-03 0.80016E-04 0.78007E-04 0.24624E-04 0.29853E-04
 0.12699E-05 -.62852E-06 -.28775E-04 -.29161E-04 -.71289E-04 -.75988E-04 -.53744E-04 -.66903E-04 -.10182E-03 -.11666E-03
 -.12496E-03 -.12046E-03 -.10119E-03 -.65964E-04 -.61745E-04 -.78653E-04 -.67451E-04 -.24824E-04 -.19660E-04 0.61743E-05
 0.76440E-05 0.26740E-04 0.28929E-04 0.67455E-04 0.80711E-04 0.14368E-03 0.24384E-03 0.31408E-03 0.33766E-03 0.35667E-03
 0.36628E-03 0.35802E-03 0.33108E-03 0.30651E-03 0.25010E-03 0.15013E-03 0.81973E-04 0.71193E-04 0.27477E-04 0.24482E-04
 -.37909E-05 0.17331E-05 -.34092E-04 -.26197E-04 -.82587E-04 -.61257E-04 -.69754E-04 -.11093E-03 -.15130E-03 -.13662E-03