    2    2    1    1
  0.1172237E+03  0.4113367E-09  0.4113367E-09  0.1600000E-08  0.5000000E-15
  1.000000000000000E-004
  CAR 
 unknown system                          
     10    150     16
 
  0.0000000E+00  0.0000000E+00  0.0000000E+00  0.6666667E-02
      1        -13.564387   1.000000
      2         -8.591095   1.000000
      3         -2.890650   1.000000
      4         -2.285316   1.000000
      5         -2.285303   1.000000
      6         -0.715570   0.000000
      7          0.508696   0.000000
      8          0.508702   0.000000
      9          2.090202   0.000000
     10          2.168040   0.000000
     11          3.626122   0.000000
     12          4.529978   0.000000
     13          4.845022   0.000000
     14          5.884800   0.000000
     15          5.884803   0.000000
     16          6.496015   0.000000
 
  0.1360544E-01 -0.6802721E-02  0.0000000E+00  0.6666667E-02
      1        -13.562911   1.000000
      2         -8.590987   1.000000
      3         -2.889958   1.000000
      4         -2.306685   1.000000
      5         -2.289041   1.000000
      6         -0.696502   0.000000
      7          0.503947   0.000000
      8          0.512402   0.000000
      9          2.092244   0.000000
     10          2.169843   0.000000
     11          3.628094   0.000000
     12          4.531641   0.000000
     13          4.851416   0.000000
     14          5.856185   0.000000
     15          5.882427   0.000000
     16          6.524266   0.000000
 
  0.2721088E-01 -0.1360544E-01  0.0000000E+00  0.6666667E-02
      1        -13.558461   1.000000
      2         -8.590666   1.000000
      3         -2.887888   1.000000
      4         -2.367499   1.000000
      5         -2.300222   1.000000
      6         -0.642799   0.000000
      7          0.489972   0.000000
      8          0.523666   0.000000
      9          2.098376   0.000000
     10          2.175216   0.000000
     11          3.633846   0.000000
     12          4.536630   0.000000
     13          4.869835   0.000000
     14          5.784598   0.000000
     15          5.875132   0.000000
     16          6.595316   0.000000
 
  0.4081633E-01 -0.2040816E-01  0.0000000E+00  0.6666667E-02
      1        -13.551055   1.000000
      2         -8.590179   1.000000
      3         -2.884478   1.000000
      4         -2.459927   1.000000
      5         -2.318866   1.000000
      6         -0.563028   0.000000
      7          0.467465   0.000000
      8          0.542911   0.000000
      9          2.108596   0.000000
     10          2.184059   0.000000
     11          3.642911   0.000000
     12          4.544929   0.000000
     13          4.897627   0.000000
     14          5.694713   0.000000
     15          5.862353   0.000000
     16          6.688418   0.000000
 
  0.5442177E-01 -0.2721088E-01  0.0000000E+00  0.6666667E-02
      1        -13.540666   1.000000
      2         -8.589576   1.000000
      3         -2.879782   1.000000
      4         -2.575083   1.000000
      5         -2.344977   1.000000
      6         -0.467074   0.000000
      7          0.437590   0.000000
      8          0.570860   0.000000
      9          2.122912   0.000000
     10          2.196232   0.000000
     11          3.654588   0.000000
     12          4.556531   0.000000
     13          4.929171   0.000000
     14          5.606207   0.000000
     15          5.843294   0.000000
     16          6.616036   0.000000
 
  0.6802721E-01 -0.3401361E-01  0.0000000E+00  0.6666667E-02
      1        -13.527385   1.000000
      2         -8.588980   1.000000
      3         -2.873904   1.000000
      4         -2.705574   1.000000
      5         -2.378550   1.000000
      6         -0.363877   0.000000
      7          0.401629   0.000000
      8          0.608341   0.000000
      9          2.141306   0.000000
     10          2.211573   0.000000
     11          3.668018   0.000000
     12          4.571399   0.000000
     13          4.953715   0.000000
     14          5.536740   0.000000
     15          5.817064   0.000000
     16          6.535894   0.000000
 
  0.8163265E-01 -0.4081633E-01  0.0000000E+00  0.6666667E-02
      1        -13.511182   1.000000
      2         -8.588491   1.000000
      3         -2.866952   1.000000
      4         -2.845782   1.000000
      5         -2.419539   1.000000
      6         -0.260557   0.000000
      7          0.361080   0.000000
      8          0.656165   0.000000
      9          2.163743   0.000000
     10          2.229921   0.000000
     11          3.682264   0.000000
     12          4.589487   0.000000
     13          4.955673   0.000000
     14          5.505228   0.000000
     15          5.783147   0.000000
     16          6.461313   0.000000
 
  0.9523810E-01 -0.4761905E-01  0.0000000E+00  0.6666667E-02
      1        -13.492060   1.000000
      2         -8.588257   1.000000
      3         -2.991621   1.000000
      4         -2.859088   1.000000
      5         -2.467807   1.000000
      6         -0.162405   0.000000
      7          0.317453   0.000000
      8          0.714729   0.000000
      9          2.190145   0.000000
     10          2.251135   0.000000
     11          3.696338   0.000000
     12          4.610729   0.000000
     13          4.924916   0.000000
     14          5.523387   0.000000
     15          5.741989   0.000000
     16          6.395909   0.000000
 
  0.1088435E+00 -0.5442177E-01  0.0000000E+00  0.6666667E-02
      1        -13.469980   1.000000
      2         -8.588433   1.000000
      3         -3.140147   1.000000
      4         -2.850517   1.000000
      5         -2.523101   1.000000
      6         -0.072794   0.000000
      7          0.272163   0.000000
      8          0.783540   0.000000
      9          2.220365   0.000000
     10          2.275091   0.000000
     11          3.709198   0.000000
     12          4.635020   0.000000
     13          4.868046   0.000000
     14          5.585197   0.000000
     15          5.695462   0.000000
     16          6.340965   0.000000
 
  0.1224490E+00 -0.6122449E-01  0.0000000E+00  0.6666667E-02
      1        -13.445043   1.000000
      2         -8.589249   1.000000
      3         -3.289253   1.000000
      4         -2.841649   1.000000
      5         -2.585114   1.000000
      6          0.006672   0.000000
      7          0.226420   0.000000
      8          0.860836   0.000000
      9          2.254145   0.000000
     10          2.301683   0.000000
     11          3.719718   0.000000
     12          4.662200   0.000000
     13          4.799410   0.000000
     14          5.646713   0.000000
     15          5.676124   0.000000
     16          6.295850   0.000000
 
  0.1360544E+00 -0.6802721E-01  0.0000000E+00  0.6666667E-02
      1        -13.417252   1.000000
      2         -8.590941   1.000000
      3         -3.437265   1.000000
      4         -2.833275   1.000000
      5         -2.652931   1.000000
      6          0.076120   0.000000
      7          0.181300   0.000000
      8          0.943749   0.000000
      9          2.291098   0.000000
     10          2.330818   0.000000
     11          3.726730   0.000000
     12          4.692055   0.000000
     13          4.730372   0.000000
     14          5.599803   0.000000
     15          5.784478   0.000000
     16          6.258862   0.000000
 
  0.1496599E+00 -0.7482993E-01  0.0000000E+00  0.6666667E-02
      1        -13.386526   1.000000
      2         -8.593718   1.000000
      3         -3.582808   1.000000
      4         -2.828227   1.000000
      5         -2.723509   1.000000
      6          0.136686   0.000000
      7          0.137699   0.000000
      8          1.028767   0.000000
      9          2.330697   0.000000
     10          2.362414   0.000000
     11          3.729077   0.000000
     12          4.668004   0.000000
     13          4.724312   0.000000
     14          5.558867   0.000000
     15          5.902488   0.000000
     16          6.228066   0.000000
 
  0.1632653E+00 -0.8163265E-01  0.0000000E+00  0.6666667E-02
      1        -13.353005   1.000000
      2         -8.597915   1.000000
      3         -3.724897   1.000000
      4         -2.845744   1.000000
      5         -2.777536   1.000000
      6          0.096253   0.000000
      7          0.189863   0.000000
      8          1.112178   0.000000
      9          2.372260   0.000000
     10          2.396386   0.000000
     11          3.725806   0.000000
     12          4.616561   0.000000
     13          4.758648   0.000000
     14          5.527359   0.000000
     15          6.024510   0.000000
     16          6.201872   0.000000
 
  0.1768707E+00 -0.8843537E-01  0.0000000E+00  0.6666667E-02
      1        -13.316646   1.000000
      2         -8.603828   1.000000
      3         -3.862532   1.000000
      4         -2.915116   1.000000
      5         -2.785422   1.000000
      6          0.057517   0.000000
      7          0.237139   0.000000
      8          1.190797   0.000000
      9          2.415052   0.000000
     10          2.432645   0.000000
     11          3.716518   0.000000
     12          4.578681   0.000000
     13          4.794773   0.000000
     14          5.507676   0.000000
     15          6.146160   0.000000
     16          6.179634   0.000000
 
  0.1904762E+00 -0.9523810E-01  0.0000000E+00  0.6666667E-02
      1        -13.277484   1.000000
      2         -8.611801   1.000000
      3         -3.994912   1.000000
      4         -3.003735   1.000000
      5         -2.779590   1.000000
      6          0.021901   0.000000
      7          0.279667   0.000000
      8          1.261984   0.000000
      9          2.458378   0.000000
     10          2.471090   0.000000
     11          3.701603   0.000000
     12          4.555363   0.000000
     13          4.832513   0.000000
     14          5.500437   0.000000
     15          6.161911   0.000000
     16          6.263613   0.000000
 
  0.2040816E+00 -0.1020408E+00  0.0000000E+00  0.6666667E-02
      1        -13.235539   1.000000
      2         -8.622187   1.000000
      3         -4.121283   1.000000
      4         -3.099319   1.000000
      5         -2.772057   1.000000
      6         -0.010295   0.000000
      7          0.318237   0.000000
      8          1.323816   0.000000
      9          2.501760   0.000000
     10          2.511607   0.000000
     11          3.682363   0.000000
     12          4.546364   0.000000
     13          4.871902   0.000000
     14          5.503871   0.000000
     15          6.151003   0.000000
     16          6.373583   0.000000
 
  0.2176871E+00 -0.1088435E+00  0.0000000E+00  0.6666667E-02
      1        -13.190869   1.000000
      2         -8.635359   1.000000
      3         -4.240994   1.000000
      4         -3.199519   1.000000
      5         -2.764988   1.000000
      6         -0.038850   0.000000
      7          0.353257   0.000000
      8          1.375053   0.000000
      9          2.545050   0.000000
     10          2.554062   0.000000
     11          3.660806   0.000000
     12          4.550484   0.000000
     13          4.913156   0.000000
     14          5.513275   0.000000
     15          6.151360   0.000000
     16          6.473283   0.000000
 
  0.2312925E+00 -0.1156463E+00  0.0000000E+00  0.6666667E-02
      1        -13.143540   1.000000
      2         -8.651705   1.000000
      3         -4.353450   1.000000
      4         -3.303298   1.000000
      5         -2.759223   1.000000
      6         -0.063568   0.000000
      7          0.384793   0.000000
      8          1.415117   0.000000
      9          2.588534   0.000000
     10          2.598306   0.000000
     11          3.639254   0.000000
     12          4.566039   0.000000
     13          4.956552   0.000000
     14          5.521376   0.000000
     15          6.169338   0.000000
     16          6.560315   0.000000
 
  0.2448980E+00 -0.1224490E+00  0.0000000E+00  0.6666667E-02
      1        -13.093546   1.000000
      2         -8.671588   1.000000
      3         -4.458023   1.000000
      4         -3.409887   1.000000
      5         -2.755336   1.000000
      6         -0.084238   0.000000
      7          0.412630   0.000000
      8          1.444083   0.000000
      9          2.632871   0.000000
     10          2.644176   0.000000
     11          3.619982   0.000000
     12          4.591251   0.000000
     13          5.002141   0.000000
     14          5.520607   0.000000
     15          6.211230   0.000000
     16          6.632647   0.000000
 
  0.2585034E+00 -0.1292517E+00  0.0000000E+00  0.6666667E-02
      1        -13.040889   1.000000
      2         -8.695323   1.000000
      3         -4.554205   1.000000
      4         -3.518624   1.000000
      5         -2.753774   1.000000
      6         -0.100628   0.000000
      7          0.436258   0.000000
      8          1.462718   0.000000
      9          2.678938   0.000000
     10          2.691503   0.000000
     11          3.605009   0.000000
     12          4.624500   0.000000
     13          5.049378   0.000000
     14          5.506683   0.000000
     15          6.280042   0.000000
     16          6.688163   0.000000
 
  0.2721088E+00 -0.1360544E+00  0.0000000E+00  0.6666667E-02
      1        -12.985706   1.000000
      2         -8.723242   1.000000
      3         -4.641582   1.000000
      4         -3.628926   1.000000
      5         -2.755009   1.000000
      6         -0.112588   0.000000
      7          0.454891   0.000000
      8          1.472403   0.000000
      9          2.727635   0.000000
     10          2.740122   0.000000
     11          3.595957   0.000000
     12          4.664377   0.000000
     13          5.096478   0.000000
     14          5.480907   0.000000
     15          6.373736   0.000000
     16          6.724561   0.000000
 
  0.2857143E+00 -0.1428571E+00  0.0000000E+00  0.6666667E-02
      1        -12.927952   1.000000
      2         -8.755603   1.000000
      3         -4.719785   1.000000
      4         -3.740232   1.000000
      5         -2.759458   1.000000
      6         -0.119855   0.000000
      7          0.467542   0.000000
      8          1.475063   0.000000
      9          2.779724   0.000000
     10          2.789890   0.000000
     11          3.594065   0.000000
     12          4.709706   0.000000
     13          5.138884   0.000000
     14          5.450372   0.000000
     15          6.486795   0.000000
     16          6.739628   0.000000
 
  0.2993197E+00 -0.1496599E+00  0.0000000E+00  0.6666667E-02
      1        -12.867781   1.000000
      2         -8.792603   1.000000
      3         -4.788498   1.000000
      4         -3.852063   1.000000
      5         -2.767471   1.000000
      6         -0.122206   0.000000
      7          0.473070   0.000000
      8          1.473085   0.000000
      9          2.835741   0.000000
     10          2.840722   0.000000
     11          3.600243   0.000000
     12          4.759487   0.000000
     13          5.166043   0.000000
     14          5.428969   0.000000
     15          6.612189   0.000000
     16          6.732033   0.000000
 
  0.3129252E+00 -0.1564626E+00  0.0000000E+00  0.6666667E-02
      1        -12.805241   1.000000
      2         -8.834381   1.000000
      3         -4.847566   1.000000
      4         -3.963944   1.000000
      5         -2.779408   1.000000
      6         -0.119424   0.000000
      7          0.470319   0.000000
      8          1.468984   0.000000
      9          2.892601   0.000000
     10          2.895983   0.000000
     11          3.615021   0.000000
     12          4.812810   0.000000
     13          5.162533   0.000000
     14          5.435190   0.000000
     15          6.702422   0.000000
     16          6.742525   0.000000
 
  0.3265306E+00 -0.1632653E+00  0.0000000E+00  0.6666667E-02
      1        -12.740328   1.000000
      2         -8.880954   1.000000
      3         -4.896881   1.000000
      4         -4.075400   1.000000
      5         -2.795495   1.000000
      6         -0.111284   0.000000
      7          0.458345   0.000000
      8          1.465136   0.000000
      9          2.945615   0.000000
     10          2.960554   0.000000
     11          3.638642   0.000000
     12          4.868795   0.000000
     13          5.126511   0.000000
     14          5.473422   0.000000
     15          6.653852   0.000000
     16          6.870565   0.000000
 
  0.3401361E+00 -0.1700680E+00  0.0000000E+00  0.6666667E-02
      1        -12.673153   1.000000
      2         -8.932290   1.000000
      3         -4.936472   1.000000
      4         -4.186034   1.000000
      5         -2.815924   1.000000
      6         -0.097628   0.000000
      7          0.436529   0.000000
      8          1.463456   0.000000
      9          2.999966   0.000000
     10          3.029414   0.000000
     11          3.671057   0.000000
     12          4.926506   0.000000
     13          5.071399   0.000000
     14          5.532290   0.000000
     15          6.591101   0.000000
     16          6.989516   0.000000
 
  0.3537415E+00 -0.1768707E+00  0.0000000E+00  0.6666667E-02
      1        -12.603856   1.000000
      2         -8.988259   1.000000
      3         -4.966481   1.000000
      4         -4.295483   1.000000
      5         -2.840799   1.000000
      6         -0.078376   0.000000
      7          0.404789   0.000000
      8          1.465198   0.000000
      9          3.055962   0.000000
     10          3.102436   0.000000
     11          3.711969   0.000000
     12          4.984837   0.000000
     13          5.007993   0.000000
     14          5.602711   0.000000
     15          6.519529   0.000000
     16          7.093632   0.000000
 
  0.3673469E+00 -0.1836735E+00  0.0000000E+00  0.6666667E-02
      1        -12.532428   1.000000
      2         -9.048645   1.000000
      3         -4.987107   1.000000
      4         -4.403354   1.000000
      5         -2.870082   1.000000
      6         -0.053389   0.000000
      7          0.363633   0.000000
      8          1.470861   0.000000
      9          3.114003   0.000000
     10          3.179456   0.000000
     11          3.760888   0.000000
     12          4.941986   0.000000
     13          5.042429   0.000000
     14          5.680486   0.000000
     15          6.444333   0.000000
     16          7.178884   0.000000
 
  0.3809524E+00 -0.1904762E+00  0.0000000E+00  0.6666667E-02
      1        -12.459077   1.000000
      2         -9.113202   1.000000
      3         -4.998735   1.000000
      4         -4.509397   1.000000
      5         -2.903780   1.000000
      6         -0.022769   0.000000
      7          0.313985   0.000000
      8          1.480279   0.000000
      9          3.174503   0.000000
     10          3.260260   0.000000
     11          3.817152   0.000000
     12          4.876564   0.000000
     13          5.097506   0.000000
     14          5.763724   0.000000
     15          6.370348   0.000000
     16          7.242545   0.000000
 
  0.3945578E+00 -0.1972789E+00  0.0000000E+00  0.6666667E-02
      1        -12.383856   1.000000
      2         -9.181531   1.000000
      3         -5.001621   1.000000
      4         -4.613209   1.000000
      5         -2.941719   1.000000
      6          0.013455   0.000000
      7          0.257139   0.000000
      8          1.492795   0.000000
      9          3.237896   0.000000
     10          3.344645   0.000000
     11          3.880011   0.000000
     12          4.813864   0.000000
     13          5.147728   0.000000
     14          5.851501   0.000000
     15          6.302194   0.000000
     16          7.283213   0.000000
 
  0.4081633E+00 -0.2040816E+00  0.0000000E+00  0.6666667E-02
      1        -12.306834   1.000000
      2         -9.253277   1.000000
      3         -4.996263   1.000000
      4         -4.714505   1.000000
      5         -2.983611   1.000000
      6          0.055174   0.000000
      7          0.194521   0.000000
      8          1.507459   0.000000
      9          3.304603   0.000000
     10          3.432386   0.000000
     11          3.948655   0.000000
     12          4.755580   0.000000
     13          5.190142   0.000000
     14          5.943324   0.000000
     15          6.244634   0.000000
     16          7.300149   0.000000
 
  0.4217687E+00 -0.2108844E+00  0.0000000E+00  0.6666667E-02
      1        -12.228225   1.000000
      2         -9.327995   1.000000
      3         -4.983143   1.000000
      4         -4.812950   1.000000
      5         -3.029202   1.000000
      6          0.102116   0.000000
      7          0.127520   0.000000
      8          1.523167   0.000000
      9          3.374971   0.000000
     10          3.523236   0.000000
     11          4.022172   0.000000
     12          4.703115   0.000000
     13          5.221364   0.000000
     14          6.038890   0.000000
     15          6.202392   0.000000
     16          7.293464   0.000000
 
  0.4353741E+00 -0.2176871E+00  0.0000000E+00  0.6666667E-02
      1        -12.148097   1.000000
      2         -9.405296   1.000000
      3         -4.962815   1.000000
      4         -4.908373   1.000000
      5         -3.078162   1.000000
      6          0.057450   0.000000
      7          0.154055   0.000000
      8          1.538751   0.000000
      9          3.449220   0.000000
     10          3.616893   0.000000
     11          4.099507   0.000000
     12          4.657709   0.000000
     13          5.238430   0.000000
     14          6.138013   0.000000
     15          6.179625   0.000000
     16          7.264597   0.000000
 
  0.4489796E+00 -0.2244898E+00  0.0000000E+00  0.6666667E-02
      1        -12.066672   1.000000
      2         -9.484719   1.000000
      3         -5.000425   1.000000
      4         -4.935817   1.000000
      5         -3.130142   1.000000
      6         -0.014500   0.000000
      7          0.210632   0.000000
      8          1.553144   0.000000
      9          3.527559   0.000000
     10          3.712991   0.000000
     11          4.179412   0.000000
     12          4.620602   0.000000
     13          5.240136   0.000000
     14          6.178695   0.000000
     15          6.240561   0.000000
     16          7.216462   0.000000
 
  0.4625850E+00 -0.2312925E+00  0.0000000E+00  0.6666667E-02
      1        -11.984011   1.000000
      2         -9.565832   1.000000
      3         -5.088828   1.000000
      4         -4.902653   1.000000
      5         -3.184714   1.000000
      6         -0.087246   0.000000
      7          0.271547   0.000000
      8          1.565389   0.000000
      9          3.610119   0.000000
     10          3.811039   0.000000
     11          4.260236   0.000000
     12          4.593074   0.000000
     13          5.228278   0.000000
     14          6.199177   0.000000
     15          6.346461   0.000000
     16          7.158474   0.000000
 
  0.4761905E+00 -0.2380952E+00  0.0000000E+00  0.6666667E-02
      1        -11.900424   1.000000
      2         -9.648264   1.000000
      3         -5.173369   1.000000
      4         -4.863992   1.000000
      5         -3.241556   1.000000
      6         -0.159869   0.000000
      7          0.336308   0.000000
      8          1.574590   0.000000
      9          3.696936   0.000000
     10          3.910313   0.000000
     11          4.339593   0.000000
     12          4.576420   0.000000
     13          5.207701   0.000000
     14          6.237974   0.000000
     15          6.455618   0.000000
     16          7.042612   0.000000
 
  0.4897959E+00 -0.2448980E+00  0.0000000E+00  0.6666667E-02
      1        -11.815966   1.000000
      2         -9.731578   1.000000
      3         -5.253739   1.000000
      4         -4.820327   1.000000
      5         -3.300215   1.000000
      6         -0.231512   0.000000
      7          0.404526   0.000000
      8          1.580100   0.000000
      9          3.788057   0.000000
     10          4.009763   0.000000
     11          4.413936   0.000000
     12          4.572245   0.000000
     13          5.185615   0.000000
     14          6.290453   0.000000
     15          6.568005   0.000000
     16          6.926016   0.000000
 
  0.5034014E+00 -0.2517007E+00  0.0000000E+00  0.6666667E-02
      1        -11.730971   1.000000
      2         -9.815415   1.000000
      3         -5.329716   1.000000
      4         -4.772296   1.000000
      5         -3.360335   1.000000
      6         -0.301448   0.000000
      7          0.475674   0.000000
      8          1.581340   0.000000
      9          3.883359   0.000000
     10          4.107780   0.000000
     11          4.478008   0.000000
     12          4.582381   0.000000
     13          5.170828   0.000000
     14          6.351186   0.000000
     15          6.683532   0.000000
     16          6.812443   0.000000
 
  0.5170068E+00 -0.2585034E+00  0.0000000E+00  0.6666667E-02
      1        -11.645596   1.000000
      2         -9.899443   1.000000
      3         -5.401010   1.000000
      4         -4.720459   1.000000
      5         -3.421529   1.000000
      6         -0.368958   0.000000
      7          0.549232   0.000000
      8          1.578001   0.000000
      9          3.982768   0.000000
     10          4.202114   0.000000
     11          4.525199   0.000000
     12          4.609249   0.000000
     13          5.172919   0.000000
     14          6.413289   0.000000
     15          6.703859   0.000000
     16          6.801939   0.000000
 
  0.5306122E+00 -0.2653061E+00  0.0000000E+00  0.6666667E-02
      1        -11.560085   1.000000
      2         -9.983322   1.000000
      3         -5.467351   1.000000
      4         -4.665405   1.000000
      5         -3.483427   1.000000
      6         -0.433429   0.000000
      7          0.624617   0.000000
      8          1.569916   0.000000
      9          4.086110   0.000000
     10          4.290167   0.000000
     11          4.549995   0.000000
     12          4.655373   0.000000
     13          5.199654   0.000000
     14          6.461195   0.000000
     15          6.610120   0.000000
     16          6.719447   0.000000
 
  0.5442177E+00 -0.2721088E+00  0.0000000E+00  0.6666667E-02
      1        -11.474783   1.000000
      2        -10.066777   1.000000
      3         -5.528520   1.000000
      4         -4.607804   1.000000
      5         -3.545747   1.000000
      6         -0.494267   0.000000
      7          0.701121   0.000000
      8          1.557100   0.000000
      9          4.193052   0.000000
     10          4.370304   0.000000
     11          4.551971   0.000000
     12          4.722071   0.000000
     13          5.253131   0.000000
     14          6.436973   0.000000
     15          6.581710   0.000000
     16          6.625349   0.000000
 
  0.5578231E+00 -0.2789116E+00  0.0000000E+00  0.6666667E-02
      1        -11.389882   1.000000
      2        -10.149541   1.000000
      3         -5.584223   1.000000
      4         -4.548195   1.000000
      5         -3.608125   1.000000
      6         -0.550872   0.000000
      7          0.778077   0.000000
      8          1.539741   0.000000
      9          4.302993   0.000000
     10          4.443429   0.000000
     11          4.536518   0.000000
     12          4.808032   0.000000
     13          5.329408   0.000000
     14          6.346716   0.000000
     15          6.531601   0.000000
     16          6.602509   0.000000
 
  0.5714286E+00 -0.2857143E+00  0.0000000E+00  0.6666667E-02
      1        -11.305693   1.000000
      2        -10.231362   1.000000
      3         -5.634197   1.000000
      4         -4.487221   1.000000
      5         -3.670253   1.000000
      6         -0.602703   0.000000
      7          0.854641   0.000000
      8          1.518159   0.000000
      9          4.412862   0.000000
     10          4.512550   0.000000
     11          4.513185   0.000000
     12          4.909480   0.000000
     13          5.422103   0.000000
     14          6.245227   0.000000
     15          6.438872   0.000000
     16          6.605905   0.000000
 
  0.5850340E+00 -0.2925170E+00  0.0000000E+00  0.6666667E-02
      1        -11.222478   1.000000
      2        -10.312023   1.000000
      3         -5.678160   1.000000
      4         -4.425489   1.000000
      5         -3.731831   1.000000
      6         -0.649200   0.000000
      7          0.929948   0.000000
      8          1.492778   0.000000
      9          4.464188   0.000000
     10          4.545824   0.000000
     11          4.580949   0.000000
     12          5.022309   0.000000
     13          5.525167   0.000000
     14          6.141451   0.000000
     15          6.347665   0.000000
     16          6.574016   0.000000
 
  0.5986395E+00 -0.2993197E+00  0.0000000E+00  0.6666667E-02
      1        -11.140604   1.000000
      2        -10.391349   1.000000
      3         -5.715919   1.000000
      4         -4.363643   1.000000
      5         -3.792621   1.000000
      6         -0.689847   0.000000
      7          1.002956   0.000000
      8          1.464072   0.000000
      9          4.436665   0.000000
     10          4.650810   0.000000
     11          4.658005   0.000000
     12          5.143204   0.000000
     13          5.632863   0.000000
     14          6.035899   0.000000
     15          6.258389   0.000000
     16          6.505832   0.000000
 
  0.6122449E+00 -0.3061224E+00  0.0000000E+00  0.6666667E-02
      1        -11.060336   1.000000
      2        -10.469112   1.000000
      3         -5.747177   1.000000
      4         -4.302289   1.000000
      5         -3.852266   1.000000
      6         -0.724096   0.000000
      7          1.072558   0.000000