PROCAR new format
# of k-points:  150         # of bands:   16         # of ions:    2

 k-point     1 :    0.00000000 0.00000000 0.00000000     weight = 0.00666667

band     1 # energy  -13.56438743 # occ.  2.00000000
 
ion      s      p      d      f    tot
    1  0.335  0.015  0.000  0.001  0.351
    2  0.335  0.015  0.000  0.001  0.351
tot    0.670  0.030  0.000  0.001  0.702
 
band     2 # energy   -8.59109550 # occ.  2.00000000
 
ion      s      p      d      f    tot
    1  0.356  0.031  0.001  0.000  0.388
    2  0.356  0.031  0.001  0.000  0.388
tot    0.711  0.062  0.002  0.001  0.776
 
band     3 # energy   -2.89065020 # occ.  2.00000000
 
ion      s      p      d      f    tot
    1  0.008  0.269  0.003  0.002  0.282
    2  0.008  0.269  0.003  0.002  0.282
tot    0.016  0.537  0.006  0.004  0.564
 
band     4 # energy   -2.28531618 # occ.  2.00000000
 
ion      s      p      d      f    tot
    1  0.000  0.382  0.024  0.005  0.411
    2  0.000  0.382  0.024  0.005  0.411
tot    0.000  0.764  0.048  0.009  0.821
 
band     5 # energy   -2.28530343 # occ.  2.00000000
 
ion      s      p      d      f    tot
    1  0.000  0.382  0.024  0.005  0.411
    2  0.000  0.382  0.024  0.005  0.411
tot    0.000  0.764  0.048  0.009  0.821
 
band     6 # energy   -0.71557024 # occ.  0.00000000
 
ion      s      p      d      f    tot
    1  0.146  0.163  0.018  0.007  0.334
    2  0.146  0.163  0.018  0.007  0.334
tot    0.291  0.326  0.036  0.015  0.668
 
band     7 # energy    0.50869563 # occ.  0.00000000
 
ion      s      p      d      f    tot
    1  0.000  0.340  0.030  0.005  0.375
    2  0.000  0.340  0.030  0.005  0.375
tot    0.000  0.681  0.059  0.011  0.751
 
band     8 # energy    0.50870172 # occ.  0.00000000
 
ion      s      p      d      f    tot
    1  0.000  0.340  0.030  0.005  0.375
    2  0.000  0.340  0.030  0.005  0.375
tot    0.000  0.681  0.059  0.011  0.751
 
band     9 # energy    2.09020215 # occ.  0.00000000
 
ion      s      p      d      f    tot
    1  0.000  0.015  0.027  0.001  0.043
    2  0.000  0.015  0.027  0.001  0.043
tot    0.000  0.030  0.054  0.002  0.086
 
band    10 # energy    2.16804036 # occ.  0.00000000
 
ion      s      p      d      f    tot
    1  0.007  0.024  0.000  0.000  0.032
    2  0.007  0.024  0.000  0.000  0.032
tot    0.014  0.049  0.000  0.000  0.064
 
band    11 # energy    3.62612165 # occ.  0.00000000
 
ion      s      p      d      f    tot
    1  0.025  0.036  0.000  0.000  0.061
    2  0.025  0.036  0.000  0.000  0.061
tot    0.050  0.072  0.000  0.000  0.122
 
band    12 # energy    4.52997846 # occ.  0.00000000
 
ion      s      p      d      f    tot
    1  0.003  0.000  0.042  0.001  0.045
    2  0.003  0.000  0.042  0.001  0.045
tot    0.005  0.000  0.083  0.001  0.089
 
band    13 # energy    4.84502186 # occ.  0.00000000
 
ion      s      p      d      f    tot
    1  0.066  0.001  0.024  0.024  0.115
    2  0.066  0.001  0.024  0.024  0.115
tot    0.132  0.002  0.048  0.048  0.230
 
band    14 # energy    5.88480021 # occ.  0.00000000
 
ion      s      p      d      f    tot
    1  0.000  0.040  0.180  0.006  0.226
    2  0.000  0.040  0.180  0.006  0.226
tot    0.000  0.079  0.360  0.012  0.452
 
band    15 # energy    5.88480297 # occ.  0.00000000
 
ion      s      p      d      f    tot
    1  0.000  0.040  0.180  0.006  0.226
    2  0.000  0.040  0.180  0.006  0.226
tot    0.000  0.079  0.360  0.012  0.452
 
band    16 # energy    6.49601532 # occ.  0.00000000
 
ion      s      p      d      f    tot
    1  0.018  0.039  0.005  0.024  0.086
    2  0.018  0.039  0.005  0.024  0.086
tot    0.036  0.079  0.010  0.048  0.172
 

 k-point     2 :    0.01360544-0.00680272 0.00000000     weight = 0.00666667

band     1 # energy  -13.56291068 # occ.  2.00000000
 
ion      s      p      d      f    tot
    1  0.335  0.015  0.000  0.001  0.351
    2  0.335  0.015  0.000  0.001  0.351
tot    0.670  0.030  0.000  0.001  0.702
 
band     2 # energy   -8.59098667 # occ.  2.00000000
 
ion      s      p      d      f    tot
    1  0.356  0.031  0.001  0.000  0.388
    2  0.356  0.031  0.001  0.000  0.388
tot    0.712  0.062  0.002  0.001  0.776
 
band     3 # energy   -2.88995843 # occ.  2.00000000
 
ion      s      p      d      f    tot
    1  0.008  0.269  0.003  0.002  0.282
    2  0.008  0.269  0.003  0.002  0.282
tot    0.016  0.538  0.006  0.004  0.564
 
band     4 # energy   -2.30668521 # occ.  2.00000000
 
ion      s      p      d      f    tot
    1  0.001  0.379  0.024  0.005  0.409
    2  0.001  0.379  0.024  0.005  0.409
tot    0.003  0.757  0.048  0.009  0.818
 
band     5 # energy   -2.28904056 # occ.  2.00000000
 
ion      s      p      d      f    tot
    1  0.000  0.382  0.024  0.005  0.410
    2  0.000  0.382  0.024  0.005  0.410
tot    0.000  0.763  0.048  0.009  0.821
 
band     6 # energy   -0.69650235 # occ.  0.00000000
 
ion      s      p      d      f    tot
    1  0.144  0.166  0.018  0.007  0.335
    2  0.144  0.166  0.018  0.007  0.335
tot    0.288  0.332  0.036  0.015  0.671
 
band     7 # energy    0.50394727 # occ.  0.00000000
 
ion      s      p      d      f    tot
    1  0.000  0.340  0.029  0.005  0.375
    2  0.000  0.340  0.029  0.005  0.375
tot    0.001  0.679  0.059  0.011  0.750
 
band     8 # energy    0.51240201 # occ.  0.00000000
 
ion      s      p      d      f    tot
    1  0.000  0.341  0.030  0.006  0.376
    2  0.000  0.341  0.030  0.006  0.376
tot    0.000  0.681  0.059  0.011  0.751
 
band     9 # energy    2.09224444 # occ.  0.00000000
 
ion      s      p      d      f    tot
    1  0.000  0.015  0.027  0.001  0.043
    2  0.000  0.015  0.027  0.001  0.043
tot    0.000  0.030  0.054  0.002  0.087
 
band    10 # energy    2.16984333 # occ.  0.00000000
 
ion      s      p      d      f    tot
    1  0.007  0.025  0.000  0.000  0.032
    2  0.007  0.025  0.000  0.000  0.032
tot    0.014  0.049  0.000  0.000  0.064
 
band    11 # energy    3.62809400 # occ.  0.00000000
 
ion      s      p      d      f    tot
    1  0.025  0.036  0.000  0.000  0.061
    2  0.025  0.036  0.000  0.000  0.061
tot    0.049  0.073  0.000  0.000  0.122
 
band    12 # energy    4.53164073 # occ.  0.00000000
 
ion      s      p      d      f    tot
    1  0.003  0.000  0.042  0.001  0.045
    2  0.003  0.000  0.042  0.001  0.045
tot    0.005  0.000  0.083  0.001  0.090
 
band    13 # energy    4.85141560 # occ.  0.00000000
 
ion      s      p      d      f    tot
    1  0.066  0.002  0.024  0.024  0.116
    2  0.066  0.002  0.024  0.024  0.116
tot    0.131  0.004  0.048  0.049  0.233
 
band    14 # energy    5.85618536 # occ.  0.00000000
 
ion      s      p      d      f    tot
    1  0.002  0.038  0.173  0.006  0.219
    2  0.002  0.038  0.173  0.006  0.219
tot    0.003  0.076  0.345  0.013  0.437
 
band    15 # energy    5.88242664 # occ.  0.00000000
 
ion      s      p      d      f    tot
    1  0.000  0.039  0.180  0.006  0.226
    2  0.000  0.039  0.180  0.006  0.226
tot    0.000  0.079  0.360  0.012  0.451
 
band    16 # energy    6.52426646 # occ.  0.00000000
 
ion      s      p      d      f    tot
    1  0.017  0.040  0.012  0.023  0.092
    2  0.017  0.040  0.012  0.023  0.092
tot    0.034  0.081  0.023  0.046  0.185
 

 k-point     3 :    0.02721088-0.01360544 0.00000000     weight = 0.00666667

band     1 # energy  -13.55846123 # occ.  2.00000000
 
ion      s      p      d      f    tot
    1  0.335  0.015  0.000  0.001  0.351
    2  0.335  0.015  0.000  0.001  0.351
tot    0.670  0.030  0.000  0.001  0.702
 
band     2 # energy   -8.59066602 # occ.  2.00000000
 
ion      s      p      d      f    tot
    1  0.356  0.031  0.001  0.000  0.389
    2  0.356  0.031  0.001  0.000  0.389
tot    0.712  0.062  0.002  0.001  0.777
 
band     3 # energy   -2.88788788 # occ.  2.00000000
 
ion      s      p      d      f    tot
    1  0.008  0.269  0.003  0.002  0.282
    2  0.008  0.269  0.003  0.002  0.282
tot    0.016  0.538  0.006  0.004  0.564
 
band     4 # energy   -2.36749903 # occ.  2.00000000
 
ion      s      p      d      f    tot
    1  0.005  0.371  0.024  0.005  0.405
    2  0.005  0.371  0.024  0.005  0.405
tot    0.010  0.742  0.048  0.009  0.809
 
band     5 # energy   -2.30022225 # occ.  2.00000000
 
ion      s      p      d      f    tot
    1  0.000  0.381  0.024  0.005  0.410
    2  0.000  0.381  0.024  0.005  0.410
tot    0.000  0.762  0.048  0.009  0.820
 
band     6 # energy   -0.64279946 # occ.  0.00000000
 
ion      s      p      d      f    tot
    1  0.140  0.174  0.018  0.008  0.339
    2  0.140  0.174  0.018  0.008  0.339
tot    0.280  0.348  0.035  0.015  0.677
 
band     7 # energy    0.48997189 # occ.  0.00000000
 
ion      s      p      d      f    tot
    1  0.001  0.337  0.029  0.006  0.374
    2  0.001  0.337  0.029  0.006  0.374
tot    0.003  0.675  0.058  0.011  0.747
 
band     8 # energy    0.52366597 # occ.  0.00000000
 
ion      s      p      d      f    tot
    1  0.000  0.341  0.029  0.006  0.376
    2  0.000  0.341  0.029  0.006  0.376
tot    0.000  0.683  0.059  0.011  0.753
 
band     9 # energy    2.09837587 # occ.  0.00000000
 
ion      s      p      d      f    tot
    1  0.000  0.016  0.027  0.001  0.044
    2  0.000  0.016  0.027  0.001  0.044
tot    0.000  0.031  0.054  0.002  0.088
 
band    10 # energy    2.17521583 # occ.  0.00000000
 
ion      s      p      d      f    tot
    1  0.007  0.025  0.000  0.000  0.032
    2  0.007  0.025  0.000  0.000  0.032
tot    0.014  0.049  0.000  0.000  0.064
 
band    11 # energy    3.63384619 # occ.  0.00000000
 
ion      s      p      d      f    tot
    1  0.024  0.037  0.000  0.000  0.061
    2  0.024  0.037  0.000  0.000  0.061
tot    0.048  0.074  0.001  0.000  0.122
 
band    12 # energy    4.53662962 # occ.  0.00000000
 
ion      s      p      d      f    tot
    1  0.003  0.000  0.042  0.001  0.045
    2  0.003  0.000  0.042  0.001  0.045
tot    0.005  0.000  0.083  0.001  0.090
 
band    13 # energy    4.86983465 # occ.  0.00000000
 
ion      s      p      d      f    tot
    1  0.064  0.006  0.025  0.024  0.120
    2  0.064  0.006  0.025  0.024  0.120
tot    0.128  0.012  0.051  0.049  0.240
 
band    14 # energy    5.78459797 # occ.  0.00000000
 
ion      s      p      d      f    tot
    1  0.005  0.033  0.158  0.007  0.204
    2  0.005  0.033  0.158  0.007  0.204
tot    0.011  0.066  0.316  0.015  0.407
 
band    15 # energy    5.87513235 # occ.  0.00000000
 
ion      s      p      d      f    tot
    1  0.000  0.038  0.180  0.006  0.225
    2  0.000  0.038  0.180  0.006  0.225
tot    0.000  0.076  0.361  0.012  0.449
 
band    16 # energy    6.59531568 # occ.  0.00000000
 
ion      s      p      d      f    tot
    1  0.014  0.042  0.025  0.022  0.103
    2  0.014  0.042  0.025  0.022  0.103
tot    0.029  0.085  0.050  0.044  0.207
 

 k-point     4 :    0.04081633-0.02040816 0.00000000     weight = 0.00666667

band     1 # energy  -13.55105514 # occ.  2.00000000
 
ion      s      p      d      f    tot
    1  0.335  0.015  0.000  0.001  0.351
    2  0.335  0.015  0.000  0.001  0.351
tot    0.670  0.030  0.000  0.001  0.703
 
band     2 # energy   -8.59017920 # occ.  2.00000000
 
ion      s      p      d      f    tot
    1  0.357  0.031  0.001  0.000  0.389
    2  0.357  0.031  0.001  0.000  0.389
tot    0.714  0.061  0.002  0.001  0.778
 
band     3 # energy   -2.88447836 # occ.  2.00000000
 
ion      s      p      d      f    tot
    1  0.008  0.269  0.003  0.002  0.283
    2  0.008  0.269  0.003  0.002  0.283
tot    0.016  0.539  0.006  0.004  0.565
 
band     4 # energy   -2.45992697 # occ.  2.00000000
 
ion      s      p      d      f    tot
    1  0.009  0.360  0.024  0.004  0.398
    2  0.009  0.360  0.024  0.004  0.398
tot    0.019  0.721  0.048  0.009  0.797
 
band     5 # energy   -2.31886613 # occ.  2.00000000
 
ion      s      p      d      f    tot
    1  0.000  0.380  0.024  0.005  0.409
    2  0.000  0.380  0.024  0.005  0.409
tot    0.000  0.760  0.048  0.009  0.818
 
band     6 # energy   -0.56302844 # occ.  0.00000000
 
ion      s      p      d      f    tot
    1  0.134  0.184  0.017  0.008  0.343
    2  0.134  0.184  0.017  0.008  0.343
tot    0.268  0.368  0.034  0.015  0.686
 
band     7 # energy    0.46746483 # occ.  0.00000000
 
ion      s      p      d      f    tot
    1  0.003  0.334  0.029  0.006  0.371
    2  0.003  0.334  0.029  0.006  0.371
tot    0.006  0.668  0.058  0.011  0.743
 
band     8 # energy    0.54291138 # occ.  0.00000000
 
ion      s      p      d      f    tot
    1  0.000  0.343  0.029  0.006  0.377
    2  0.000  0.343  0.029  0.006  0.377
tot    0.000  0.685  0.058  0.011  0.755
 
band     9 # energy    2.10859556 # occ.  0.00000000
 
ion      s      p      d      f    tot
    1  0.000  0.016  0.027  0.001  0.044
    2  0.000  0.016  0.027  0.001  0.044
tot    0.000  0.032  0.054  0.002  0.089
 
band    10 # energy    2.18405930 # occ.  0.00000000
 
ion      s      p      d      f    tot
    1  0.007  0.025  0.000  0.000  0.032
    2  0.007  0.025  0.000  0.000  0.032
tot    0.013  0.050  0.001  0.001  0.064
 
band    11 # energy    3.64291066 # occ.  0.00000000
 
ion      s      p      d      f    tot
    1  0.023  0.037  0.001  0.000  0.061
    2  0.023  0.037  0.001  0.000  0.061
tot    0.045  0.075  0.002  0.000  0.122
 
band    12 # energy    4.54492911 # occ.  0.00000000
 
ion      s      p      d      f    tot
    1  0.003  0.000  0.042  0.001  0.045
    2  0.003  0.000  0.042  0.001  0.045
tot    0.005  0.000  0.083  0.001  0.090
 
band    13 # energy    4.89762678 # occ.  0.00000000
 
ion      s      p      d      f    tot
    1  0.061  0.012  0.028  0.025  0.126
    2  0.061  0.012  0.028  0.025  0.126
tot    0.123  0.025  0.056  0.050  0.252
 
band    14 # energy    5.69471334 # occ.  0.00000000
 
ion      s      p      d      f    tot
    1  0.010  0.027  0.144  0.008  0.188
    2  0.010  0.027  0.144  0.008  0.188
tot    0.020  0.053  0.288  0.015  0.377
 
band    15 # energy    5.86235283 # occ.  0.00000000
 
ion      s      p      d      f    tot
    1  0.000  0.036  0.180  0.006  0.223
    2  0.000  0.036  0.180  0.006  0.223
tot    0.000  0.073  0.361  0.012  0.446
 
band    16 # energy    6.68841823 # occ.  0.00000000
 
ion      s      p      d      f    tot
    1  0.005  0.009  0.056  0.019  0.089
    2  0.014  0.121  0.034  0.016  0.185
tot    0.019  0.130  0.090  0.035  0.274
 

 k-point     5 :    0.05442177-0.02721088 0.00000000     weight = 0.00666667

band     1 # energy  -13.54066615 # occ.  2.00000000
 
ion      s      p      d      f    tot
    1  0.335  0.015  0.000  0.001  0.351
    2  0.335  0.015  0.000  0.001  0.351
tot    0.670  0.031  0.000  0.001  0.703
 
band     2 # energy   -8.58957623 # occ.  2.00000000
 
ion      s      p      d      f    tot
    1  0.358  0.030  0.001  0.000  0.390
    2  0.358  0.030  0.001  0.000  0.390
tot    0.716  0.061  0.003  0.001  0.780
 
band     3 # energy   -2.87978205 # occ.  2.00000000
 
ion      s      p      d      f    tot
    1  0.008  0.270  0.003  0.002  0.283
    2  0.008  0.270  0.003  0.002  0.283
tot    0.017  0.540  0.006  0.004  0.567
 
band     4 # energy   -2.57508334 # occ.  2.00000000
 
ion      s      p      d      f    tot
    1  0.014  0.350  0.024  0.004  0.392
    2  0.014  0.350  0.024  0.004  0.392
tot    0.027  0.700  0.048  0.009  0.784
 
band     5 # energy   -2.34497679 # occ.  2.00000000
 
ion      s      p      d      f    tot
    1  0.000  0.379  0.024  0.005  0.407
    2  0.000  0.379  0.024  0.005  0.407
tot    0.000  0.757  0.048  0.009  0.815
 
band     6 # energy   -0.46707420 # occ.  0.00000000
 
ion      s      p      d      f    tot
    1  0.128  0.194  0.017  0.008  0.347
    2  0.128  0.194  0.017  0.008  0.347
tot    0.257  0.388  0.034  0.015  0.694
 
band     7 # energy    0.43758974 # occ.  0.00000000
 
ion      s      p      d      f    tot
    1  0.005  0.330  0.028  0.006  0.369
    2  0.005  0.330  0.028  0.006  0.369
tot    0.010  0.660  0.056  0.011  0.738
 
band     8 # energy    0.57086035 # occ.  0.00000000
 
ion      s      p      d      f    tot
    1  0.001  0.344  0.028  0.006  0.379
    2  0.001  0.344  0.028  0.006  0.379
tot    0.001  0.689  0.057  0.011  0.758
 
band     9 # energy    2.12291197 # occ.  0.00000000
 
ion      s      p      d      f    tot
    1  0.000  0.017  0.027  0.001  0.046
    2  0.000  0.017  0.027  0.001  0.046
tot    0.000  0.034  0.054  0.003  0.091
 
band    10 # energy    2.19623231 # occ.  0.00000000
 
ion      s      p      d      f    tot
    1  0.006  0.025  0.000  0.000  0.032
    2  0.006  0.025  0.000  0.000  0.032
tot    0.012  0.051  0.001  0.001  0.065
 
band    11 # energy    3.65458774 # occ.  0.00000000
 
ion      s      p      d      f    tot
    1  0.021  0.038  0.002  0.000  0.061
    2  0.021  0.038  0.002  0.000  0.061
tot    0.042  0.076  0.003  0.000  0.121
 
band    12 # energy    4.55653132 # occ.  0.00000000
 
ion      s      p      d      f    tot
    1  0.003  0.000  0.042  0.001  0.045
    2  0.003  0.000  0.042  0.001  0.045
tot    0.005  0.000  0.084  0.001  0.090
 
band    13 # energy    4.92917103 # occ.  0.00000000
 
ion      s      p      d      f    tot
    1  0.056  0.022  0.033  0.025  0.136
    2  0.056  0.022  0.033  0.025  0.136
tot    0.112  0.044  0.066  0.050  0.271
 
band    14 # energy    5.60620657 # occ.  0.00000000
 
ion      s      p      d      f    tot
    1  0.017  0.019  0.130  0.008  0.173
    2  0.017  0.019  0.130  0.008  0.173
tot    0.034  0.037  0.260  0.015  0.347
 
band    15 # energy    5.84329443 # occ.  0.00000000
 
ion      s      p      d      f    tot
    1  0.000  0.034  0.180  0.006  0.220
    2  0.000  0.034  0.180  0.006  0.220
tot    0.000  0.068  0.360  0.013  0.441
 
band    16 # energy    6.61603571 # occ.  0.00000000
 
ion      s      p      d      f    tot
    1  0.003  0.129  0.082  0.006  0.220
    2  0.003  0.129  0.082  0.006  0.220
tot    0.005  0.259  0.163  0.012  0.439
 

 k-point     6 :    0.06802721-0.03401361 0.00000000     weight = 0.00666667

band     1 # energy  -13.52738484 # occ.  2.00000000
 
ion      s      p      d      f    tot
    1  0.335  0.016  0.000  0.001  0.352
    2  0.335  0.016  0.000  0.001  0.352
tot    0.670  0.031  0.001  0.001  0.703
 
band     2 # energy   -8.58897994 # occ.  2.00000000
 
ion      s      p      d      f    tot
    1  0.359  0.030  0.001  0.000  0.391
    2  0.359  0.030  0.001  0.000  0.391
tot    0.718  0.060  0.003  0.001  0.781
 
band     3 # energy   -2.87390426 # occ.  2.00000000
 
ion      s      p      d      f    tot
    1  0.009  0.271  0.003  0.002  0.284
    2  0.009  0.271  0.003  0.002  0.284
tot    0.017  0.541  0.006  0.004  0.569
 
band     4 # energy   -2.70557379 # occ.  2.00000000
 
ion      s      p      d      f    tot
    1  0.017  0.340  0.024  0.004  0.385
    2  0.017  0.340  0.024  0.004  0.385
tot    0.034  0.680  0.048  0.008  0.770
 
band     5 # energy   -2.37855023 # occ.  2.00000000
 
ion      s      p      d      f    tot
    1  0.000  0.377  0.024  0.004  0.405
    2  0.000  0.377  0.024  0.004  0.405
tot    0.000  0.754  0.048  0.009  0.811
 
band     6 # energy   -0.36387721 # occ.  0.00000000
 
ion      s      p      d      f    tot
    1  0.122  0.203  0.017  0.008  0.350
    2  0.122  0.203  0.017  0.008  0.350
tot    0.244  0.407  0.033  0.015  0.700
 
band     7 # energy    0.40162937 # occ.  0.00000000
 
ion      s      p      d      f    tot
    1  0.008  0.325  0.027  0.006  0.366
    2  0.008  0.325  0.027  0.006  0.366
tot    0.015  0.650  0.055  0.011  0.731
 
band     8 # energy    0.60834094 # occ.  0.00000000
 
ion      s      p      d      f    tot
    1  0.002  0.346  0.027  0.006  0.381
    2  0.002  0.346  0.027  0.006  0.381
tot    0.004  0.692  0.055  0.012  0.762
 
band     9 # energy    2.14130598 # occ.  0.00000000
 
ion      s      p      d      f    tot
    1  0.000  0.018  0.027  0.001  0.047
    2  0.000  0.018  0.027  0.001  0.047
tot    0.000  0.037  0.054  0.003  0.094
 
band    10 # energy    2.21157260 # occ.  0.00000000
 
ion      s      p      d      f    tot
    1  0.006  0.026  0.001  0.000  0.033
    2  0.006  0.026  0.001  0.000  0.033
tot    0.012  0.052  0.001  0.001  0.065
 
band    11 # energy    3.66801758 # occ.  0.00000000
 
ion      s      p      d      f    tot
    1  0.019  0.039  0.003  0.000  0.061
    2  0.019  0.039  0.003  0.000  0.061
tot    0.038  0.077  0.005  0.000  0.121
 
band    12 # energy    4.57139904 # occ.  0.00000000
 
ion      s      p      d      f    tot
    1  0.003  0.000  0.042  0.001  0.045
    2  0.003  0.000  0.042  0.001  0.045
tot    0.005  0.000  0.084  0.001  0.091
 
band    13 # energy    4.95371537 # occ.  0.00000000
 
ion      s      p      d      f    tot
    1  0.046  0.034  0.044  0.025  0.148
    2  0.046  0.034  0.044  0.025  0.148
tot    0.092  0.067  0.087  0.050  0.296
 
band    14 # energy    5.53674032 # occ.  0.00000000
 
ion      s      p      d      f    tot
    1  0.028  0.010  0.113  0.008  0.158
    2  0.028  0.010  0.113  0.008  0.158
tot    0.055  0.020  0.225  0.015  0.315
 
band    15 # energy    5.81706372 # occ.  0.00000000
 
ion      s      p      d      f    tot
    1  0.000  0.031  0.179  0.007  0.217
    2  0.000  0.031  0.179  0.007  0.217
tot    0.001  0.062  0.358  0.013  0.434
 
band    16 # energy    6.53589428 # occ.  0.00000000
 
ion      s      p      d      f    tot
    1  0.003  0.124  0.087  0.006  0.220
    2  0.003  0.124  0.087  0.006  0.220
tot    0.006  0.248  0.174  0.011  0.440
 

 k-point     7 :    0.08163265-0.04081633 0.00000000     weight = 0.00666667

band     1 # energy  -13.51118237 # occ.  2.00000000
 
ion      s      p      d      f    tot
    1  0.335  0.016  0.000  0.001  0.352
    2  0.335  0.016  0.000  0.001  0.352
tot    0.670  0.031  0.001  0.001  0.704
 
band     2 # energy   -8.58849067 # occ.  2.00000000
 
ion      s      p      d      f    tot
    1  0.361  0.030  0.001  0.000  0.392
    2  0.361  0.030  0.001  0.000  0.392
tot    0.721  0.059  0.003  0.001  0.784
 
band     3 # energy   -2.86695159 # occ.  2.00000000
 
ion      s      p      d      f    tot
    1  0.009  0.271  0.003  0.002  0.285
    2  0.009  0.271  0.003  0.002  0.285
tot    0.018  0.543  0.006  0.004  0.571
 
band     4 # energy   -2.84578161 # occ.  2.00000000
 
ion      s      p      d      f    tot
    1  0.019  0.332  0.024  0.004  0.379
    2  0.019  0.332  0.024  0.004  0.379
tot    0.039  0.663  0.047  0.008  0.757
 
band     5 # energy   -2.41953864 # occ.  2.00000000
 
ion      s      p      d      f    tot
    1  0.000  0.375  0.024  0.004  0.403
    2  0.000  0.375  0.024  0.004  0.403
tot    0.000  0.749  0.048  0.009  0.806
 
band     6 # energy   -0.26055667 # occ.  0.00000000
 
ion      s      p      d      f    tot
    1  0.116  0.212  0.017  0.008  0.352
    2  0.116  0.212  0.017  0.008  0.352
tot    0.232  0.424  0.033  0.015  0.704
 
band     7 # energy    0.36107957 # occ.  0.00000000
 
ion      s      p      d      f    tot
    1  0.010  0.320  0.027  0.006  0.362
    2  0.010  0.320  0.027  0.006  0.362
tot    0.020  0.640  0.053  0.011  0.725
 
band     8 # energy    0.65616485 # occ.  0.00000000
 
ion      s      p      d      f    tot
    1  0.004  0.348  0.026  0.006  0.383
    2  0.004  0.348  0.026  0.006  0.383
tot    0.007  0.695  0.052  0.012  0.766
 
band     9 # energy    2.16374260 # occ.  0.00000000
 
ion      s      p      d      f    tot
    1  0.000  0.020  0.027  0.002  0.049
    2  0.000  0.020  0.027  0.002  0.049
tot    0.000  0.040  0.054  0.003  0.098
 
band    10 # energy    2.22992127 # occ.  0.00000000
 
ion      s      p      d      f    tot
    1  0.005  0.026  0.001  0.000  0.033
    2  0.005  0.026  0.001  0.000  0.033
tot    0.011  0.053  0.002  0.001  0.066
 
band    11 # energy    3.68226385 # occ.  0.00000000
 
ion      s      p      d      f    tot
    1  0.017  0.039  0.004  0.000  0.061
    2  0.017  0.039  0.004  0.000  0.061
tot    0.035  0.078  0.008  0.001  0.121
 
band    12 # energy    4.58948677 # occ.  0.00000000
 
ion      s      p      d      f    tot
    1  0.003  0.000  0.042  0.001  0.046
    2  0.003  0.000  0.042  0.001  0.046
tot    0.005  0.000  0.084  0.002  0.091
 
band    13 # energy    4.95567342 # occ.  0.00000000
 
ion      s      p      d      f    tot
    1  0.032  0.044  0.061  0.024  0.161
    2  0.032  0.044  0.061  0.024  0.161
tot    0.065  0.088  0.121  0.048  0.322
 
band    14 # energy    5.50522826 # occ.  0.00000000
 
ion      s      p      d      f    tot
    1  0.041  0.003  0.090  0.008  0.143
    2  0.041  0.003  0.090  0.008  0.143
tot    0.083  0.006  0.180  0.017  0.286
 
band    15 # energy    5.78314657 # occ.  0.00000000
 
ion      s      p      d      f    tot
    1  0.001  0.028  0.177  0.007  0.213
    2  0.001  0.028  0.177  0.007  0.213
tot    0.002  0.056  0.354  0.014  0.426
 
band    16 # energy    6.46131254 # occ.  0.00000000
 
ion      s      p      d      f    tot
    1  0.003  0.120  0.093  0.005  0.221
    2  0.003  0.120  0.093  0.005  0.221
tot    0.007  0.239  0.186  0.011  0.442
 

 k-point     8 :    0.09523810-0.04761905 0.00000000     weight = 0.00666667

band     1 # energy  -13.49205962 # occ.  2.00000000
 
ion      s      p      d      f    tot
    1  0.335  0.016  0.000  0.001  0.352
    2  0.335  0.016  0.000  0.001  0.352
tot    0.670  0.032  0.001  0.001  0.704
 
band     2 # energy   -8.58825745 # occ.  2.00000000
 
ion      s      p      d      f    tot
    1  0.362  0.029  0.002  0.000  0.393
    2  0.362  0.029  0.002  0.000  0.393
tot    0.725  0.058  0.003  0.001  0.786
 
band     3 # energy   -2.99162129 # occ.  2.00000000
 
ion      s      p      d      f    tot
    1  0.021  0.324  0.024  0.004  0.372
    2  0.021  0.324  0.024  0.004  0.372
tot    0.042  0.649  0.047  0.007  0.745
 
band     4 # energy   -2.85908775 # occ.  2.00000000
 
ion      s      p      d      f    tot
    1  0.009  0.272  0.003  0.002  0.287
    2  0.009  0.272  0.003  0.002  0.287
tot    0.019  0.544  0.006  0.004  0.573
 
band     5 # energy   -2.46780698 # occ.  2.00000000
 
ion      s      p      d      f    tot
    1  0.000  0.372  0.024  0.004  0.400
    2  0.000  0.372  0.024  0.004  0.400
tot    0.000  0.744  0.048  0.009  0.801
 
band     6 # energy   -0.16240510 # occ.  0.00000000
 
ion      s      p      d      f    tot
    1  0.109  0.220  0.017  0.008  0.353
    2  0.109  0.220  0.017  0.008  0.353
tot    0.218  0.440  0.033  0.015  0.706
 
band     7 # energy    0.31745328 # occ.  0.00000000
 
ion      s      p      d      f    tot
    1  0.013  0.314  0.026  0.006  0.359
    2  0.013  0.314  0.026  0.006  0.359
tot    0.026  0.629  0.052  0.011  0.718
 
band     8 # energy    0.71472896 # occ.  0.00000000
 
ion      s      p      d      f    tot
    1  0.007  0.348  0.024  0.006  0.385
    2  0.007  0.348  0.024  0.006  0.385
tot    0.013  0.696  0.048  0.012  0.770
 
band     9 # energy    2.19014504 # occ.  0.00000000
 
ion      s      p      d      f    tot
    1  0.000  0.022  0.027  0.002  0.051
    2  0.000  0.022  0.027  0.002  0.051
tot    0.000  0.044  0.054  0.003  0.102
 
band    10 # energy    2.25113514 # occ.  0.00000000
 
ion      s      p      d      f    tot
    1  0.005  0.027  0.001  0.000  0.033
    2  0.005  0.027  0.001  0.000  0.033
tot    0.010  0.053  0.003  0.001  0.067
 
band    11 # energy    3.69633781 # occ.  0.00000000
 
ion      s      p      d      f    tot
    1  0.015  0.039  0.006  0.001  0.061
    2  0.015  0.039  0.006  0.001  0.061
tot    0.031  0.078  0.012  0.001  0.122
 
band    12 # energy    4.61072851 # occ.  0.00000000
 
ion      s      p      d      f    tot
    1  0.003  0.000  0.042  0.001  0.046
    2  0.003  0.000  0.042  0.001  0.046
tot    0.005  0.000  0.085  0.002  0.092
 
band    13 # energy    4.92491606 # occ.  0.00000000
 
ion      s      p      d      f    tot
    1  0.019  0.049  0.078  0.022  0.169
    2  0.019  0.049  0.078  0.022  0.169
tot    0.039  0.099  0.157  0.043  0.338
 
band    14 # energy    5.52338664 # occ.  0.00000000
 
ion      s      p      d      f    tot
    1  0.054  0.003  0.067  0.010  0.135
    2  0.054  0.003  0.067  0.010  0.135
tot    0.108  0.007  0.135  0.020  0.270
 
band    15 # energy    5.74198894 # occ.  0.00000000
 
ion      s      p      d      f    tot
    1  0.002  0.026  0.174  0.007  0.208
    2  0.002  0.026  0.174  0.007  0.208
tot    0.004  0.051  0.348  0.014  0.417
 
band    16 # energy    6.39590937 # occ.  0.00000000
 
ion      s      p      d      f    tot
    1  0.003  0.115  0.099  0.005  0.223
    2  0.003  0.115  0.099  0.005  0.223
tot    0.007  0.231  0.198  0.010  0.445
 

 k-point     9 :    0.10884354-0.05442177 0.00000000     weight = 0.00666667

band     1 # energy  -13.46998039 # occ.  2.00000000
 
ion      s      p      d      f    tot
    1  0.335  0.016  0.000  0.001  0.353
    2  0.335  0.016  0.000  0.001  0.353
tot    0.671  0.032  0.001  0.001  0.705
 
band     2 # energy   -8.58843315 # occ.  2.00000000
 
ion      s      p      d      f    tot
    1  0.364  0.028  0.002  0.000  0.395
    2  0.364  0.028  0.002  0.000  0.395
tot    0.729  0.057  0.003  0.001  0.789
 
band     3 # energy   -3.14014736 # occ.  2.00000000
 
ion      s      p      d      f    tot
    1  0.022  0.318  0.023  0.004  0.366
    2  0.022  0.318  0.023  0.004  0.366
tot    0.043  0.636  0.047  0.007  0.733
 
band     4 # energy   -2.85051712 # occ.  2.00000000
 
ion      s      p      d      f    tot
    1  0.010  0.273  0.003  0.002  0.288
    2  0.010  0.273  0.003  0.002  0.288
tot    0.020  0.547  0.006  0.004  0.577
 
band     5 # energy   -2.52310066 # occ.  2.00000000
 
ion      s      p      d      f    tot
    1  0.000  0.369  0.024  0.004  0.397
    2  0.000  0.369  0.024  0.004  0.397
tot    0.001  0.737  0.048  0.008  0.794
 
band     6 # energy   -0.07279396 # occ.  0.00000000
 