<?xml version="1.0" encoding="ISO-8859-1"?>
<modeling>
 <generator>
  <i name="program" type="string">vasp </i>
  <i name="version" type="string">6.4.2  </i>
  <i name="subversion" type="string">20Jul23 (build Nov 14 2023 12:59:38) complex                          parallel </i>
  <i name="platform" type="string">LinuxIFC </i>
  <i name="date" type="string">2023 12 17 </i>
  <i name="time" type="string">08:41:27 </i>
 </generator>
 <incar>
  <i type="string" name="PREC">Accurate</i>
  <i type="string" name="ALGO">Normal</i>
  <i type="logical" name="ADDGRID"> T  </i>
  <i type="int" name="ISPIN">     1</i>
  <i name="AMIX">      0.10000000</i>
  <i name="BMIX">      0.00010000</i>
  <i type="int" name="ICHARG">    11</i>
  <i type="int" name="NELM">   200</i>
  <i type="int" name="NELMDL">   -12</i>
  <i type="int" name="NELMIN">     6</i>
  <i type="int" name="IBRION">     2</i>
  <i name="EDIFF">      0.00000100</i>
  <i name="EDIFFG">     -0.01000000</i>
  <i type="int" name="NSW">     0</i>
  <i type="int" name="ISIF">    -1</i>
  <i name="ENCUT">    193.57762500</i>
  <i type="int" name="NBANDS">    16</i>
  <i name="POTIM">      0.50000000</i>
  <i type="int" name="NEDOS">  6001</i>
  <i type="logical" name="LPLANE"> T  </i>
  <i type="int" name="ISMEAR">     0</i>
  <i name="SIGMA">      0.01000000</i>
  <i type="int" name="NWRITE">     1</i>
  <i type="logical" name="LWAVE"> F  </i>
  <i type="logical" name="LCHARG"> F  </i>
  <i type="int" name="LORBIT">    10</i>
  <i type="logical" name="LASPH"> T  </i>
  <i type="int" name="IVDW">     0</i>
 </incar>
 <primitive_cell>
  <structure name="primitive_cell" >
   <crystal>
    <varray name="basis" >
     <v>       4.11336655       0.00000000       0.00000000 </v>
     <v>      -2.05668327       3.56227993       0.00000000 </v>
     <v>       0.00000000       0.00000000      16.00000000 </v>
    </varray>
    <i name="volume">    234.44740948 </i>
    <varray name="rec_basis" >
     <v>       0.24310987       0.14035955       0.00000000 </v>
     <v>       0.00000000       0.28071910       0.00000000 </v>
     <v>       0.00000000       0.00000000       0.06250000 </v>
    </varray>
   </crystal>
   <varray name="positions" >
    <v>       0.66666667       0.33333333       0.44862540 </v>
    <v>       0.33333333       0.66666667       0.55137460 </v>
   </varray>
  </structure>
  <varray name="primitive_index" >
   <v type="int" >        1 </v>
   <v type="int" >        2 </v>
  </varray>
 </primitive_cell>
 <kpoints>
  <generation param="listgenerated">
   <i name="divisions" type="int">      50 </i>
   <v>       0.00000000       0.00000000       0.00000000 </v>
   <v>       0.66666667      -0.33333333       0.00000000 </v>
   <v>       0.33333333       0.33333333       0.00000000 </v>
   <v>       0.00000000       0.00000000       0.00000000 </v>
  </generation>
  <varray name="kpointlist" >
   <v>       0.00000000       0.00000000       0.00000000 </v>
   <v>       0.01360544      -0.00680272       0.00000000 </v>
   <v>       0.02721088      -0.01360544       0.00000000 </v>
   <v>       0.04081633      -0.02040816       0.00000000 </v>
   <v>       0.05442177      -0.02721088       0.00000000 </v>
   <v>       0.06802721      -0.03401361       0.00000000 </v>
   <v>       0.08163265      -0.04081633       0.00000000 </v>
   <v>       0.09523810      -0.04761905       0.00000000 </v>
   <v>       0.10884354      -0.05442177       0.00000000 </v>
   <v>       0.12244898      -0.06122449       0.00000000 </v>
   <v>       0.13605442      -0.06802721       0.00000000 </v>
   <v>       0.14965986      -0.07482993       0.00000000 </v>
   <v>       0.16326531      -0.08163265       0.00000000 </v>
   <v>       0.17687075      -0.08843537       0.00000000 </v>
   <v>       0.19047619      -0.09523810       0.00000000 </v>
   <v>       0.20408163      -0.10204082       0.00000000 </v>
   <v>       0.21768707      -0.10884354       0.00000000 </v>
   <v>       0.23129252      -0.11564626       0.00000000 </v>
   <v>       0.24489796      -0.12244898       0.00000000 </v>
   <v>       0.25850340      -0.12925170       0.00000000 </v>
   <v>       0.27210884      -0.13605442       0.00000000 </v>
   <v>       0.28571429      -0.14285714       0.00000000 </v>
   <v>       0.29931973      -0.14965986       0.00000000 </v>
   <v>       0.31292517      -0.15646259       0.00000000 </v>
   <v>       0.32653061      -0.16326531       0.00000000 </v>
   <v>       0.34013605      -0.17006803       0.00000000 </v>
   <v>       0.35374150      -0.17687075       0.00000000 </v>
   <v>       0.36734694      -0.18367347       0.00000000 </v>
   <v>       0.38095238      -0.19047619       0.00000000 </v>
   <v>       0.39455782      -0.19727891       0.00000000 </v>
   <v>       0.40816327      -0.20408163       0.00000000 </v>
   <v>       0.42176871      -0.21088435       0.00000000 </v>
   <v>       0.43537415      -0.21768707       0.00000000 </v>
   <v>       0.44897959      -0.22448980       0.00000000 </v>
   <v>       0.46258503      -0.23129252       0.00000000 </v>
   <v>       0.47619048      -0.23809524       0.00000000 </v>
   <v>       0.48979592      -0.24489796       0.00000000 </v>
   <v>       0.50340136      -0.25170068       0.00000000 </v>
   <v>       0.51700680      -0.25850340       0.00000000 </v>
   <v>       0.53061224      -0.26530612       0.00000000 </v>
   <v>       0.54421769      -0.27210884       0.00000000 </v>
   <v>       0.55782313      -0.27891156       0.00000000 </v>
   <v>       0.57142857      -0.28571429       0.00000000 </v>
   <v>       0.58503401      -0.29251701       0.00000000 </v>
   <v>       0.59863946      -0.29931973       0.00000000 </v>
   <v>       0.61224490      -0.30612245       0.00000000 </v>
   <v>       0.62585034      -0.31292517       0.00000000 </v>
   <v>       0.63945578      -0.31972789       0.00000000 </v>
   <v>       0.65306122      -0.32653061       0.00000000 </v>
   <v>       0.66666667      -0.33333333       0.00000000 </v>
   <v>       0.66666667      -0.33333333       0.00000000 </v>
   <v>       0.65986395      -0.31972789       0.00000000 </v>
   <v>       0.65306122      -0.30612245       0.00000000 </v>
   <v>       0.64625850      -0.29251701       0.00000000 </v>
   <v>       0.63945578      -0.27891156       0.00000000 </v>
   <v>       0.63265306      -0.26530612       0.00000000 </v>
   <v>       0.62585034      -0.25170068       0.00000000 </v>
   <v>       0.61904762      -0.23809524       0.00000000 </v>
   <v>       0.61224490      -0.22448980       0.00000000 </v>
   <v>       0.60544218      -0.21088435       0.00000000 </v>
   <v>       0.59863946      -0.19727891       0.00000000 </v>
   <v>       0.59183673      -0.18367347       0.00000000 </v>
   <v>       0.58503401      -0.17006803       0.00000000 </v>
   <v>       0.57823129      -0.15646259       0.00000000 </v>
   <v>       0.57142857      -0.14285714       0.00000000 </v>
   <v>       0.56462585      -0.12925170       0.00000000 </v>
   <v>       0.55782313      -0.11564626       0.00000000 </v>
   <v>       0.55102041      -0.10204082       0.00000000 </v>
   <v>       0.54421769      -0.08843537       0.00000000 </v>
   <v>       0.53741497      -0.07482993       0.00000000 </v>
   <v>       0.53061224      -0.06122449       0.00000000 </v>
   <v>       0.52380952      -0.04761905       0.00000000 </v>
   <v>       0.51700680      -0.03401361       0.00000000 </v>
   <v>       0.51020408      -0.02040816       0.00000000 </v>
   <v>       0.50340136      -0.00680272       0.00000000 </v>
   <v>       0.49659864       0.00680272       0.00000000 </v>
   <v>       0.48979592       0.02040816       0.00000000 </v>
   <v>       0.48299320       0.03401361       0.00000000 </v>
   <v>       0.47619048       0.04761905       0.00000000 </v>
   <v>       0.46938776       0.06122449       0.00000000 </v>
   <v>       0.46258503       0.07482993       0.00000000 </v>
   <v>       0.45578231       0.08843537       0.00000000 </v>
   <v>       0.44897959       0.10204082       0.00000000 </v>
   <v>       0.44217687       0.11564626       0.00000000 </v>
   <v>       0.43537415       0.12925170       0.00000000 </v>
   <v>       0.42857143       0.14285714       0.00000000 </v>
   <v>       0.42176871       0.15646259       0.00000000 </v>
   <v>       0.41496599       0.17006803       0.00000000 </v>
   <v>       0.40816327       0.18367347       0.00000000 </v>
   <v>       0.40136054       0.19727891       0.00000000 </v>
   <v>       0.39455782       0.21088435       0.00000000 </v>
   <v>       0.38775510       0.22448980       0.00000000 </v>
   <v>       0.38095238       0.23809524       0.00000000 </v>
   <v>       0.37414966       0.25170068       0.00000000 </v>
   <v>       0.36734694       0.26530612       0.00000000 </v>
   <v>       0.36054422       0.27891156       0.00000000 </v>
   <v>       0.35374150       0.29251701       0.00000000 </v>
   <v>       0.34693878       0.30612245       0.00000000 </v>
   <v>       0.34013605       0.31972789       0.00000000 </v>
   <v>       0.33333333       0.33333333       0.00000000 </v>
   <v>       0.33333333       0.33333333       0.00000000 </v>
   <v>       0.32653061       0.32653061       0.00000000 </v>
   <v>       0.31972789       0.31972789       0.00000000 </v>
   <v>       0.31292517       0.31292517       0.00000000 </v>
   <v>       0.30612245       0.30612245       0.00000000 </v>
   <v>       0.29931973       0.29931973       0.00000000 </v>
   <v>       0.29251701       0.29251701       0.00000000 </v>
   <v>       0.28571429       0.28571429       0.00000000 </v>
   <v>       0.27891156       0.27891156       0.00000000 </v>
   <v>       0.27210884       0.27210884       0.00000000 </v>
   <v>       0.26530612       0.26530612       0.00000000 </v>
   <v>       0.25850340       0.25850340       0.00000000 </v>
   <v>       0.25170068       0.25170068       0.00000000 </v>
   <v>       0.24489796       0.24489796       0.00000000 </v>
   <v>       0.23809524       0.23809524       0.00000000 </v>
   <v>       0.23129252       0.23129252       0.00000000 </v>
   <v>       0.22448980       0.22448980       0.00000000 </v>
   <v>       0.21768707       0.21768707       0.00000000 </v>
   <v>       0.21088435       0.21088435       0.00000000 </v>
   <v>       0.20408163       0.20408163       0.00000000 </v>
   <v>       0.19727891       0.19727891       0.00000000 </v>
   <v>       0.19047619       0.19047619       0.00000000 </v>
   <v>       0.18367347       0.18367347       0.00000000 </v>
   <v>       0.17687075       0.17687075       0.00000000 </v>
   <v>       0.17006803       0.17006803       0.00000000 </v>
   <v>       0.16326531       0.16326531       0.00000000 </v>
   <v>       0.15646259       0.15646259       0.00000000 </v>
   <v>       0.14965986       0.14965986       0.00000000 </v>
   <v>       0.14285714       0.14285714       0.00000000 </v>
   <v>       0.13605442       0.13605442       0.00000000 </v>
   <v>       0.12925170       0.12925170       0.00000000 </v>
   <v>       0.12244898       0.12244898       0.00000000 </v>
   <v>       0.11564626       0.11564626       0.00000000 </v>
   <v>       0.10884354       0.10884354       0.00000000 </v>
   <v>       0.10204082       0.10204082       0.00000000 </v>
   <v>       0.09523810       0.09523810       0.00000000 </v>
   <v>       0.08843537       0.08843537       0.00000000 </v>
   <v>       0.08163265       0.08163265       0.00000000 </v>
   <v>       0.07482993       0.07482993       0.00000000 </v>
   <v>       0.06802721       0.06802721       0.00000000 </v>
   <v>       0.06122449       0.06122449       0.00000000 </v>
   <v>       0.05442177       0.05442177       0.00000000 </v>
   <v>       0.04761905       0.04761905       0.00000000 </v>
   <v>       0.04081633       0.04081633       0.00000000 </v>
   <v>       0.03401361       0.03401361       0.00000000 </v>
   <v>       0.02721088       0.02721088       0.00000000 </v>
   <v>       0.02040816       0.02040816       0.00000000 </v>
   <v>       0.01360544       0.01360544       0.00000000 </v>
   <v>       0.00680272       0.00680272       0.00000000 </v>
   <v>       0.00000000       0.00000000       0.00000000 </v>
  </varray>
  <varray name="weights" >
   <v>       0.00666667 </v>
   <v>       0.00666667 </v>
   <v>       0.00666667 </v>
   <v>       0.00666667 </v>
   <v>       0.00666667 </v>
   <v>       0.00666667 </v>
   <v>       0.00666667 </v>
   <v>       0.00666667 </v>
   <v>       0.00666667 </v>
   <v>       0.00666667 </v>
   <v>       0.00666667 </v>
   <v>       0.00666667 </v>
   <v>       0.00666667 </v>
   <v>       0.00666667 </v>
   <v>       0.00666667 </v>
   <v>       0.00666667 </v>
   <v>       0.00666667 </v>
   <v>       0.00666667 </v>
   <v>       0.00666667 </v>
   <v>       0.00666667 </v>
   <v>       0.00666667 </v>
   <v>       0.00666667 </v>
   <v>       0.00666667 </v>
   <v>       0.00666667 </v>
   <v>       0.00666667 </v>
   <v>       0.00666667 </v>
   <v>       0.00666667 </v>
   <v>       0.00666667 </v>
   <v>       0.00666667 </v>
   <v>       0.00666667 </v>
   <v>       0.00666667 </v>
   <v>       0.00666667 </v>
   <v>       0.00666667 </v>
   <v>       0.00666667 </v>
   <v>       0.00666667 </v>
   <v>       0.00666667 </v>
   <v>       0.00666667 </v>
   <v>       0.00666667 </v>
   <v>       0.00666667 </v>
   <v>       0.00666667 </v>
   <v>       0.00666667 </v>
   <v>       0.00666667 </v>
   <v>       0.00666667 </v>
   <v>       0.00666667 </v>
   <v>       0.00666667 </v>
   <v>       0.00666667 </v>
   <v>       0.00666667 </v>
   <v>       0.00666667 </v>
   <v>       0.00666667 </v>
   <v>       0.00666667 </v>
   <v>       0.00666667 </v>
   <v>       0.00666667 </v>
   <v>       0.00666667 </v>
   <v>       0.00666667 </v>
   <v>       0.00666667 </v>
   <v>       0.00666667 </v>
   <v>       0.00666667 </v>
   <v>       0.00666667 </v>
   <v>       0.00666667 </v>
   <v>       0.00666667 </v>
   <v>       0.00666667 </v>
   <v>       0.00666667 </v>
   <v>       0.00666667 </v>
   <v>       0.00666667 </v>
   <v>       0.00666667 </v>
   <v>       0.00666667 </v>
   <v>       0.00666667 </v>
   <v>       0.00666667 </v>
   <v>       0.00666667 </v>
   <v>       0.00666667 </v>
   <v>       0.00666667 </v>
   <v>       0.00666667 </v>
   <v>       0.00666667 </v>
   <v>       0.00666667 </v>
   <v>       0.00666667 </v>
   <v>       0.00666667 </v>
   <v>       0.00666667 </v>
   <v>       0.00666667 </v>
   <v>       0.00666667 </v>
   <v>       0.00666667 </v>
   <v>       0.00666667 </v>
   <v>       0.00666667 </v>
   <v>       0.00666667 </v>
   <v>       0.00666667 </v>
   <v>       0.00666667 </v>
   <v>       0.00666667 </v>
   <v>       0.00666667 </v>
   <v>       0.00666667 </v>
   <v>       0.00666667 </v>
   <v>       0.00666667 </v>
   <v>       0.00666667 </v>
   <v>       0.00666667 </v>
   <v>       0.00666667 </v>
   <v>       0.00666667 </v>
   <v>       0.00666667 </v>
   <v>       0.00666667 </v>
   <v>       0.00666667 </v>
   <v>       0.00666667 </v>
   <v>       0.00666667 </v>
   <v>       0.00666667 </v>
   <v>       0.00666667 </v>
   <v>       0.00666667 </v>
   <v>       0.00666667 </v>
   <v>       0.00666667 </v>
   <v>       0.00666667 </v>
   <v>       0.00666667 </v>
   <v>       0.00666667 </v>
   <v>       0.00666667 </v>
   <v>       0.00666667 </v>
   <v>       0.00666667 </v>
   <v>       0.00666667 </v>
   <v>       0.00666667 </v>
   <v>       0.00666667 </v>
   <v>       0.00666667 </v>
   <v>       0.00666667 </v>
   <v>       0.00666667 </v>
   <v>       0.00666667 </v>
   <v>       0.00666667 </v>
   <v>       0.00666667 </v>
   <v>       0.00666667 </v>
   <v>       0.00666667 </v>
   <v>       0.00666667 </v>
   <v>       0.00666667 </v>
   <v>       0.00666667 </v>
   <v>       0.00666667 </v>
   <v>       0.00666667 </v>
   <v>       0.00666667 </v>
   <v>       0.00666667 </v>
   <v>       0.00666667 </v>
   <v>       0.00666667 </v>
   <v>       0.00666667 </v>
   <v>       0.00666667 </v>
   <v>       0.00666667 </v>
   <v>       0.00666667 </v>
   <v>       0.00666667 </v>
   <v>       0.00666667 </v>
   <v>       0.00666667 </v>
   <v>       0.00666667 </v>
   <v>       0.00666667 </v>
   <v>       0.00666667 </v>
   <v>       0.00666667 </v>
   <v>       0.00666667 </v>
   <v>       0.00666667 </v>
   <v>       0.00666667 </v>
   <v>       0.00666667 </v>
   <v>       0.00666667 </v>
   <v>       0.00666667 </v>
   <v>       0.00666667 </v>
   <v>       0.00666667 </v>
   <v>       0.00666667 </v>
  </varray>
  <kpoints_labels>
   <i name="G" type="int">       1 </i>
   <i name="K" type="int">       2 </i>
   <i name="K" type="int">       3 </i>
   <i name="K'" type="int">       4 </i>
   <i name="K'" type="int">       5 </i>
   <i name="G" type="int">       6 </i>
  </kpoints_labels>
 </kpoints>
 <parameters>
  <separator name="general" >
   <i type="string" name="SYSTEM">unknown system</i>
   <i type="logical" name="LCOMPAT"> F  </i>
  </separator>
  <separator name="electronic" >
   <i type="string" name="PREC">accura</i>
   <i name="ENMAX">    193.57762500</i>
   <i name="ENAUG">    560.61200000</i>
   <i name="EDIFF">      0.00000100</i>
   <i type="int" name="IALGO">    38</i>
   <i type="int" name="IWAVPR">    10</i>
   <i type="int" name="NBANDS">    16</i>
   <i type="int" name="NBANDSLOW">    -1</i>
   <i type="int" name="NBANDSHIGH">    -1</i>
   <i name="NELECT">     10.00000000</i>
   <i type="int" name="TURBO">     0</i>
   <i type="int" name="IRESTART">     0</i>
   <i type="int" name="NREBOOT">     0</i>
   <i type="int" name="NMIN">     0</i>
   <i name="EREF">      0.00000000</i>
   <separator name="electronic smearing" >
    <i type="int" name="ISMEAR">     0</i>
    <i name="SIGMA">      0.01000000</i>
    <i name="KSPACING">      0.50000000</i>
    <i type="logical" name="KGAMMA"> T  </i>
    <i type="logical" name="KBLOWUP"> T  </i>
   </separator>
   <separator name="electronic projectors" >
    <i type="logical" name="LREAL"> F  </i>
    <v name="ROPT">      0.00000000</v>
    <i type="int" name="LMAXPAW">  -100</i>
    <i type="int" name="LMAXMIX">     2</i>
    <i type="logical" name="NLSPLINE"> F  </i>
   </separator>
   <separator name="electronic startup" >
    <i type="int" name="ISTART">     0</i>
    <i type="int" name="ICHARG">    11</i>
    <i type="int" name="INIWAV">     1</i>
   </separator>
   <separator name="electronic spin" >
    <i type="int" name="ISPIN">     1</i>
    <i type="logical" name="LNONCOLLINEAR"> F  </i>
    <v name="MAGMOM">      1.00000000      1.00000000</v>
    <i name="NUPDOWN">     -1.00000000</i>
    <i type="logical" name="LSORBIT"> F  </i>
    <v name="SAXIS">      0.00000000      0.00000000      1.00000000</v>
    <i type="logical" name="LSPIRAL"> F  </i>
    <v name="QSPIRAL">      0.00000000      0.00000000      0.00000000</v>
    <i type="logical" name="LZEROZ"> F  </i>
   </separator>
   <separator name="electronic exchange-correlation" >
    <i type="logical" name="LASPH"> T  </i>
    <i type="logical" name="LMETAGGA"> F  </i>
   </separator>
   <separator name="electronic convergence" >
    <i type="int" name="NELM">   200</i>
    <i type="int" name="NELMDL">   -12</i>
    <i type="int" name="NELMIN">     6</i>
    <i name="ENINI">    193.57762500</i>
    <separator name="electronic convergence detail" >
     <i type="logical" name="LDIAG"> T  </i>
     <i type="logical" name="LSUBROT"> F  </i>
     <i name="WEIMIN">      0.00000000</i>
     <i name="EBREAK">      0.00000002</i>
     <i name="DEPER">      0.30000000</i>
     <i type="int" name="NRMM">     4</i>
     <i name="TIME">      0.40000000</i>
    </separator>
   </separator>
   <separator name="electronic mixer" >
    <i name="AMIX">      0.10000000</i>
    <i name="BMIX">      0.00010000</i>
    <i name="AMIN">      0.10000000</i>
    <i name="AMIX_MAG">      0.40000000</i>
    <i name="BMIX_MAG">      0.00010000</i>
    <separator name="electronic mixer details" >
     <i type="int" name="IMIX">     4</i>
     <i type="logical" name="MIXFIRST"> F  </i>
     <i type="int" name="MAXMIX">   -45</i>
     <i name="WC">    100.00000000</i>
     <i type="int" name="INIMIX">     1</i>
     <i type="int" name="MIXPRE">     1</i>
     <i type="int" name="MREMOVE">     5</i>
    </separator>
   </separator>
   <separator name="electronic dipolcorrection" >
    <i type="logical" name="LDIPOL"> F  </i>
    <i type="logical" name="LMONO"> F  </i>
    <i type="int" name="IDIPOL">     0</i>
    <i name="EPSILON">      1.00000000</i>
    <v name="DIPOL">   -100.00000000   -100.00000000   -100.00000000</v>
    <i name="EFIELD">      0.00000000</i>
   </separator>
  </separator>
  <separator name="grids" >
   <i type="int" name="NGX">    20</i>
   <i type="int" name="NGY">    20</i>
   <i type="int" name="NGZ">    80</i>
   <i type="int" name="NGXF">    40</i>
   <i type="int" name="NGYF">    40</i>
   <i type="int" name="NGZF">   160</i>
   <i type="logical" name="ADDGRID"> T  </i>
  </separator>
  <separator name="ionic" >
   <i type="int" name="NSW">     0</i>
   <i type="int" name="IBRION">    -1</i>
   <i type="int" name="MDALGO">     0</i>
   <i type="int" name="ISIF">    -1</i>
   <i name="PSTRESS">      0.00000000</i>
   <i name="EDIFFG">     -0.01000000</i>
   <i type="int" name="NFREE">     1</i>
   <i name="POTIM">      0.50000000</i>
   <i name="SMASS">     -3.00000000</i>
   <i name="SCALEE">      1.00000000</i>
  </separator>
  <separator name="ionic md" >
   <i name="TEBEG">      0.00010000</i>
   <i name="TEEND">      0.00010000</i>
   <i type="int" name="NBLOCK">     1</i>
   <i type="int" name="KBLOCK">     1</i>
   <i type="int" name="NPACO">   256</i>
   <i name="APACO">     10.00000000</i>
  </separator>
  <separator name="symmetry" >
   <i type="int" name="ISYM">     2</i>
   <i name="SYMPREC">      0.00001000</i>
  </separator>
  <separator name="dos" >
   <i type="int" name="LORBIT">    10</i>
   <v name="RWIGS">     -1.00000000</v>
   <i type="int" name="NEDOS">  6001</i>
   <i name="EMIN">     10.00000000</i>
   <i name="EMAX">    -10.00000000</i>
   <i name="EFERMI">      0.00000000</i>
  </separator>
  <separator name="writing" >
   <i type="int" name="NWRITE">     1</i>
   <i type="logical" name="LWAVE"> F  </i>
   <i type="logical" name="LDOWNSAMPLE"> F  </i>
   <i type="logical" name="LCHARG"> F  </i>
   <i type="logical" name="LPARD"> F  </i>
   <i type="logical" name="LVTOT"> F  </i>
   <i type="logical" name="LVHAR"> F  </i>
   <i type="logical" name="LELF"> F  </i>
   <i type="logical" name="LOPTICS"> F  </i>
   <v name="STM">      0.00000000      0.00000000      0.00000000      0.00000000      0.00000000      0.00000000      0.00000000</v>
  </separator>
  <separator name="performance" >
   <i type="int" name="NPAR">     4</i>
   <i type="int" name="NSIM">     4</i>
   <i type="int" name="NBLK">    -1</i>
   <i type="logical" name="LPLANE"> T  </i>
   <i type="logical" name="LSCALAPACK"> T  </i>
   <i type="logical" name="LSCAAWARE"> F  </i>
   <i type="logical" name="LSCALU"> F  </i>
   <i type="logical" name="LASYNC"> F  </i>
   <i type="logical" name="LORBITALREAL"> F  </i>
  </separator>
  <separator name="miscellaneous" >
   <i type="int" name="IDIOT">     3</i>
   <i type="int" name="PHON_NSTRUCT">    -1</i>
   <i type="logical" name="LMUSIC"> F  </i>
   <v name="POMASS">    121.75000000</v>
   <v name="DARWINR">      0.00000000</v>
   <v name="DARWINV">      1.00000000</v>
   <i type="logical" name="LCORR"> T  </i>
  </separator>
  <i type="logical" name="GGA_COMPAT"> T  </i>
  <i type="logical" name="LBERRY"> F  </i>
  <i type="int" name="ICORELEVEL">     0</i>
  <i type="logical" name="LDAU"> F  </i>
  <i type="int" name="I_CONSTRAINED_M">     0</i>
  <separator name="electronic exchange-correlation" >
   <i type="string" name="GGA">--</i>
   <i type="int" name="VOSKOWN">     0</i>
   <i type="logical" name="LHFCALC"> F  </i>
   <i type="string" name="PRECFOCK"></i>
   <i type="logical" name="LSYMGRAD"> F  </i>
   <i type="logical" name="LHFONE"> F  </i>
   <i type="logical" name="LRHFCALC"> F  </i>
   <i type="logical" name="LTHOMAS"> F  </i>
   <i type="logical" name="LMODELHF"> F  </i>
   <i type="logical" name="LFOCKACE"> F  </i>
   <i name="ENCUT4O">     -1.00000000</i>
   <i type="int" name="EXXOEP">     0</i>
   <i type="int" name="FOURORBIT">     0</i>
   <i name="AEXX">      0.00000000</i>
   <i name="HFALPHA">      0.00000000</i>
   <i name="MCALPHA">      0.00000000</i>
   <i name="ALDAX">      1.00000000</i>
   <i name="AGGAX">      1.00000000</i>
   <i name="ALDAC">      1.00000000</i>
   <i name="AGGAC">      1.00000000</i>
   <i type="int" name="NKREDX">     1</i>
   <i type="int" name="NKREDY">     1</i>
   <i type="int" name="NKREDZ">     1</i>
   <i type="logical" name="SHIFTRED"> F  </i>
   <i type="logical" name="ODDONLY"> F  </i>
   <i type="logical" name="EVENONLY"> F  </i>
   <i type="int" name="LMAXFOCK">     0</i>
   <i type="int" name="NMAXFOCKAE">     0</i>
   <i type="logical" name="LFOCKAEDFT"> F  </i>
   <i name="HFSCREEN">      0.00000000</i>
   <i name="HFSCREENC">      0.00000000</i>
   <i type="int" name="NBANDSGWLOW">     0</i>
  </separator>
  <separator name="vdW DFT" >
   <i type="logical" name="LUSE_VDW"> F  </i>
   <i type="int" name="IVDW_NL">     1</i>
   <i type="logical" name="LSPIN_VDW"> F  </i>
   <i name="Zab_VDW">     -0.84910000</i>
   <i name="PARAM1">      0.12340000</i>
   <i name="PARAM2">      1.00000000</i>
   <i name="PARAM3">      0.00000000</i>
  </separator>
  <separator name="model GW" >
   <i type="int" name="MODEL_GW">     0</i>
   <i name="MODEL_EPS0">     70.33422284</i>
   <i name="MODEL_ALPHA">      1.00000000</i>
  </separator>
  <separator name="linear response parameters" >
   <i type="logical" name="LEPSILON"> F  </i>
   <i type="logical" name="LRPA"> F  </i>
   <i type="logical" name="LNABLA"> F  </i>
   <i type="logical" name="LVEL"> F  </i>
   <i name="CSHIFT">      0.10000000</i>
   <i name="OMEGAMAX">     -1.00000000</i>
   <i name="DEG_THRESHOLD">      0.00200000</i>
   <i name="RTIME">     -0.10000000</i>
   <i name="WPLASMAI">      0.00000000</i>
   <v name="DFIELD">      0.00000000      0.00000000      0.00000000</v>
   <v name="WPLASMA">      0.00000000      0.00000000      0.00000000      0.00000000      0.00000000      0.00000000      0.00000000      0.00000000      0.00000000</v>
  </separator>
  <separator name="orbital magnetization" >
   <i type="logical" name="NUCIND"> F  </i>
   <v name="MAGPOS">      0.00000000      0.00000000      0.00000000</v>
   <i type="logical" name="LNICSALL"> T  </i>
   <i type="logical" name="ORBITALMAG"> F  </i>
   <i type="logical" name="LMAGBLOCH"> F  </i>
   <i type="logical" name="LCHIMAG"> F  </i>
   <i type="logical" name="LGAUGE"> T  </i>
   <i type="int" name="MAGATOM">     0</i>
   <v name="MAGDIPOL">      0.00000000      0.00000000      0.00000000</v>
   <v name="AVECCONST">      0.00000000      0.00000000      0.00000000</v>
  </separator>
  <separator name="response functions" >
   <i type="logical" name="LALL_IN_ONE"> F  </i>
   <i type="int" name="IALL_IN_ONE">    -1</i>
   <i type="int" name="NBANDS_WAVE">    -1</i>
   <i type="logical" name="LFINITE_TEMPERATURE"> F  </i>
   <i type="logical" name="LADDER"> F  </i>
   <i type="logical" name="LRPAFORCE"> F  </i>
   <i type="logical" name="LFXC"> F  </i>
   <i type="logical" name="LHARTREE"> T  </i>
   <i type="int" name="IBSE">     0</i>
   <v type="int" name="KPOINT">    -1     0     0     0</v>
   <i type="logical" name="LTCTC"> F  </i>
   <i type="logical" name="LTCTE"> F  </i>
   <i type="logical" name="LTETE"> F  </i>
   <i type="logical" name="LTRIPLET"> F  </i>
   <i type="logical" name="LFXCEPS"> F  </i>
   <i type="logical" name="LFXHEG"> F  </i>
   <i type="int" name="NATURALO">     2</i>
   <i type="logical" name="LHOLEGF"> F  </i>
   <i type="logical" name="L2ORDER"> F  </i>
   <i type="logical" name="LDMP1"> F  </i>
   <i type="logical" name="LMP2LT"> F  </i>
   <i type="logical" name="LSMP2LT"> F  </i>
   <i type="logical" name="LGWLF"> F  </i>
   <i name="ENCUTGW">     -1.60000002</i>
   <i name="ENCUTGWSOFT">     -1.60000002</i>
   <i name="ENCUTLF">     -1.00000000</i>
   <i type="logical" name="LESF_SPLINES"> F  </i>
   <i type="int" name="LMAXMP2">    -1</i>
   <i name="SCISSOR">      0.00000000</i>
   <i type="int" name="NOMEGA">     0</i>
   <i type="int" name="NOMEGAR">     0</i>
   <i type="int" name="NBANDSGW">    -1</i>
   <i type="int" name="NBANDSO">    -1</i>
   <i type="int" name="NBANDSV">    -1</i>
   <i type="int" name="NELMGW">     1</i>
   <i type="int" name="NELMHF">     1</i>
   <i type="int" name="DIM">     3</i>
   <i type="int" name="IESPILON">     4</i>
   <i type="int" name="ANTIRES">     0</i>
   <i name="OMEGAMAX">    -30.00000000</i>
   <i name="OMEGAMIN">    -30.00000000</i>
   <i name="OMEGATL">   -200.00000000</i>
   <i type="int" name="OMEGAGRID">     0</i>
   <i name="CSHIFT">     -0.10000000</i>
   <i type="logical" name="LSELFENERGY"> F  </i>
   <i type="logical" name="LSPECTRAL"> F  </i>
   <i type="logical" name="LSPECTRALGW"> F  </i>
   <i type="logical" name="LSINGLES"> F  </i>
   <i type="logical" name="LFERMIGW"> F  </i>
   <i type="logical" name="ODDONLYGW"> F  </i>
   <i type="logical" name="EVENONLYGW"> F  </i>
   <i type="int" name="NKREDLFX">     1</i>
   <i type="int" name="NKREDLFY">     1</i>
   <i type="int" name="NKREDLFZ">     1</i>
   <i type="int" name="MAXMEM">  2800</i>
   <i type="int" name="TELESCOPE">     0</i>
   <i type="int" name="NTAUPAR">    -1</i>
   <i type="int" name="NOMEGAPAR">    -1</i>
   <i name="DAMP_NEWTON">      0.80000001</i>
   <i name="LAMBDA">      1.00000000</i>
  </separator>
  <separator name="External order field" >
   <i name="OFIELD_KAPPA">      0.00000000</i>
   <v name="OFIELD_K">      0.00000000      0.00000000      0.00000000</v>
   <i name="OFIELD_Q6_NEAR">      0.00000000</i>
   <i name="OFIELD_Q6_FAR">      0.00000000</i>
   <i name="OFIELD_A">      0.00000000</i>
  </separator>
  <separator name="optional k-points parameters" >
   <i type="int" name="KPOINTS_OPT_MODE">     1</i>
   <i type="logical" name="LKPOINTS_OPT"> F  </i>
  </separator>
 </parameters>
 <atominfo>
  <atoms>       2 </atoms>
  <types>       1 </types>
  <array name="atoms" >
   <dimension dim="1">ion</dimension>
   <field type="string">element</field>
   <field type="int">atomtype</field>
   <set>
    <rc><c>Sb</c><c>   1</c></rc>
    <rc><c>Sb</c><c>   1</c></rc>
   </set>
  </array>
  <array name="atomtypes" >
   <dimension dim="1">type</dimension>
   <field type="int">atomspertype</field>
   <field type="string">element</field>
   <field>mass</field>
   <field>valence</field>
   <field type="string">pseudopotential</field>
   <set>
    <rc><c>   2</c><c>Sb</c><c>    121.75000000</c><c>      5.00000000</c><c>  PAW_PBE Sb_GW 21Mar2012               </c></rc>
   </set>
  </array>
 </atominfo>
 <structure name="initialpos" >
  <crystal>
   <varray name="basis" >
    <v>       4.11336655       0.00000000       0.00000000 </v>
    <v>      -2.05668327       3.56227993       0.00000000 </v>
    <v>       0.00000000       0.00000000      16.00000000 </v>
   </varray>
   <i name="volume">    234.44740948 </i>
   <varray name="rec_basis" >
    <v>       0.24310987       0.14035955       0.00000000 </v>
    <v>       0.00000000       0.28071910       0.00000000 </v>
    <v>       0.00000000       0.00000000       0.06250000 </v>
   </varray>
  </crystal>
  <varray name="positions" >
   <v>       0.66666667       0.33333333       0.44862540 </v>
   <v>       0.33333333       0.66666667       0.55137460 </v>
  </varray>
 </structure>
 <calculation>
  <scstep>
   <time name="dav">    1.20    1.20</time>
   <time name="total">    1.72    1.83</time>
   <energy>
    <i name="alphaZ">      2.97593478 </i>
    <i name="ewald">    213.91894841 </i>
    <i name="hartreedc">   -472.86091619 </i>
    <i name="XCdc">    -92.29539729 </i>
    <i name="pawpsdc">    366.58882778 </i>
    <i name="pawaedc">   -258.81859964 </i>
    <i name="eentropy">     -0.00010026 </i>
    <i name="bandstr">    -32.79109469 </i>
    <i name="atom">    299.89217194 </i>
    <i name="e_fr_energy">     26.60977484 </i>
    <i name="e_wo_entrp">     26.60987510 </i>
    <i name="e_0_energy">     26.60982497 </i>
   </energy>
  </scstep>
  <scstep>
   <time name="dav">    1.52    1.53</time>
   <time name="total">    1.53    1.53</time>
   <energy>
    <i name="e_fr_energy">     -6.11319944 </i>
    <i name="e_wo_entrp">     -6.11319944 </i>
    <i name="e_0_energy">     -6.11319944 </i>
   </energy>
  </scstep>
  <scstep>
   <time name="dav">    1.51    1.51</time>
   <time name="total">    1.51    1.51</time>
   <energy>
    <i name="e_fr_energy">     -8.05984950 </i>
    <i name="e_wo_entrp">     -8.05984950 </i>
    <i name="e_0_energy">     -8.05984950 </i>
   </energy>
  </scstep>
  <scstep>
   <time name="dav">    1.16    1.16</time>
   <time name="total">    1.16    1.16</time>
   <energy>
    <i name="e_fr_energy">     -8.09456620 </i>
    <i name="e_wo_entrp">     -8.09456620 </i>
    <i name="e_0_energy">     -8.09456620 </i>
   </energy>
  </scstep>
  <scstep>
   <time name="dav">    1.01    1.01</time>
   <time name="total">    1.01    1.01</time>
   <energy>
    <i name="e_fr_energy">     -8.09549210 </i>
    <i name="e_wo_entrp">     -8.09549210 </i>
    <i name="e_0_energy">     -8.09549210 </i>
   </energy>
  </scstep>
  <scstep>
   <time name="dav">    0.88    0.88</time>
   <time name="total">    0.88    0.88</time>
   <energy>
    <i name="e_fr_energy">     -8.09550143 </i>
    <i name="e_wo_entrp">     -8.09550143 </i>
    <i name="e_0_energy">     -8.09550143 </i>
   </energy>
  </scstep>
  <scstep>
   <time name="dav">    0.96    0.96</time>
   <time name="total">    0.96    0.96</time>
   <energy>
    <i name="e_fr_energy">     -8.09550151 </i>
    <i name="e_wo_entrp">     -8.09550151 </i>
    <i name="e_0_energy">     -8.09550151 </i>
   </energy>
  </scstep>
  <scstep>
   <time name="dav">    0.73    0.73</time>
   <time name="total">    0.73    0.73</time>
   <energy>
    <i name="e_fr_energy">     -8.09550152 </i>
    <i name="e_wo_entrp">     -8.09550152 </i>
    <i name="e_0_energy">     -8.09550152 </i>
   </energy>
  </scstep>
  <scstep>
   <time name="dav">    0.76    0.76</time>
   <time name="total">    0.76    0.76</time>
   <energy>
    <i name="e_fr_energy">     -8.09550152 </i>
    <i name="e_wo_entrp">     -8.09550152 </i>
    <i name="e_0_energy">     -8.09550152 </i>
   </energy>
  </scstep>
  <scstep>
   <time name="dav">    0.68    0.68</time>
   <time name="total">    0.68    0.68</time>
   <energy>
    <i name="e_fr_energy">     -8.09550152 </i>
    <i name="e_wo_entrp">     -8.09550152 </i>
    <i name="e_0_energy">     -8.09550152 </i>
   </energy>
  </scstep>
  <scstep>
   <time name="dav">    0.65    0.65</time>
   <time name="total">    0.65    0.65</time>
   <energy>
    <i name="e_fr_energy">     -8.09550152 </i>
    <i name="e_wo_entrp">     -8.09550152 </i>
    <i name="e_0_energy">     -8.09550152 </i>
   </energy>
  </scstep>
  <scstep>
   <time name="dav">    0.61    0.61</time>
   <time name="total">    0.61    0.61</time>
   <energy>
    <i name="e_fr_energy">     -8.09550152 </i>
    <i name="e_wo_entrp">     -8.09550152 </i>
    <i name="e_0_energy">     -8.09550152 </i>
   </energy>
  </scstep>
  <scstep>
   <time name="dav">    0.57    0.57</time>
   <time name="total">    0.58    0.58</time>
   <energy>
    <i name="alphaZ">      2.97593478 </i>
    <i name="ewald">    213.91894841 </i>
    <i name="hartreedc">   -472.86091619 </i>
    <i name="XCdc">    -92.29539729 </i>
    <i name="pawpsdc">    366.58882778 </i>
    <i name="pawaedc">   -258.81859964 </i>
    <i name="eentropy">     -0.00000000 </i>
    <i name="bandstr">    -67.49647130 </i>
    <i name="atom">    299.89217194 </i>
    <i name="e_fr_energy">     -8.09550152 </i>
    <i name="e_wo_entrp">     -8.09550152 </i>
    <i name="e_0_energy">     -8.09550152 </i>
   </energy>
  </scstep>
  <structure>
   <crystal>
    <varray name="basis" >
     <v>       4.11336655       0.00000000       0.00000000 </v>
     <v>      -2.05668327       3.56227993       0.00000000 </v>
     <v>       0.00000000       0.00000000      16.00000000 </v>
    </varray>
    <i name="volume">    234.44740948 </i>
    <varray name="rec_basis" >
     <v>       0.24310987       0.14035955       0.00000000 </v>
     <v>       0.00000000       0.28071910       0.00000000 </v>
     <v>       0.00000000       0.00000000       0.06250000 </v>
    </varray>
   </crystal>
   <varray name="positions" >
    <v>       0.66666667       0.33333333       0.44862540 </v>
    <v>       0.33333333       0.66666667       0.55137460 </v>
   </varray>
  </structure>
  <varray name="forces" >
   <v>       0.00000000       0.00000000       0.00000000 </v>
   <v>       0.00000000       0.00000000       0.00000000 </v>
  </varray>
  <varray name="stress" >
   <v>       0.00000000       0.00000000       0.00000000 </v>
   <v>       0.00000000       0.00000000       0.00000000 </v>
   <v>       0.00000000       0.00000000       0.00000000 </v>
  </varray>
  <energy>
   <i name="e_fr_energy">     -8.09550152 </i>
   <i name="e_wo_entrp">     -8.09550152 </i>
   <i name="e_0_energy">     -8.09550152 </i>
  </energy>
  <time name="totalsc">   12.81   13.21</time>
  <eigenvalues>
   <array>
    <dimension dim="1">band</dimension>
    <dimension dim="2">kpoint</dimension>
    <dimension dim="3">spin</dimension>
    <field>eigene</field>
    <field>occ</field>
    <set>
     <set comment="spin 1">
      <set comment="kpoint 1">
       <r>  -13.5644    1.0000 </r>
       <r>   -8.5911    1.0000 </r>
       <r>   -2.8907    1.0000 </r>
       <r>   -2.2853    1.0000 </r>
       <r>   -2.2853    1.0000 </r>
       <r>   -0.7156    0.0000 </r>
       <r>    0.5087    0.0000 </r>
       <r>    0.5087    0.0000 </r>
       <r>    2.0902    0.0000 </r>
       <r>    2.1680    0.0000 </r>
       <r>    3.6261    0.0000 </r>
       <r>    4.5300    0.0000 </r>
       <r>    4.8450    0.0000 </r>
       <r>    5.8848    0.0000 </r>
       <r>    5.8848    0.0000 </r>
       <r>    6.4960    0.0000 </r>
      </set>
      <set comment="kpoint 2">
       <r>  -13.5629    1.0000 </r>
       <r>   -8.5910    1.0000 </r>
       <r>   -2.8900    1.0000 </r>
       <r>   -2.3067    1.0000 </r>
       <r>   -2.2890    1.0000 </r>
       <r>   -0.6965    0.0000 </r>
       <r>    0.5039    0.0000 </r>
       <r>    0.5124    0.0000 </r>
       <r>    2.0922    0.0000 </r>
       <r>    2.1698    0.0000 </r>
       <r>    3.6281    0.0000 </r>
       <r>    4.5316    0.0000 </r>
       <r>    4.8514    0.0000 </r>
       <r>    5.8562    0.0000 </r>
       <r>    5.8824    0.0000 </r>
       <r>    6.5243    0.0000 </r>
      </set>
      <set comment="kpoint 3">
       <r>  -13.5585    1.0000 </r>
       <r>   -8.5907    1.0000 </r>
       <r>   -2.8879    1.0000 </r>
       <r>   -2.3675    1.0000 </r>
       <r>   -2.3002    1.0000 </r>
       <r>   -0.6428    0.0000 </r>
       <r>    0.4900    0.0000 </r>
       <r>    0.5237    0.0000 </r>
       <r>    2.0984    0.0000 </r>
       <r>    2.1752    0.0000 </r>
       <r>    3.6338    0.0000 </r>
       <r>    4.5366    0.0000 </r>
       <r>    4.8698    0.0000 </r>
       <r>    5.7846    0.0000 </r>
       <r>    5.8751    0.0000 </r>
       <r>    6.5953    0.0000 </r>
      </set>
      <set comment="kpoint 4">
       <r>  -13.5511    1.0000 </r>
       <r>   -8.5902    1.0000 </r>
       <r>   -2.8845    1.0000 </r>
       <r>   -2.4599    1.0000 </r>
       <r>   -2.3189    1.0000 </r>
       <r>   -0.5630    0.0000 </r>
       <r>    0.4675    0.0000 </r>
       <r>    0.5429    0.0000 </r>
       <r>    2.1086    0.0000 </r>
       <r>    2.1841    0.0000 </r>
       <r>    3.6429    0.0000 </r>
       <r>    4.5449    0.0000 </r>
       <r>    4.8976    0.0000 </r>
       <r>    5.6947    0.0000 </r>
       <r>    5.8624    0.0000 </r>
       <r>    6.6884    0.0000 </r>
      </set>
      <set comment="kpoint 5">
       <r>  -13.5407    1.0000 </r>
       <r>   -8.5896    1.0000 </r>
       <r>   -2.8798    1.0000 </r>
       <r>   -2.5751    1.0000 </r>
       <r>   -2.3450    1.0000 </r>
       <r>   -0.4671    0.0000 </r>
       <r>    0.4376    0.0000 </r>
       <r>    0.5709    0.0000 </r>
       <r>    2.1229    0.0000 </r>
       <r>    2.1962    0.0000 </r>
       <r>    3.6546    0.0000 </r>
       <r>    4.5565    0.0000 </r>
       <r>    4.9292    0.0000 </r>
       <r>    5.6062    0.0000 </r>
       <r>    5.8433    0.0000 </r>
       <r>    6.6160    0.0000 </r>
      </set>
      <set comment="kpoint 6">
       <r>  -13.5274    1.0000 </r>
       <r>   -8.5890    1.0000 </r>
       <r>   -2.8739    1.0000 </r>
       <r>   -2.7056    1.0000 </r>
       <r>   -2.3786    1.0000 </r>
       <r>   -0.3639    0.0000 </r>
       <r>    0.4016    0.0000 </r>
       <r>    0.6083    0.0000 </r>
       <r>    2.1413    0.0000 </r>
       <r>    2.2116    0.0000 </r>
       <r>    3.6680    0.0000 </r>
       <r>    4.5714    0.0000 </r>
       <r>    4.9537    0.0000 </r>
       <r>    5.5367    0.0000 </r>
       <r>    5.8171    0.0000 </r>
       <r>    6.5359    0.0000 </r>
      </set>
      <set comment="kpoint 7">
       <r>  -13.5112    1.0000 </r>
       <r>   -8.5885    1.0000 </r>
       <r>   -2.8670    1.0000 </r>
       <r>   -2.8458    1.0000 </r>
       <r>   -2.4195    1.0000 </r>
       <r>   -0.2606    0.0000 </r>
       <r>    0.3611    0.0000 </r>
       <r>    0.6562    0.0000 </r>
       <r>    2.1637    0.0000 </r>
       <r>    2.2299    0.0000 </r>
       <r>    3.6823    0.0000 </r>
       <r>    4.5895    0.0000 </r>
       <r>    4.9557    0.0000 </r>
       <r>    5.5052    0.0000 </r>
       <r>    5.7831    0.0000 </r>
       <r>    6.4613    0.0000 </r>
      </set>
      <set comment="kpoint 8">
       <r>  -13.4921    1.0000 </r>
       <r>   -8.5883    1.0000 </r>
       <r>   -2.9916    1.0000 </r>
       <r>   -2.8591    1.0000 </r>
       <r>   -2.4678    1.0000 </r>
       <r>   -0.1624    0.0000 </r>
       <r>    0.3175    0.0000 </r>
       <r>    0.7147    0.0000 </r>
       <r>    2.1901    0.0000 </r>
       <r>    2.2511    0.0000 </r>
       <r>    3.6963    0.0000 </r>
       <r>    4.6107    0.0000 </r>
       <r>    4.9249    0.0000 </r>
       <r>    5.5234    0.0000 </r>
       <r>    5.7420    0.0000 </r>
       <r>    6.3959    0.0000 </r>
      </set>
      <set comment="kpoint 9">
       <r>  -13.4700    1.0000 </r>
       <r>   -8.5884    1.0000 </r>
       <r>   -3.1401    1.0000 </r>
       <r>   -2.8505    1.0000 </r>
       <r>   -2.5231    1.0000 </r>
       <r>   -0.0728    0.0000 </r>
       <r>    0.2722    0.0000 </r>
       <r>    0.7835    0.0000 </r>
       <r>    2.2204    0.0000 </r>
       <r>    2.2751    0.0000 </r>
       <r>    3.7092    0.0000 </r>
       <r>    4.6350    0.0000 </r>
       <r>    4.8680    0.0000 </r>
       <r>    5.5852    0.0000 </r>
       <r>    5.6955    0.0000 </r>
       <r>    6.3410    0.0000 </r>
      </set>
      <set comment="kpoint 10">
       <r>  -13.4450    1.0000 </r>
       <r>   -8.5892    1.0000 </r>
       <r>   -3.2893    1.0000 </r>
       <r>   -2.8416    1.0000 </r>
       <r>   -2.5851    1.0000 </r>
       <r>    0.0067    0.0000 </r>
       <r>    0.2264    0.0000 </r>
       <r>    0.8608    0.0000 </r>
       <r>    2.2541    0.0000 </r>
       <r>    2.3017    0.0000 </r>
       <r>    3.7197    0.0000 </r>
       <r>    4.6622    0.0000 </r>
       <r>    4.7994    0.0000 </r>
       <r>    5.6467    0.0000 </r>
       <r>    5.6761    0.0000 </r>
       <r>    6.2959    0.0000 </r>
      </set>
      <set comment="kpoint 11">
       <r>  -13.4173    1.0000 </r>
       <r>   -8.5909    1.0000 </r>
       <r>   -3.4373    1.0000 </r>
       <r>   -2.8333    1.0000 </r>
       <r>   -2.6529    1.0000 </r>
       <r>    0.0761    0.0000 </r>
       <r>    0.1813    0.0000 </r>
       <r>    0.9437    0.0000 </r>
       <r>    2.2911    0.0000 </r>
       <r>    2.3308    0.0000 </r>
       <r>    3.7267    0.0000 </r>
       <r>    4.6921    0.0000 </r>
       <r>    4.7304    0.0000 </r>
       <r>    5.5998    0.0000 </r>
       <r>    5.7845    0.0000 </r>
       <r>    6.2589    0.0000 </r>
      </set>
      <set comment="kpoint 12">
       <r>  -13.3865    1.0000 </r>
       <r>   -8.5937    1.0000 </r>
       <r>   -3.5828    1.0000 </r>
       <r>   -2.8282    1.0000 </r>
       <r>   -2.7235    1.0000 </r>
       <r>    0.1367    0.0000 </r>
       <r>    0.1377    0.0000 </r>
       <r>    1.0288    0.0000 </r>
       <r>    2.3307    0.0000 </r>
       <r>    2.3624    0.0000 </r>
       <r>    3.7291    0.0000 </r>
       <r>    4.6680    0.0000 </r>
       <r>    4.7243    0.0000 </r>
       <r>    5.5589    0.0000 </r>
       <r>    5.9025    0.0000 </r>
       <r>    6.2281    0.0000 </r>
      </set>
      <set comment="kpoint 13">
       <r>  -13.3530    1.0000 </r>
       <r>   -8.5979    1.0000 </r>
       <r>   -3.7249    1.0000 </r>
       <r>   -2.8457    1.0000 </r>
       <r>   -2.7775    1.0000 </r>
       <r>    0.0963    0.0000 </r>
       <r>    0.1899    0.0000 </r>
       <r>    1.1122    0.0000 </r>
       <r>    2.3723    0.0000 </r>
       <r>    2.3964    0.0000 </r>
       <r>    3.7258    0.0000 </r>
       <r>    4.6166    0.0000 </r>
       <r>    4.7586    0.0000 </r>
       <r>    5.5274    0.0000 </r>
       <r>    6.0245    0.0000 </r>
       <r>    6.2019    0.0000 </r>
      </set>
      <set comment="kpoint 14">
       <r>  -13.3166    1.0000 </r>
       <r>   -8.6038    1.0000 </r>
       <r>   -3.8625    1.0000 </r>
       <r>   -2.9151    1.0000 </r>
       <r>   -2.7854    1.0000 </r>
       <r>    0.0575    0.0000 </r>
       <r>    0.2371    0.0000 </r>
       <r>    1.1908    0.0000 </r>
       <r>    2.4151    0.0000 </r>
       <r>    2.4326    0.0000 </r>
       <r>    3.7165    0.0000 </r>
       <r>    4.5787    0.0000 </r>
       <r>    4.7948    0.0000 </r>
       <r>    5.5077    0.0000 </r>
       <r>    6.1462    0.0000 </r>
       <r>    6.1796    0.0000 </r>
      </set>
      <set comment="kpoint 15">
       <r>  -13.2775    1.0000 </r>
       <r>   -8.6118    1.0000 </r>
       <r>   -3.9949    1.0000 </r>
       <r>   -3.0037    1.0000 </r>
       <r>   -2.7796    1.0000 </r>
       <r>    0.0219    0.0000 </r>
       <r>    0.2797    0.0000 </r>
       <r>    1.2620    0.0000 </r>
       <r>    2.4584    0.0000 </r>
       <r>    2.4711    0.0000 </r>
       <r>    3.7016    0.0000 </r>
       <r>    4.5554    0.0000 </r>
       <r>    4.8325    0.0000 </r>
       <r>    5.5004    0.0000 </r>
       <r>    6.1619    0.0000 </r>
       <r>    6.2636    0.0000 </r>
      </set>
      <set comment="kpoint 16">
       <r>  -13.2355    1.0000 </r>
       <r>   -8.6222    1.0000 </r>
       <r>   -4.1213    1.0000 </r>
       <r>   -3.0993    1.0000 </r>
       <r>   -2.7721    1.0000 </r>
       <r>   -0.0103    0.0000 </r>
       <r>    0.3182    0.0000 </r>
       <r>    1.3238    0.0000 </r>
       <r>    2.5018    0.0000 </r>
       <r>    2.5116    0.0000 </r>
       <r>    3.6824    0.0000 </r>
       <r>    4.5464    0.0000 </r>
       <r>    4.8719    0.0000 </r>
       <r>    5.5039    0.0000 </r>
       <r>    6.1510    0.0000 </r>
       <r>    6.3736    0.0000 </r>
      </set>
      <set comment="kpoint 17">
       <r>  -13.1909    1.0000 </r>
       <r>   -8.6354    1.0000 </r>
       <r>   -4.2410    1.0000 </r>
       <r>   -3.1995    1.0000 </r>
       <r>   -2.7650    1.0000 </r>
       <r>   -0.0388    0.0000 </r>
       <r>    0.3533    0.0000 </r>
       <r>    1.3751    0.0000 </r>
       <r>    2.5450    0.0000 </r>
       <r>    2.5541    0.0000 </r>
       <r>    3.6608    0.0000 </r>
       <r>    4.5505    0.0000 </r>
       <r>    4.9132    0.0000 </r>
       <r>    5.5133    0.0000 </r>
       <r>    6.1514    0.0000 </r>
       <r>    6.4733    0.0000 </r>
      </set>
      <set comment="kpoint 18">
       <r>  -13.1435    1.0000 </r>
       <r>   -8.6517    1.0000 </r>
       <r>   -4.3534    1.0000 </r>
       <r>   -3.3033    1.0000 </r>
       <r>   -2.7592    1.0000 </r>
       <r>   -0.0636    0.0000 </r>
       <r>    0.3848    0.0000 </r>
       <r>    1.4151    0.0000 </r>
       <r>    2.5885    0.0000 </r>
       <r>    2.5983    0.0000 </r>
       <r>    3.6393    0.0000 </r>
       <r>    4.5660    0.0000 </r>
       <r>    4.9566    0.0000 </r>
       <r>    5.5214    0.0000 </r>
       <r>    6.1693    0.0000 </r>
       <r>    6.5603    0.0000 </r>
      </set>
      <set comment="kpoint 19">
       <r>  -13.0935    1.0000 </r>
       <r>   -8.6716    1.0000 </r>
       <r>   -4.4580    1.0000 </r>
       <r>   -3.4099    1.0000 </r>
       <r>   -2.7553    1.0000 </r>
       <r>   -0.0842    0.0000 </r>
       <r>    0.4126    0.0000 </r>
       <r>    1.4441    0.0000 </r>
       <r>    2.6329    0.0000 </r>
       <r>    2.6442    0.0000 </r>
       <r>    3.6200    0.0000 </r>
       <r>    4.5913    0.0000 </r>
       <r>    5.0021    0.0000 </r>
       <r>    5.5206    0.0000 </r>
       <r>    6.2112    0.0000 </r>
       <r>    6.6326    0.0000 </r>
      </set>
      <set comment="kpoint 20">
       <r>  -13.0409    1.0000 </r>
       <r>   -8.6953    1.0000 </r>
       <r>   -4.5542    1.0000 </r>
       <r>   -3.5186    1.0000 </r>
       <r>   -2.7538    1.0000 </r>
       <r>   -0.1006    0.0000 </r>
       <r>    0.4363    0.0000 </r>
       <r>    1.4627    0.0000 </r>
       <r>    2.6789    0.0000 </r>
       <r>    2.6915    0.0000 </r>
       <r>    3.6050    0.0000 </r>
       <r>    4.6245    0.0000 </r>
       <r>    5.0494    0.0000 </r>
       <r>    5.5067    0.0000 </r>
       <r>    6.2800    0.0000 </r>
       <r>    6.6882    0.0000 </r>
      </set>
      <set comment="kpoint 21">
       <r>  -12.9857    1.0000 </r>
       <r>   -8.7232    1.0000 </r>
       <r>   -4.6416    1.0000 </r>
       <r>   -3.6289    1.0000 </r>
       <r>   -2.7550    1.0000 </r>
       <r>   -0.1126    0.0000 </r>
       <r>    0.4549    0.0000 </r>
       <r>    1.4724    0.0000 </r>
       <r>    2.7276    0.0000 </r>
       <r>    2.7401    0.0000 </r>
       <r>    3.5960    0.0000 </r>
       <r>    4.6644    0.0000 </r>
       <r>    5.0965    0.0000 </r>
       <r>    5.4809    0.0000 </r>
       <r>    6.3737    0.0000 </r>
       <r>    6.7246    0.0000 </r>
      </set>
      <set comment="kpoint 22">
       <r>  -12.9280    1.0000 </r>
       <r>   -8.7556    1.0000 </r>
       <r>   -4.7198    1.0000 </r>
       <r>   -3.7402    1.0000 </r>
       <r>   -2.7595    1.0000 </r>
       <r>   -0.1199    0.0000 </r>
       <r>    0.4675    0.0000 </r>
       <r>    1.4751    0.0000 </r>
       <r>    2.7797    0.0000 </r>
       <r>    2.7899    0.0000 </r>
       <r>    3.5941    0.0000 </r>
       <r>    4.7097    0.0000 </r>
       <r>    5.1389    0.0000 </r>
       <r>    5.4504    0.0000 </r>
       <r>    6.4868    0.0000 </r>
       <r>    6.7396    0.0000 </r>
      </set>
      <set comment="kpoint 23">
       <r>  -12.8678    1.0000 </r>
       <r>   -8.7926    1.0000 </r>
       <r>   -4.7885    1.0000 </r>
       <r>   -3.8521    1.0000 </r>
       <r>   -2.7675    1.0000 </r>
       <r>   -0.1222    0.0000 </r>
       <r>    0.4731    0.0000 </r>
       <r>    1.4731    0.0000 </r>
       <r>    2.8357    0.0000 </r>
       <r>    2.8407    0.0000 </r>
       <r>    3.6002    0.0000 </r>
       <r>    4.7595    0.0000 </r>
       <r>    5.1660    0.0000 </r>
       <r>    5.4290    0.0000 </r>
       <r>    6.6122    0.0000 </r>
       <r>    6.7320    0.0000 </r>
      </set>
      <set comment="kpoint 24">
       <r>  -12.8052    1.0000 </r>
       <r>   -8.8344    1.0000 </r>
       <r>   -4.8476    1.0000 </r>
       <r>   -3.9639    1.0000 </r>
       <r>   -2.7794    1.0000 </r>
       <r>   -0.1194    0.0000 </r>
       <r>    0.4703    0.0000 </r>
       <r>    1.4690    0.0000 </r>
       <r>    2.8926    0.0000 </r>
       <r>    2.8960    0.0000 </r>
       <r>    3.6150    0.0000 </r>
       <r>    4.8128    0.0000 </r>
       <r>    5.1625    0.0000 </r>
       <r>    5.4352    0.0000 </r>
       <r>    6.7024    0.0000 </r>
       <r>    6.7425    0.0000 </r>
      </set>
      <set comment="kpoint 25">
       <r>  -12.7403    1.0000 </r>
       <r>   -8.8810    1.0000 </r>
       <r>   -4.8969    1.0000 </r>
       <r>   -4.0754    1.0000 </r>
       <r>   -2.7955    1.0000 </r>
       <r>   -0.1113    0.0000 </r>
       <r>    0.4583    0.0000 </r>
       <r>    1.4651    0.0000 </r>
       <r>    2.9456    0.0000 </r>
       <r>    2.9606    0.0000 </r>
       <r>    3.6386    0.0000 </r>
       <r>    4.8688    0.0000 </r>
       <r>    5.1265    0.0000 </r>
       <r>    5.4734    0.0000 </r>
       <r>    6.6539    0.0000 </r>
       <r>    6.8706    0.0000 </r>
      </set>
      <set comment="kpoint 26">
       <r>  -12.6732    1.0000 </r>
       <r>   -8.9323    1.0000 </r>
       <r>   -4.9365    1.0000 </r>
       <r>   -4.1860    1.0000 </r>
       <r>   -2.8159    1.0000 </r>
       <r>   -0.0976    0.0000 </r>
       <r>    0.4365    0.0000 </r>
       <r>    1.4635    0.0000 </r>
       <r>    3.0000    0.0000 </r>
       <r>    3.0294    0.0000 </r>
       <r>    3.6711    0.0000 </r>
       <r>    4.9265    0.0000 </r>
       <r>    5.0714    0.0000 </r>
       <r>    5.5323    0.0000 </r>
       <r>    6.5911    0.0000 </r>
       <r>    6.9895    0.0000 </r>
      </set>
      <set comment="kpoint 27">
       <r>  -12.6039    1.0000 </r>
       <r>   -8.9883    1.0000 </r>
       <r>   -4.9665    1.0000 </r>
       <r>   -4.2955    1.0000 </r>
       <r>   -2.8408    1.0000 </r>
       <r>   -0.0784    0.0000 </r>
       <r>    0.4048    0.0000 </r>
       <r>    1.4652    0.0000 </r>
       <r>    3.0560    0.0000 </r>
       <r>    3.1024    0.0000 </r>
       <r>    3.7120    0.0000 </r>
       <r>    4.9848    0.0000 </r>
       <r>    5.0080    0.0000 </r>
       <r>    5.6027    0.0000 </r>
       <r>    6.5195    0.0000 </r>
       <r>    7.0936    0.0000 </r>
      </set>
      <set comment="kpoint 28">
       <r>  -12.5324    1.0000 </r>
       <r>   -9.0486    1.0000 </r>
       <r>   -4.9871    1.0000 </r>
       <r>   -4.4034    1.0000 </r>
       <r>   -2.8701    1.0000 </r>
       <r>   -0.0534    0.0000 </r>
       <r>    0.3636    0.0000 </r>
       <r>    1.4709    0.0000 </r>
       <r>    3.1140    0.0000 </r>
       <r>    3.1795    0.0000 </r>
       <r>    3.7609    0.0000 </r>
       <r>    4.9420    0.0000 </r>
       <r>    5.0424    0.0000 </r>
       <r>    5.6805    0.0000 </r>
       <r>    6.4443    0.0000 </r>
       <r>    7.1789    0.0000 </r>
      </set>
      <set comment="kpoint 29">
       <r>  -12.4591    1.0000 </r>
       <r>   -9.1132    1.0000 </r>
       <r>   -4.9987    1.0000 </r>
       <r>   -4.5094    1.0000 </r>
       <r>   -2.9038    1.0000 </r>
       <r>   -0.0228    0.0000 </r>
       <r>    0.3140    0.0000 </r>
       <r>    1.4803    0.0000 </r>
       <r>    3.1745    0.0000 </r>
       <r>    3.2603    0.0000 </r>
       <r>    3.8172    0.0000 </r>
       <r>    4.8766    0.0000 </r>
       <r>    5.0975    0.0000 </r>
       <r>    5.7637    0.0000 </r>
       <r>    6.3703    0.0000 </r>
       <r>    7.2425    0.0000 </r>
      </set>
      <set comment="kpoint 30">
       <r>  -12.3839    1.0000 </r>
       <r>   -9.1815    1.0000 </r>
       <r>   -5.0016    1.0000 </r>
       <r>   -4.6132    1.0000 </r>
       <r>   -2.9417    1.0000 </r>
       <r>    0.0135    0.0000 </r>
       <r>    0.2571    0.0000 </r>
       <r>    1.4928    0.0000 </r>
       <r>    3.2379    0.0000 </r>
       <r>    3.3446    0.0000 </r>
       <r>    3.8800    0.0000 </r>
       <r>    4.8139    0.0000 </r>
       <r>    5.1477    0.0000 </r>
       <r>    5.8515    0.0000 </r>
       <r>    6.3022    0.0000 </r>
       <r>    7.2832    0.0000 </r>
      </set>
      <set comment="kpoint 31">
       <r>  -12.3068    1.0000 </r>
       <r>   -9.2533    1.0000 </r>
       <r>   -4.9963    1.0000 </r>
       <r>   -4.7145    1.0000 </r>
       <r>   -2.9836    1.0000 </r>
       <r>    0.0552    0.0000 </r>
       <r>    0.1945    0.0000 </r>
       <r>    1.5075    0.0000 </r>
       <r>    3.3046    0.0000 </r>
       <r>    3.4324    0.0000 </r>
       <r>    3.9487    0.0000 </r>
       <r>    4.7556    0.0000 </r>
       <r>    5.1901    0.0000 </r>
       <r>    5.9433    0.0000 </r>
       <r>    6.2446    0.0000 </r>
       <r>    7.3001    0.0000 </r>
      </set>
      <set comment="kpoint 32">
       <r>  -12.2282    1.0000 </r>
       <r>   -9.3280    1.0000 </r>
       <r>   -4.9831    1.0000 </r>
       <r>   -4.8130    1.0000 </r>
       <r>   -3.0292    1.0000 </r>
       <r>    0.1021    0.0000 </r>
       <r>    0.1275    0.0000 </r>
       <r>    1.5232    0.0000 </r>
       <r>    3.3750    0.0000 </r>
       <r>    3.5232    0.0000 </r>
       <r>    4.0222    0.0000 </r>
       <r>    4.7031    0.0000 </r>
       <r>    5.2214    0.0000 </r>
       <r>    6.0389    0.0000 </r>
       <r>    6.2024    0.0000 </r>
       <r>    7.2935    0.0000 </r>
      </set>
      <set comment="kpoint 33">
       <r>  -12.1481    1.0000 </r>
       <r>   -9.4053    1.0000 </r>
       <r>   -4.9628    1.0000 </r>
       <r>   -4.9084    1.0000 </r>
       <r>   -3.0782    1.0000 </r>
       <r>    0.0574    0.0000 </r>
       <r>    0.1541    0.0000 </r>
       <r>    1.5388    0.0000 </r>
       <r>    3.4492    0.0000 </r>
       <r>    3.6169    0.0000 </r>
       <r>    4.0995    0.0000 </r>
       <r>    4.6577    0.0000 </r>
       <r>    5.2384    0.0000 </r>
       <r>    6.1380    0.0000 </r>
       <r>    6.1796    0.0000 </r>
       <r>    7.2646    0.0000 </r>
      </set>
      <set comment="kpoint 34">
       <r>  -12.0667    1.0000 </r>
       <r>   -9.4847    1.0000 </r>
       <r>   -5.0004    1.0000 </r>
       <r>   -4.9358    1.0000 </r>
       <r>   -3.1301    1.0000 </r>
       <r>   -0.0145    0.0000 </r>
       <r>    0.2106    0.0000 </r>
       <r>    1.5531    0.0000 </r>
       <r>    3.5276    0.0000 </r>
       <r>    3.7130    0.0000 </r>
       <r>    4.1794    0.0000 </r>
       <r>    4.6206    0.0000 </r>
       <r>    5.2401    0.0000 </r>
       <r>    6.1787    0.0000 </r>
       <r>    6.2406    0.0000 </r>
       <r>    7.2165    0.0000 </r>
      </set>
      <set comment="kpoint 35">
       <r>  -11.9840    1.0000 </r>
       <r>   -9.5658    1.0000 </r>
       <r>   -5.0888    1.0000 </r>
       <r>   -4.9027    1.0000 </r>
       <r>   -3.1847    1.0000 </r>
       <r>   -0.0872    0.0000 </r>
       <r>    0.2715    0.0000 </r>
       <r>    1.5654    0.0000 </r>
       <r>    3.6101    0.0000 </r>
       <r>    3.8110    0.0000 </r>
       <r>    4.2602    0.0000 </r>
       <r>    4.5931    0.0000 </r>
       <r>    5.2283    0.0000 </r>
       <r>    6.1992    0.0000 </r>
       <r>    6.3465    0.0000 </r>
       <r>    7.1585    0.0000 </r>
      </set>
      <set comment="kpoint 36">
       <r>  -11.9004    1.0000 </r>
       <r>   -9.6483    1.0000 </r>
       <r>   -5.1734    1.0000 </r>
       <r>   -4.8640    1.0000 </r>
       <r>   -3.2416    1.0000 </r>
       <r>   -0.1599    0.0000 </r>
       <r>    0.3363    0.0000 </r>
       <r>    1.5746    0.0000 </r>
       <r>    3.6969    0.0000 </r>
       <r>    3.9103    0.0000 </r>
       <r>    4.3396    0.0000 </r>
       <r>    4.5764    0.0000 </r>
       <r>    5.2077    0.0000 </r>
       <r>    6.2380    0.0000 </r>
       <r>    6.4556    0.0000 </r>
       <r>    7.0426    0.0000 </r>
      </set>
      <set comment="kpoint 37">
       <r>  -11.8160    1.0000 </r>
       <r>   -9.7316    1.0000 </r>
       <r>   -5.2537    1.0000 </r>
       <r>   -4.8203    1.0000 </r>
       <r>   -3.3002    1.0000 </r>
       <r>   -0.2315    0.0000 </r>
       <r>    0.4045    0.0000 </r>
       <r>    1.5801    0.0000 </r>
       <r>    3.7881    0.0000 </r>
       <r>    4.0098    0.0000 </r>
       <r>    4.4139    0.0000 </r>
       <r>    4.5722    0.0000 </r>
       <r>    5.1856    0.0000 </r>
       <r>    6.2905    0.0000 </r>
       <r>    6.5680    0.0000 </r>
       <r>    6.9260    0.0000 </r>
      </set>
      <set comment="kpoint 38">
       <r>  -11.7310    1.0000 </r>
       <r>   -9.8154    1.0000 </r>
       <r>   -5.3297    1.0000 </r>
       <r>   -4.7723    1.0000 </r>
       <r>   -3.3603    1.0000 </r>
       <r>   -0.3014    0.0000 </r>
       <r>    0.4757    0.0000 </r>
       <r>    1.5813    0.0000 </r>
       <r>    3.8834    0.0000 </r>
       <r>    4.1078    0.0000 </r>
       <r>    4.4780    0.0000 </r>
       <r>    4.5824    0.0000 </r>
       <r>    5.1708    0.0000 </r>
       <r>    6.3512    0.0000 </r>
       <r>    6.6835    0.0000 </r>
       <r>    6.8124    0.0000 </r>
      </set>
      <set comment="kpoint 39">
       <r>  -11.6456    1.0000 </r>
       <r>   -9.8994    1.0000 </r>
       <r>   -5.4010    1.0000 </r>
       <r>   -4.7205    1.0000 </r>
       <r>   -3.4215    1.0000 </r>
       <r>   -0.3690    0.0000 </r>
       <r>    0.5492    0.0000 </r>
       <r>    1.5780    0.0000 </r>
       <r>    3.9828    0.0000 </r>
       <r>    4.2021    0.0000 </r>
       <r>    4.5252    0.0000 </r>
       <r>    4.6092    0.0000 </r>
       <r>    5.1729    0.0000 </r>
       <r>    6.4133    0.0000 </r>
       <r>    6.7039    0.0000 </r>
       <r>    6.8019    0.0000 </r>
      </set>
      <set comment="kpoint 40">
       <r>  -11.5601    1.0000 </r>
       <r>   -9.9833    1.0000 </r>
       <r>   -5.4674    1.0000 </r>
       <r>   -4.6654    1.0000 </r>
       <r>   -3.4834    1.0000 </r>
       <r>   -0.4334    0.0000 </r>
       <r>    0.6246    0.0000 </r>
       <r>    1.5699    0.0000 </r>
       <r>    4.0861    0.0000 </r>
       <r>    4.2902    0.0000 </r>
       <r>    4.5500    0.0000 </r>
       <r>    4.6554    0.0000 </r>
       <r>    5.1997    0.0000 </r>
       <r>    6.4612    0.0000 </r>
       <r>    6.6101    0.0000 </r>
       <r>    6.7194    0.0000 </r>
      </set>
      <set comment="kpoint 41">
       <r>  -11.4748    1.0000 </r>
       <r>  -10.0668    1.0000 </r>
       <r>   -5.5285    1.0000 </r>
       <r>   -4.6078    1.0000 </r>
       <r>   -3.5457    1.0000 </r>
       <r>   -0.4943    0.0000 </r>
       <r>    0.7011    0.0000 </r>
       <r>    1.5571    0.0000 </r>
       <r>    4.1931    0.0000 </r>
       <r>    4.3703    0.0000 </r>
       <r>    4.5520    0.0000 </r>
       <r>    4.7221    0.0000 </r>
       <r>    5.2531    0.0000 </r>
       <r>    6.4370    0.0000 </r>
       <r>    6.5817    0.0000 </r>
       <r>    6.6253    0.0000 </r>
      </set>
      <set comment="kpoint 42">
       <r>  -11.3899    1.0000 </r>
       <r>  -10.1495    1.0000 </r>
       <r>   -5.5842    1.0000 </r>
       <r>   -4.5482    1.0000 </r>
       <r>   -3.6081    1.0000 </r>
       <r>   -0.5509    0.0000 </r>
       <r>    0.7781    0.0000 </r>
       <r>    1.5397    0.0000 </r>
       <r>    4.3030    0.0000 </r>
       <r>    4.4434    0.0000 </r>
       <r>    4.5365    0.0000 </r>
       <r>    4.8080    0.0000 </r>
       <r>    5.3294    0.0000 </r>
       <r>    6.3467    0.0000 </r>
       <r>    6.5316    0.0000 </r>
       <r>    6.6025    0.0000 </r>
      </set>
      <set comment="kpoint 43">
       <r>  -11.3057    1.0000 </r>
       <r>  -10.2314    1.0000 </r>
       <r>   -5.6342    1.0000 </r>
       <r>   -4.4872    1.0000 </r>
       <r>   -3.6703    1.0000 </r>
       <r>   -0.6027    0.0000 </r>
       <r>    0.8546    0.0000 </r>
       <r>    1.5182    0.0000 </r>
       <r>    4.4129    0.0000 </r>
       <r>    4.5125    0.0000 </r>
       <r>    4.5132    0.0000 </r>
       <r>    4.9095    0.0000 </r>
       <r>    5.4221    0.0000 </r>
       <r>    6.2452    0.0000 </r>
       <r>    6.4389    0.0000 </r>
       <r>    6.6059    0.0000 </r>
      </set>
      <set comment="kpoint 44">
       <r>  -11.2225    1.0000 </r>
       <r>  -10.3120    1.0000 </r>
       <r>   -5.6782    1.0000 </r>
       <r>   -4.4255    1.0000 </r>
       <r>   -3.7318    1.0000 </r>
       <r>   -0.6492    0.0000 </r>
       <r>    0.9299    0.0000 </r>
       <r>    1.4928    0.0000 </r>
       <r>    4.4642    0.0000 </r>
       <r>    4.5458    0.0000 </r>
       <r>    4.5809    0.0000 </r>
       <r>    5.0223    0.0000 </r>
       <r>    5.5252    0.0000 </r>
       <r>    6.1415    0.0000 </r>
       <r>    6.3477    0.0000 </r>
       <r>    6.5740    0.0000 </r>
      </set>
      <set comment="kpoint 45">
       <r>  -11.1406    1.0000 </r>
       <r>  -10.3913    1.0000 </r>
       <r>   -5.7159    1.0000 </r>
       <r>   -4.3636    1.0000 </r>
       <r>   -3.7926    1.0000 </r>
       <r>   -0.6898    0.0000 </r>
       <r>    1.0030    0.0000 </r>
       <r>    1.4641    0.0000 </r>
       <r>    4.4367    0.0000 </r>
       <r>    4.6508    0.0000 </r>
       <r>    4.6580    0.0000 </r>
       <r>    5.1432    0.0000 </r>
       <r>    5.6329    0.0000 </r>
       <r>    6.0359    0.0000 </r>
       <r>    6.2584    0.0000 </r>
       <r>    6.5058    0.0000 </r>
      </set>
      <set comment="kpoint 46">
       <r>  -11.0603    1.0000 </r>
       <r>  -10.4691    1.0000 </r>
       <r>   -5.7472    1.0000 </r>
       <r>   -4.3023    1.0000 </r>
       <r>   -3.8523    1.0000 </r>
       <r>   -0.7241    0.0000 </r>
       <r>    1.0726    0.0000 </r>
       <r>    1.4326    0.0000 </r>
       <r>    4.4064    0.0000 </r>
       <r>    4.7232    0.0000 </r>
       <r>    4.7749    0.0000 </r>
       <r>    5.2698    0.0000 </r>
       <r>    5.7374    0.0000 </r>
       <r>    5.9272    0.0000 </r>
       <r>    6.1714    0.0000 </r>
       <r>    6.4133    0.0000 </r>
      </set>
      <set comment="kpoint 47">
       <r>  -10.9820    1.0000 </r>
       <r>  -10.5452    1.0000 </r>
       <r>   -5.7717    1.0000 </r>
       <r>   -4.2421    1.0000 </r>
       <r>   -3.9106    1.0000 </r>
       <r>   -0.7515    0.0000 </r>
       <r>    1.1375    0.0000 </r>
       <r>    1.3989    0.0000 </r>
       <r>    4.3798    0.0000 </r>
       <r>    4.7980    0.0000 </r>
       <r>    4.8885    0.0000 </r>
       <r>    5.4002    0.0000 </r>
       <r>    5.8134    0.0000 </r>
       <r>    5.8230    0.0000 </r>
       <r>    6.0873    0.0000 </r>
       <r>    6.3250    0.0000 </r>
      </set>
      <set comment="kpoint 48">
       <r>  -10.9059    1.0000 </r>
       <r>  -10.6194    1.0000 </r>
       <r>   -5.7894    1.0000 </r>
       <r>   -4.1837    1.0000 </r>
       <r>   -3.9672    1.0000 </r>
       <r>   -0.7715    0.0000 </r>
       <r>    1.1964    0.0000 </r>
       <r>    1.3636    0.0000 </r>
       <r>    4.3591    0.0000 </r>
       <r>    4.8749    0.0000 </r>
       <r>    4.9890    0.0000 </r>
       <r>    5.5323    0.0000 </r>
       <r>    5.6973    0.0000 </r>
       <r>    5.8562    0.0000 </r>
       <r>    6.0068    0.0000 </r>
       <r>    6.2899    0.0000 </r>
      </set>
      <set comment="kpoint 49">
       <r>  -10.8325    1.0000 </r>
       <r>  -10.6916    1.0000 </r>
       <r>   -5.8001    1.0000 </r>
       <r>   -4.1277    1.0000 </r>
       <r>   -4.0220    1.0000 </r>
       <r>   -0.7838    0.0000 </r>
       <r>    1.2478    0.0000 </r>
       <r>    1.3271    0.0000 </r>
       <r>    4.3459    0.0000 </r>
       <r>    4.9525    0.0000 </r>
       <r>    5.0516    0.0000 </r>
       <r>    5.5984    0.0000 </r>
       <r>    5.6616    0.0000 </r>
       <r>    5.8226    0.0000 </r>
       <r>    5.9327    0.0000 </r>
       <r>    6.3336    0.0000 </r>
      </set>
      <set comment="kpoint 50">
       <r>  -10.7618    1.0000 </r>
       <r>  -10.7618    1.0000 </r>
       <r>   -5.8035    1.0000 </r>
       <r>   -4.0746    1.0000 </r>
       <r>   -4.0746    1.0000 </r>
       <r>   -0.7879    0.0000 </r>
       <r>    1.2901    0.0000 </r>
       <r>    1.2901    0.0000 </r>
       <r>    4.3412    0.0000 </r>
       <r>    5.0292    0.0000 </r>
       <r>    5.0292    0.0000 </r>
       <r>    5.5608    0.0000 </r>
       <r>    5.7634    0.0000 </r>
       <r>    5.7634    0.0000 </r>
       <r>    5.8869    0.0000 </r>
       <r>    6.4012    0.0000 </r>
      </set>
      <set comment="kpoint 51">
       <r>  -10.7618    1.0000 </r>
       <r>  -10.7618    1.0000 </r>
       <r>   -5.8035    1.0000 </r>
       <r>   -4.0746    1.0000 </r>
       <r>   -4.0746    1.0000 </r>
       <r>   -0.7879    0.0000 </r>
       <r>    1.2901    0.0000 </r>
       <r>    1.2901    0.0000 </r>
       <r>    4.3412    0.0000 </r>
       <r>    5.0292    0.0000 </r>
       <r>    5.0292    0.0000 </r>
       <r>    5.5608    0.0000 </r>
       <r>    5.7634    0.0000 </r>
       <r>    5.7634    0.0000 </r>
       <r>    5.8869    0.0000 </r>
       <r>    6.4012    0.0000 </r>
      </set>
      <set comment="kpoint 52">
       <r>  -10.8298    1.0000 </r>
       <r>  -10.6944    1.0000 </r>
       <r>   -5.8001    1.0000 </r>
       <r>   -4.1248    1.0000 </r>
       <r>   -4.0249    1.0000 </r>
       <r>   -0.7837    0.0000 </r>
       <r>    1.2529    0.0000 </r>
       <r>    1.3216    0.0000 </r>
       <r>    4.3461    0.0000 </r>
       <r>    4.9121    0.0000 </r>
       <r>    5.1027    0.0000 </r>
       <r>    5.5707    0.0000 </r>
       <r>    5.7368    0.0000 </r>
       <r>    5.7481    0.0000 </r>
       <r>    5.9525    0.0000 </r>
       <r>    6.3706    0.0000 </r>
      </set>
      <set comment="kpoint 53">
       <r>  -10.8955    1.0000 </r>
       <r>  -10.6303    1.0000 </r>
       <r>   -5.7895    1.0000 </r>
       <r>   -4.1722    1.0000 </r>
       <r>   -3.9791    1.0000 </r>
       <r>   -0.7710    0.0000 </r>
       <r>    1.2162    0.0000 </r>
       <r>    1.3408    0.0000 </r>
       <r>    4.3608    0.0000 </r>
       <r>    4.7463    0.0000 </r>
       <r>    5.1702    0.0000 </r>
       <r>    5.5385    0.0000 </r>
       <r>    5.6861    0.0000 </r>
       <r>    5.8023    0.0000 </r>
       <r>    6.0440    0.0000 </r>
       <r>    6.3382    0.0000 </r>
      </set>
      <set comment="kpoint 54">
       <r>  -10.9588    1.0000 </r>
       <r>  -10.5698    1.0000 </r>
       <r>   -5.7720    1.0000 </r>
       <r>   -4.2166    1.0000 </r>
       <r>   -3.9375    1.0000 </r>
       <r>   -0.7497    0.0000 </r>
       <r>    1.1803    0.0000 </r>
       <r>    1.3461    0.0000 </r>
       <r>    4.3834    0.0000 </r>
       <r>    4.5665    0.0000 </r>
       <r>    5.2279    0.0000 </r>
       <r>    5.4782    0.0000 </r>
       <r>    5.6217    0.0000 </r>
       <r>    5.9198    0.0000 </r>
       <r>    6.0990    0.0000 </r>
       <r>    6.2787    0.0000 </r>
      </set>
      <set comment="kpoint 55">
       <r>  -11.0196    1.0000 </r>
       <r>  -10.5131    1.0000 </r>
       <r>   -5.7478    1.0000 </r>
       <r>   -4.2574    1.0000 </r>
       <r>   -3.9002    1.0000 </r>
       <r>   -0.7201    0.0000 </r>
       <r>    1.1458    0.0000 </r>
       <r>    1.3362    0.0000 </r>
       <r>    4.3541    0.0000 </r>
       <r>    4.4469    0.0000 </r>
       <r>    5.2718    0.0000 </r>
       <r>    5.4143    0.0000 </r>
       <r>    5.5603    0.0000 </r>
       <r>    6.0492    0.0000 </r>
       <r>    6.1219    0.0000 </r>
       <r>    6.2283    0.0000 </r>
      </set>
      <set comment="kpoint 56">
       <r>  -11.0779    1.0000 </r>
       <r>  -10.4602    1.0000 </r>
       <r>   -5.7175    1.0000 </r>
       <r>   -4.2943    1.0000 </r>
       <r>   -3.8674    1.0000 </r>
       <r>   -0.6824    0.0000 </r>
       <r>    1.1130    0.0000 </r>
       <r>    1.3100    0.0000 </r>
       <r>    4.1853    0.0000 </r>
       <r>    4.4818    0.0000 </r>
       <r>    5.2974    0.0000 </r>
       <r>    5.3522    0.0000 </r>
       <r>    5.5042    0.0000 </r>
       <r>    6.1205    0.0000 </r>
       <r>    6.1362    0.0000 </r>
       <r>    6.2490    0.0000 </r>
      </set>
      <set comment="kpoint 57">
       <r>  -11.1335    1.0000 </r>
       <r>  -10.4112    1.0000 </r>
       <r>   -5.6815    1.0000 </r>
       <r>   -4.3267    1.0000 </r>
       <r>   -3.8390    1.0000 </r>
       <r>   -0.6372    0.0000 </r>
       <r>    1.0825    0.0000 </r>
       <r>    1.2667    0.0000 </r>
       <r>    4.0137    0.0000 </r>
       <r>    4.5379    0.0000 </r>
       <r>    5.2934    0.0000 </r>
       <r>    5.3011    0.0000 </r>
       <r>    5.4563    0.0000 </r>
       <r>    6.0883    0.0000 </r>
       <r>    6.1535    0.0000 </r>
       <r>    6.3834    0.0000 </r>
      </set>
      <set comment="kpoint 58">
       <r>  -11.1865    1.0000 </r>
       <r>  -10.3662    1.0000 </r>
       <r>   -5.6408    1.0000 </r>
       <r>   -4.3540    1.0000 </r>
       <r>   -3.8149    1.0000 </r>
       <r>   -0.5852    0.0000 </r>
       <r>    1.0548    0.0000 </r>
       <r>    1.2061    0.0000 </r>
       <r>    3.8523    0.0000 </r>
       <r>    4.6035    0.0000 </r>
       <r>    5.2389    0.0000 </r>
       <r>    5.2823    0.0000 </r>
       <r>    5.4182    0.0000 </r>
       <r>    6.0449    0.0000 </r>
       <r>    6.1752    0.0000 </r>
       <r>    6.5380    0.0000 </r>
      </set>
      <set comment="kpoint 59">
       <r>  -11.2368    1.0000 </r>
       <r>  -10.3251    1.0000 </r>
       <r>   -5.5963    1.0000 </r>
       <r>   -4.3753    1.0000 </r>
       <r>   -3.7949    1.0000 </r>
       <r>   -0.5274    0.0000 </r>
       <r>    1.0303    0.0000 </r>
       <r>    1.1284    0.0000 </r>
       <r>    3.7037    0.0000 </r>
       <r>    4.6755    0.0000 </r>
       <r>    5.1897    0.0000 </r>
       <r>    5.2465    0.0000 </r>
       <r>    5.3865    0.0000 </r>
       <r>    6.0046    0.0000 </r>
       <r>    6.1976    0.0000 </r>
       <r>    6.6977    0.0000 </r>
      </set>
      <set comment="kpoint 60">
       <r>  -11.2843    1.0000 </r>
       <r>  -10.2877    1.0000 </r>
       <r>   -5.5495    1.0000 </r>
       <r>   -4.3899    1.0000 </r>
       <r>   -3.7787    1.0000 </r>
       <r>   -0.4648    0.0000 </r>
       <r>    1.0097    0.0000 </r>
       <r>    1.0344    0.0000 </r>
       <r>    3.5690    0.0000 </r>
       <r>    4.7497    0.0000 </r>
       <r>    5.1476    0.0000 </r>
       <r>    5.2020    0.0000 </r>
       <r>    5.3561    0.0000 </r>
       <r>    5.9702    0.0000 </r>
       <r>    6.2151    0.0000 </r>
       <r>    6.8591    0.0000 </r>
      </set>
      <set comment="kpoint 61">
       <r>  -11.3291    1.0000 </r>
       <r>  -10.2541    1.0000 </r>
       <r>   -5.5017    1.0000 </r>
       <r>   -4.3967    1.0000 </r>
       <r>   -3.7660    1.0000 </r>
       <r>   -0.3988    0.0000 </r>
       <r>    0.9255    0.0000 </r>
       <r>    0.9935    0.0000 </r>
       <r>    3.4486    0.0000 </r>
       <r>    4.8193    0.0000 </r>
       <r>    5.1173    0.0000 </r>
       <r>    5.1540    0.0000 </r>
       <r>    5.3242    0.0000 </r>
       <r>    5.9436    0.0000 </r>
       <r>    6.2224    0.0000 </r>
       <r>    7.0195    0.0000 </r>
      </set>
      <set comment="kpoint 62">
       <r>  -11.3710    1.0000 </r>
       <r>  -10.2240    1.0000 </r>
       <r>   -5.4546    1.0000 </r>
       <r>   -4.3946    1.0000 </r>
       <r>   -3.7562    1.0000 </r>
       <r>   -0.3308    0.0000 </r>
       <r>    0.8040    0.0000 </r>
       <r>    0.9826    0.0000 </r>
       <r>    3.3421    0.0000 </r>
       <r>    4.8710    0.0000 </r>
       <r>    5.1049    0.0000 </r>
       <r>    5.1086    0.0000 </r>
       <r>    5.2906    0.0000 </r>
       <r>    5.9269    0.0000 </r>
       <r>    6.2158    0.0000 </r>
       <r>    7.1741    0.0000 </r>
      </set>
      <set comment="kpoint 63">
       <r>  -11.4100    1.0000 </r>
       <r>  -10.1972    1.0000 </r>
       <r>   -5.4100    1.0000 </r>
       <r>   -4.3826    1.0000 </r>
       <r>   -3.7491    1.0000 </r>
       <r>   -0.2627    0.0000 </r>
       <r>    0.6720    0.0000 </r>
       <r>    0.9775    0.0000 </r>
       <r>    3.2488    0.0000 </r>
       <r>    4.8904    0.0000 </r>
       <r>    5.0554    0.0000 </r>
       <r>    5.1319    0.0000 </r>
       <r>    5.2559    0.0000 </r>
       <r>    5.9228    0.0000 </r>
       <r>    6.1938    0.0000 </r>
       <r>    7.3176    0.0000 </r>
      </set>
      <set comment="kpoint 64">
       <r>  -11.4462    1.0000 </r>
       <r>  -10.1736    1.0000 </r>
       <r>   -5.3695    1.0000 </r>
       <r>   -4.3600    1.0000 </r>
       <r>   -3.7443    1.0000 </r>
       <r>   -0.1961    0.0000 </r>
       <r>    0.5324    0.0000 </r>
       <r>    0.9790    0.0000 </r>
       <r>    3.1677    0.0000 </r>
       <r>    4.8822    0.0000 </r>
       <r>    5.0057    0.0000 </r>
       <r>    5.1779    0.0000 </r>
       <r>    5.2208    0.0000 </r>
       <r>    5.9345    0.0000 </r>
       <r>    6.1570    0.0000 </r>
       <r>    7.3369    0.0000 </r>
      </set>
      <set comment="kpoint 65">
       <r>  -11.4794    1.0000 </r>
       <r>  -10.1529    1.0000 </r>
       <r>   -5.3343    1.0000 </r>
       <r>   -4.3267    1.0000 </r>
       <r>   -3.7412    1.0000 </r>
       <r>   -0.1329    0.0000 </r>
       <r>    0.3879    0.0000 </r>
       <r>    0.9877    0.0000 </r>
       <r>    3.0975    0.0000 </r>
       <r>    4.8618    0.0000 </r>
       <r>    4.9556    0.0000 </r>
       <r>    5.1863    0.0000 </r>
       <r>    5.2269    0.0000 </r>
       <r>    5.9647    0.0000 </r>
       <r>    6.1080    0.0000 </r>
       <r>    7.3066    0.0000 </r>
      </set>
      <set comment="kpoint 66">
       <r>  -11.5097    1.0000 </r>
       <r>  -10.1350    1.0000 </r>
       <r>   -5.3051    1.0000 </r>
       <r>   -4.2831    1.0000 </r>
       <r>   -3.7397    1.0000 </r>
       <r>   -0.0748    0.0000 </r>
       <r>    0.2416    0.0000 </r>
       <r>    1.0038    0.0000 </r>
       <r>    3.0371    0.0000 </r>
       <r>    4.8379    0.0000 </r>
       <r>    4.9049    0.0000 </r>
       <r>    5.1529    0.0000 </r>
       <r>    5.2673    0.0000 </r>
       <r>    6.0142    0.0000 </r>
       <r>    6.0505    0.0000 </r>
       <r>    7.2647    0.0000 </r>
      </set>
      <set comment="kpoint 67">
       <r>  -11.5370    1.0000 </r>
       <r>  -10.1195    1.0000 </r>
       <r>   -5.2820    1.0000 </r>
       <r>   -4.2309    1.0000 </r>
       <r>   -3.7392    1.0000 </r>
       <r>   -0.0230    0.0000 </r>
       <r>    0.0963    0.0000 </r>
       <r>    1.0274    0.0000 </r>
       <r>    2.9854    0.0000 </r>
       <r>    4.8139    0.0000 </r>
       <r>    4.8534    0.0000 </r>
       <r>    5.1213    0.0000 </r>
       <r>    5.2959    0.0000 </r>
       <r>    5.9885    0.0000 </r>
       <r>    6.0808    0.0000 </r>
       <r>    7.2221    0.0000 </r>
      </set>
      <set comment="kpoint 68">
       <r>  -11.5613    1.0000 </r>
       <r>  -10.1064    1.0000 </r>
       <r>   -5.2643    1.0000 </r>
       <r>   -4.1720    1.0000 </r>
       <r>   -3.7396    1.0000 </r>
       <r>   -0.0448    0.0000 </r>
       <r>    0.0215    0.0000 </r>
       <r>    1.0575    0.0000 </r>
       <r>    2.9415    0.0000 </r>
       <r>    4.7915    0.0000 </r>
[...]
        <r>  0.0113  0.0489  0.0898  0.0192 </r>
        <r>  0.0113  0.0489  0.0898  0.0192 </r>
       </set>
       <set comment="band 14">
        <r>  0.0617  0.0099  0.0508  0.0117 </r>
        <r>  0.0617  0.0099  0.0508  0.0117 </r>
       </set>
       <set comment="band 15">
        <r>  0.0028  0.0237  0.1703  0.0072 </r>
        <r>  0.0028  0.0237  0.1703  0.0072 </r>
       </set>
       <set comment="band 16">
        <r>  0.0030  0.1112  0.1050  0.0051 </r>
        <r>  0.0030  0.1112  0.1050  0.0051 </r>
       </set>
      </set>
      <set comment="kpoint 143">
       <set comment="band 1">
        <r>  0.3352  0.0159  0.0004  0.0007 </r>
        <r>  0.3352  0.0159  0.0004  0.0007 </r>
       </set>
       <set comment="band 2">
        <r>  0.3623  0.0290  0.0015  0.0003 </r>
        <r>  0.3623  0.0290  0.0015  0.0003 </r>
       </set>
       <set comment="band 3">
        <r>  0.0208  0.3243  0.0235  0.0037 </r>
        <r>  0.0208  0.3243  0.0235  0.0037 </r>
       </set>
       <set comment="band 4">
        <r>  0.0093  0.2722  0.0030  0.0021 </r>
        <r>  0.0093  0.2722  0.0030  0.0021 </r>
       </set>
       <set comment="band 5">
        <r>  0.0002  0.3719  0.0239  0.0043 </r>
        <r>  0.0002  0.3719  0.0239  0.0043 </r>
       </set>
       <set comment="band 6">
        <r>  0.1088  0.2200  0.0167  0.0076 </r>
        <r>  0.1088  0.2200  0.0167  0.0076 </r>
       </set>
       <set comment="band 7">
        <r>  0.0129  0.3145  0.0259  0.0056 </r>
        <r>  0.0129  0.3145  0.0259  0.0056 </r>
       </set>
       <set comment="band 8">
        <r>  0.0066  0.3482  0.0241  0.0061 </r>
        <r>  0.0066  0.3482  0.0241  0.0061 </r>
       </set>
       <set comment="band 9">
        <r>  0.0001  0.0222  0.0271  0.0017 </r>
        <r>  0.0001  0.0222  0.0271  0.0017 </r>
       </set>
       <set comment="band 10">
        <r>  0.0049  0.0267  0.0013  0.0004 </r>
        <r>  0.0049  0.0267  0.0013  0.0004 </r>
       </set>
       <set comment="band 11">
        <r>  0.0155  0.0388  0.0061  0.0006 </r>
        <r>  0.0155  0.0388  0.0061  0.0006 </r>
       </set>
       <set comment="band 12">
        <r>  0.0025  0.0002  0.0423  0.0008 </r>
        <r>  0.0025  0.0002  0.0423  0.0008 </r>
       </set>
       <set comment="band 13">
        <r>  0.0195  0.0493  0.0784  0.0217 </r>
        <r>  0.0195  0.0493  0.0784  0.0217 </r>
       </set>
       <set comment="band 14">
        <r>  0.0542  0.0034  0.0673  0.0101 </r>
        <r>  0.0542  0.0034  0.0673  0.0101 </r>
       </set>
       <set comment="band 15">
        <r>  0.0018  0.0256  0.1740  0.0071 </r>
        <r>  0.0018  0.0256  0.1740  0.0071 </r>
       </set>
       <set comment="band 16">
        <r>  0.0033  0.1153  0.0988  0.0052 </r>
        <r>  0.0033  0.1154  0.0988  0.0052 </r>
       </set>
      </set>
      <set comment="kpoint 144">
       <set comment="band 1">
        <r>  0.3352  0.0157  0.0003  0.0007 </r>
        <r>  0.3352  0.0157  0.0003  0.0007 </r>
       </set>
       <set comment="band 2">
        <r>  0.3605  0.0295  0.0014  0.0003 </r>
        <r>  0.3605  0.0295  0.0014  0.0003 </r>
       </set>
       <set comment="band 3">
        <r>  0.0089  0.2713  0.0030  0.0021 </r>
        <r>  0.0089  0.2713  0.0030  0.0021 </r>
       </set>
       <set comment="band 4">
        <r>  0.0193  0.3317  0.0237  0.0039 </r>
        <r>  0.0193  0.3317  0.0237  0.0039 </r>
       </set>
       <set comment="band 5">
        <r>  0.0001  0.3746  0.0240  0.0044 </r>
        <r>  0.0001  0.3746  0.0240  0.0044 </r>
       </set>
       <set comment="band 6">
        <r>  0.1158  0.2120  0.0165  0.0076 </r>
        <r>  0.1158  0.2120  0.0165  0.0076 </r>
       </set>
       <set comment="band 7">
        <r>  0.0102  0.3198  0.0267  0.0056 </r>
        <r>  0.0102  0.3198  0.0267  0.0056 </r>
       </set>
       <set comment="band 8">
        <r>  0.0037  0.3475  0.0259  0.0059 </r>
        <r>  0.0037  0.3475  0.0259  0.0059 </r>
       </set>
       <set comment="band 9">
        <r>  0.0001  0.0201  0.0271  0.0015 </r>
        <r>  0.0001  0.0201  0.0271  0.0015 </r>
       </set>
       <set comment="band 10">
        <r>  0.0053  0.0263  0.0010  0.0004 </r>
        <r>  0.0053  0.0263  0.0010  0.0004 </r>
       </set>
       <set comment="band 11">
        <r>  0.0173  0.0388  0.0041  0.0004 </r>
        <r>  0.0173  0.0388  0.0041  0.0004 </r>
       </set>
       <set comment="band 12">
        <r>  0.0025  0.0002  0.0422  0.0008 </r>
        <r>  0.0025  0.0002  0.0422  0.0008 </r>
       </set>
       <set comment="band 13">
        <r>  0.0324  0.0442  0.0606  0.0239 </r>
        <r>  0.0324  0.0442  0.0606  0.0239 </r>
       </set>
       <set comment="band 14">
        <r>  0.0414  0.0032  0.0901  0.0084 </r>
        <r>  0.0414  0.0032  0.0901  0.0084 </r>
       </set>
       <set comment="band 15">
        <r>  0.0010  0.0281  0.1770  0.0069 </r>
        <r>  0.0010  0.0281  0.1770  0.0069 </r>
       </set>
       <set comment="band 16">
        <r>  0.0033  0.1195  0.0929  0.0053 </r>
        <r>  0.0033  0.1195  0.0929  0.0053 </r>
       </set>
      </set>
      <set comment="kpoint 145">
       <set comment="band 1">
        <r>  0.3352  0.0155  0.0003  0.0007 </r>
        <r>  0.3352  0.0155  0.0003  0.0007 </r>
       </set>
       <set comment="band 2">
        <r>  0.3591  0.0300  0.0013  0.0003 </r>
        <r>  0.3591  0.0300  0.0013  0.0003 </r>
       </set>
       <set comment="band 3">
        <r>  0.0086  0.2705  0.0029  0.0022 </r>
        <r>  0.0086  0.2705  0.0029  0.0022 </r>
       </set>
       <set comment="band 4">
        <r>  0.0169  0.3402  0.0239  0.0041 </r>
        <r>  0.0169  0.3402  0.0239  0.0041 </r>
       </set>
       <set comment="band 5">
        <r>  0.0001  0.3768  0.0240  0.0045 </r>
        <r>  0.0001  0.3768  0.0240  0.0045 </r>
       </set>
       <set comment="band 6">
        <r>  0.1222  0.2034  0.0166  0.0077 </r>
        <r>  0.1222  0.2034  0.0166  0.0077 </r>
       </set>
       <set comment="band 7">
        <r>  0.0075  0.3251  0.0275  0.0056 </r>
        <r>  0.0075  0.3251  0.0275  0.0056 </r>
       </set>
       <set comment="band 8">
        <r>  0.0018  0.3461  0.0273  0.0058 </r>
        <r>  0.0018  0.3461  0.0273  0.0058 </r>
       </set>
       <set comment="band 9">
        <r>  0.0000  0.0185  0.0271  0.0014 </r>
        <r>  0.0000  0.0185  0.0271  0.0014 </r>
       </set>
       <set comment="band 10">
        <r>  0.0058  0.0259  0.0007  0.0003 </r>
        <r>  0.0058  0.0259  0.0007  0.0003 </r>
       </set>
       <set comment="band 11">
        <r>  0.0192  0.0385  0.0027  0.0002 </r>
        <r>  0.0192  0.0385  0.0027  0.0002 </r>
       </set>
       <set comment="band 12">
        <r>  0.0026  0.0001  0.0420  0.0007 </r>
        <r>  0.0026  0.0001  0.0420  0.0007 </r>
       </set>
       <set comment="band 13">
        <r>  0.0461  0.0335  0.0436  0.0250 </r>
        <r>  0.0461  0.0335  0.0436  0.0250 </r>
       </set>
       <set comment="band 14">
        <r>  0.0275  0.0099  0.1126  0.0077 </r>
        <r>  0.0275  0.0099  0.1126  0.0077 </r>
       </set>
       <set comment="band 15">
        <r>  0.0005  0.0310  0.1789  0.0066 </r>
        <r>  0.0005  0.0310  0.1789  0.0066 </r>
       </set>
       <set comment="band 16">
        <r>  0.0031  0.1241  0.0872  0.0056 </r>
        <r>  0.0031  0.1240  0.0872  0.0056 </r>
       </set>
      </set>
      <set comment="kpoint 146">
       <set comment="band 1">
        <r>  0.3351  0.0154  0.0002  0.0007 </r>
        <r>  0.3351  0.0154  0.0002  0.0007 </r>
       </set>
       <set comment="band 2">
        <r>  0.3578  0.0304  0.0013  0.0003 </r>
        <r>  0.3578  0.0304  0.0013  0.0003 </r>
       </set>
       <set comment="band 3">
        <r>  0.0084  0.2699  0.0029  0.0022 </r>
        <r>  0.0084  0.2699  0.0029  0.0022 </r>
       </set>
       <set comment="band 4">
        <r>  0.0136  0.3500  0.0240  0.0043 </r>
        <r>  0.0136  0.3500  0.0240  0.0043 </r>
       </set>
       <set comment="band 5">
        <r>  0.0000  0.3787  0.0241  0.0046 </r>
        <r>  0.0000  0.3787  0.0241  0.0046 </r>
       </set>
       <set comment="band 6">
        <r>  0.1283  0.1940  0.0169  0.0076 </r>
        <r>  0.1283  0.1940  0.0169  0.0076 </r>
       </set>
       <set comment="band 7">
        <r>  0.0051  0.3300  0.0282  0.0055 </r>
        <r>  0.0051  0.3300  0.0282  0.0055 </r>
       </set>
       <set comment="band 8">
        <r>  0.0007  0.3444  0.0283  0.0057 </r>
        <r>  0.0007  0.3444  0.0283  0.0057 </r>
       </set>
       <set comment="band 9">
        <r>  0.0000  0.0172  0.0270  0.0013 </r>
        <r>  0.0000  0.0172  0.0270  0.0013 </r>
       </set>
       <set comment="band 10">
        <r>  0.0062  0.0254  0.0005  0.0003 </r>
        <r>  0.0062  0.0254  0.0005  0.0003 </r>
       </set>
       <set comment="band 11">
        <r>  0.0209  0.0380  0.0016  0.0001 </r>
        <r>  0.0209  0.0380  0.0016  0.0001 </r>
       </set>
       <set comment="band 12">
        <r>  0.0026  0.0001  0.0418  0.0006 </r>
        <r>  0.0026  0.0001  0.0418  0.0006 </r>
       </set>
       <set comment="band 13">
        <r>  0.0558  0.0218  0.0331  0.0250 </r>
        <r>  0.0558  0.0218  0.0331  0.0250 </r>
       </set>
       <set comment="band 14">
        <r>  0.0171  0.0187  0.1298  0.0077 </r>
        <r>  0.0171  0.0187  0.1298  0.0077 </r>
       </set>
       <set comment="band 15">
        <r>  0.0002  0.0339  0.1799  0.0064 </r>
        <r>  0.0002  0.0339  0.1799  0.0064 </r>
       </set>
       <set comment="band 16">
        <r>  0.0025  0.1269  0.0821  0.0059 </r>
        <r>  0.0030  0.1319  0.0811  0.0058 </r>
       </set>
      </set>
      <set comment="kpoint 147">
       <set comment="band 1">
        <r>  0.3351  0.0152  0.0002  0.0007 </r>
        <r>  0.3351  0.0152  0.0002  0.0007 </r>
       </set>
       <set comment="band 2">
        <r>  0.3569  0.0306  0.0012  0.0003 </r>
        <r>  0.3569  0.0306  0.0012  0.0003 </r>
       </set>
       <set comment="band 3">
        <r>  0.0082  0.2694  0.0029  0.0022 </r>
        <r>  0.0082  0.2694  0.0029  0.0022 </r>
       </set>
       <set comment="band 4">
        <r>  0.0094  0.3604  0.0241  0.0045 </r>
        <r>  0.0094  0.3604  0.0241  0.0045 </r>
       </set>
       <set comment="band 5">
        <r>  0.0000  0.3800  0.0241  0.0046 </r>
        <r>  0.0000  0.3800  0.0241  0.0046 </r>
       </set>
       <set comment="band 6">
        <r>  0.1342  0.1839  0.0172  0.0076 </r>
        <r>  0.1342  0.1839  0.0172  0.0076 </r>
       </set>
       <set comment="band 7">
        <r>  0.0030  0.3341  0.0288  0.0055 </r>
        <r>  0.0030  0.3341  0.0288  0.0055 </r>
       </set>
       <set comment="band 8">
        <r>  0.0002  0.3427  0.0289  0.0056 </r>
        <r>  0.0002  0.3427  0.0289  0.0056 </r>
       </set>
       <set comment="band 9">
        <r>  0.0000  0.0162  0.0270  0.0012 </r>
        <r>  0.0000  0.0162  0.0270  0.0012 </r>
       </set>
       <set comment="band 10">
        <r>  0.0066  0.0251  0.0003  0.0003 </r>
        <r>  0.0066  0.0251  0.0003  0.0003 </r>
       </set>
       <set comment="band 11">
        <r>  0.0225  0.0374  0.0009  0.0001 </r>
        <r>  0.0225  0.0374  0.0009  0.0001 </r>
       </set>
       <set comment="band 12">
        <r>  0.0026  0.0001  0.0417  0.0006 </r>
        <r>  0.0026  0.0001  0.0417  0.0006 </r>
       </set>
       <set comment="band 13">
        <r>  0.0613  0.0124  0.0278  0.0248 </r>
        <r>  0.0613  0.0124  0.0278  0.0248 </r>
       </set>
       <set comment="band 14">
        <r>  0.0102  0.0267  0.1438  0.0077 </r>
        <r>  0.0102  0.0267  0.1438  0.0077 </r>
       </set>
       <set comment="band 15">
        <r>  0.0001  0.0363  0.1803  0.0062 </r>
        <r>  0.0001  0.0363  0.1803  0.0062 </r>
       </set>
       <set comment="band 16">
        <r>  0.0124  0.0525  0.0346  0.0206 </r>
        <r>  0.0111  0.0364  0.0377  0.0209 </r>
       </set>
      </set>
      <set comment="kpoint 148">
       <set comment="band 1">
        <r>  0.3351  0.0151  0.0002  0.0007 </r>
        <r>  0.3351  0.0151  0.0002  0.0007 </r>
       </set>
       <set comment="band 2">
        <r>  0.3562  0.0309  0.0012  0.0003 </r>
        <r>  0.3562  0.0309  0.0012  0.0003 </r>
       </set>
       <set comment="band 3">
        <r>  0.0081  0.2690  0.0029  0.0022 </r>
        <r>  0.0081  0.2690  0.0029  0.0022 </r>
       </set>
       <set comment="band 4">
        <r>  0.0050  0.3708  0.0241  0.0046 </r>
        <r>  0.0050  0.3708  0.0241  0.0046 </r>
       </set>
       <set comment="band 5">
        <r>  0.0000  0.3810  0.0241  0.0047 </r>
        <r>  0.0000  0.3810  0.0241  0.0047 </r>
       </set>
       <set comment="band 6">
        <r>  0.1398  0.1739  0.0176  0.0075 </r>
        <r>  0.1398  0.1739  0.0176  0.0075 </r>
       </set>
       <set comment="band 7">
        <r>  0.0014  0.3375  0.0292  0.0055 </r>
        <r>  0.0014  0.3375  0.0292  0.0055 </r>
       </set>
       <set comment="band 8">
        <r>  0.0000  0.3414  0.0293  0.0055 </r>
        <r>  0.0000  0.3414  0.0293  0.0055 </r>
       </set>
       <set comment="band 9">
        <r>  0.0000  0.0156  0.0270  0.0012 </r>
        <r>  0.0000  0.0156  0.0270  0.0012 </r>
       </set>
       <set comment="band 10">
        <r>  0.0069  0.0247  0.0001  0.0002 </r>
        <r>  0.0069  0.0247  0.0001  0.0002 </r>
       </set>
       <set comment="band 11">
        <r>  0.0238  0.0368  0.0004  0.0000 </r>
        <r>  0.0238  0.0368  0.0004  0.0000 </r>
       </set>
       <set comment="band 12">
        <r>  0.0026  0.0001  0.0416  0.0005 </r>
        <r>  0.0026  0.0001  0.0416  0.0005 </r>
       </set>
       <set comment="band 13">
        <r>  0.0642  0.0059  0.0253  0.0245 </r>
        <r>  0.0642  0.0059  0.0253  0.0245 </r>
       </set>
       <set comment="band 14">
        <r>  0.0053  0.0331  0.1581  0.0073 </r>
        <r>  0.0053  0.0331  0.1581  0.0073 </r>
       </set>
       <set comment="band 15">
        <r>  0.0000  0.0382  0.1803  0.0061 </r>
        <r>  0.0000  0.0382  0.1803  0.0061 </r>
       </set>
       <set comment="band 16">
        <r>  0.0143  0.0424  0.0248  0.0219 </r>
        <r>  0.0143  0.0424  0.0248  0.0219 </r>
       </set>
      </set>
      <set comment="kpoint 149">
       <set comment="band 1">
        <r>  0.3351  0.0151  0.0002  0.0007 </r>
        <r>  0.3351  0.0151  0.0002  0.0007 </r>
       </set>
       <set comment="band 2">
        <r>  0.3558  0.0310  0.0012  0.0003 </r>
        <r>  0.3558  0.0310  0.0012  0.0003 </r>
       </set>
       <set comment="band 3">
        <r>  0.0080  0.2688  0.0029  0.0022 </r>
        <r>  0.0080  0.2688  0.0029  0.0022 </r>
       </set>
       <set comment="band 4">
        <r>  0.0014  0.3787  0.0241  0.0047 </r>
        <r>  0.0014  0.3787  0.0241  0.0047 </r>
       </set>
       <set comment="band 5">
        <r>  0.0000  0.3816  0.0241  0.0047 </r>
        <r>  0.0000  0.3816  0.0241  0.0047 </r>
       </set>
       <set comment="band 6">
        <r>  0.1440  0.1662  0.0178  0.0075 </r>
        <r>  0.1440  0.1662  0.0178  0.0075 </r>
       </set>
       <set comment="band 7">
        <r>  0.0003  0.3395  0.0295  0.0055 </r>
        <r>  0.0003  0.3395  0.0295  0.0055 </r>
       </set>
       <set comment="band 8">
        <r>  0.0000  0.3406  0.0295  0.0055 </r>
        <r>  0.0000  0.3406  0.0295  0.0055 </r>
       </set>
       <set comment="band 9">
        <r>  0.0000  0.0152  0.0270  0.0012 </r>
        <r>  0.0000  0.0152  0.0270  0.0012 </r>
       </set>
       <set comment="band 10">
        <r>  0.0071  0.0245  0.0000  0.0002 </r>
        <r>  0.0071  0.0245  0.0000  0.0002 </r>
       </set>
       <set comment="band 11">
        <r>  0.0246  0.0364  0.0001  0.0000 </r>
        <r>  0.0246  0.0364  0.0001  0.0000 </r>
       </set>
       <set comment="band 12">
        <r>  0.0027  0.0001  0.0415  0.0005 </r>
        <r>  0.0027  0.0001  0.0415  0.0005 </r>
       </set>
       <set comment="band 13">
        <r>  0.0657  0.0021  0.0242  0.0243 </r>
        <r>  0.0657  0.0021  0.0242  0.0243 </r>
       </set>
       <set comment="band 14">
        <r>  0.0016  0.0378  0.1727  0.0064 </r>
        <r>  0.0016  0.0378  0.1727  0.0064 </r>
       </set>
       <set comment="band 15">
        <r>  0.0000  0.0393  0.1802  0.0060 </r>
        <r>  0.0000  0.0393  0.1802  0.0060 </r>
       </set>
       <set comment="band 16">
        <r>  0.0169  0.0405  0.0117  0.0232 </r>
        <r>  0.0169  0.0403  0.0117  0.0232 </r>
       </set>
      </set>
      <set comment="kpoint 150">
       <set comment="band 1">
        <r>  0.3351  0.0151  0.0002  0.0007 </r>
        <r>  0.3351  0.0151  0.0002  0.0007 </r>
       </set>
       <set comment="band 2">
        <r>  0.3556  0.0310  0.0012  0.0003 </r>
        <r>  0.3556  0.0310  0.0012  0.0003 </r>
       </set>
       <set comment="band 3">
        <r>  0.0080  0.2687  0.0029  0.0022 </r>
        <r>  0.0080  0.2687  0.0029  0.0022 </r>
       </set>
       <set comment="band 4">
        <r>  0.0000  0.3818  0.0241  0.0047 </r>
        <r>  0.0000  0.3818  0.0241  0.0047 </r>
       </set>
       <set comment="band 5">
        <r>  0.0000  0.3818  0.0241  0.0047 </r>
        <r>  0.0000  0.3818  0.0241  0.0047 </r>
       </set>
       <set comment="band 6">
        <r>  0.1456  0.1632  0.0179  0.0074 </r>
        <r>  0.1456  0.1632  0.0179  0.0074 </r>
       </set>
       <set comment="band 7">
        <r>  0.0000  0.3403  0.0296  0.0055 </r>
        <r>  0.0000  0.3403  0.0296  0.0055 </r>
       </set>
       <set comment="band 8">
        <r>  0.0000  0.3403  0.0296  0.0055 </r>
        <r>  0.0000  0.3403  0.0296  0.0055 </r>
       </set>
       <set comment="band 9">
        <r>  0.0000  0.0151  0.0270  0.0012 </r>
        <r>  0.0000  0.0151  0.0270  0.0012 </r>
       </set>
       <set comment="band 10">
        <r>  0.0072  0.0244  0.0000  0.0002 </r>
        <r>  0.0072  0.0244  0.0000  0.0002 </r>
       </set>
       <set comment="band 11">
        <r>  0.0249  0.0362  0.0001  0.0000 </r>
        <r>  0.0249  0.0362  0.0001  0.0000 </r>
       </set>
       <set comment="band 12">
        <r>  0.0027  0.0000  0.0415  0.0005 </r>
        <r>  0.0027  0.0000  0.0415  0.0005 </r>
       </set>
       <set comment="band 13">
        <r>  0.0661  0.0009  0.0239  0.0242 </r>
        <r>  0.0661  0.0009  0.0239  0.0242 </r>
       </set>
       <set comment="band 14">
        <r>  0.0000  0.0397  0.1802  0.0059 </r>
        <r>  0.0000  0.0397  0.1802  0.0059 </r>
       </set>
       <set comment="band 15">
        <r>  0.0000  0.0397  0.1802  0.0059 </r>
        <r>  0.0000  0.0397  0.1802  0.0059 </r>
       </set>
       <set comment="band 16">
        <r>  0.0182  0.0394  0.0048  0.0239 </r>
        <r>  0.0182  0.0394  0.0048  0.0239 </r>
       </set>
      </set>
     </set>
    </set>
   </array>
  </projected>
 </calculation>
 <structure name="finalpos" >
  <crystal>
   <varray name="basis" >
    <v>       4.11336655       0.00000000       0.00000000 </v>
    <v>      -2.05668327       3.56227993       0.00000000 </v>
    <v>       0.00000000       0.00000000      16.00000000 </v>
   </varray>
   <i name="volume">    234.44740948 </i>
   <varray name="rec_basis" >
    <v>       0.24310987       0.14035955       0.00000000 </v>
    <v>       0.00000000       0.28071910       0.00000000 </v>
    <v>       0.00000000       0.00000000       0.06250000 </v>
   </varray>
  </crystal>
  <varray name="positions" >
   <v>       0.66666667       0.33333333       0.44862540 </v>
   <v>       0.33333333       0.66666667       0.55137460 </v>
  </varray>
 </structure>
</modeling>
