   2   2   1   0
  0.3647508E+02  0.2294499E-09  0.2294499E-09  0.1600000E-08  0.5000000E-15
  1.000000000000000E-004
  CAR 
 unknown system                          
     17.96122165    -32.32488184 6001     -5.12003437      1.00000000
    -32.325  0.0000E+00  0.0000E+00
    -32.317  0.0000E+00  0.0000E+00
    -32.308  0.0000E+00  0.0000E+00
    -32.300  0.0000E+00  0.0000E+00
    -32.291  0.0000E+00  0.0000E+00
    -32.283  0.0000E+00  0.0000E+00
    -32.275  0.0000E+00  0.0000E+00
    -32.266  0.0000E+00  0.0000E+00
    -32.258  0.0000E+00  0.0000E+00
    -32.249  0.0000E+00  0.0000E+00
    -32.241  0.0000E+00  0.0000E+00
    -32.233  0.0000E+00  0.0000E+00
    -32.224  0.0000E+00  0.0000E+00
    -32.216  0.0000E+00  0.0000E+00
    -32.208  0.0000E+00  0.0000E+00
    -32.199  0.0000E+00  0.0000E+00
    -32.191  0.0000E+00  0.0000E+00
    -32.182  0.0000E+00  0.0000E+00
    -32.174  0.0000E+00  0.0000E+00
    -32.166  0.0000E+00  0.0000E+00
    -32.157  0.0000E+00  0.0000E+00
    -32.149  0.0000E+00  0.0000E+00
    -32.140  0.0000E+00  0.0000E+00
    -32.132  0.0000E+00  0.0000E+00
    -32.124  0.0000E+00  0.0000E+00
    -32.115  0.0000E+00  0.0000E+00
    -32.107  0.0000E+00  0.0000E+00
    -32.099  0.0000E+00  0.0000E+00
    -32.090  0.0000E+00  0.0000E+00
    -32.082  0.0000E+00  0.0000E+00
    -32.073  0.0000E+00  0.0000E+00
    -32.065  0.0000E+00  0.0000E+00
    -32.057  0.0000E+00  0.0000E+00
    -32.048  0.0000E+00  0.0000E+00
    -32.040  0.0000E+00  0.0000E+00
    -32.032  0.0000E+00  0.0000E+00
    -32.023  0.0000E+00  0.0000E+00
    -32.015  0.0000E+00  0.0000E+00
    -32.006  0.0000E+00  0.0000E+00
    -31.998  0.0000E+00  0.0000E+00
    -31.990  0.0000E+00  0.0000E+00
    -31.981  0.0000E+00  0.0000E+00
    -31.973  0.0000E+00  0.0000E+00
    -31.964  0.0000E+00  0.0000E+00
    -31.956  0.0000E+00  0.0000E+00
    -31.948  0.0000E+00  0.0000E+00
    -31.939  0.0000E+00  0.0000E+00
    -31.931  0.0000E+00  0.0000E+00
    -31.923  0.0000E+00  0.0000E+00
    -31.914  0.0000E+00  0.0000E+00
    -31.906  0.0000E+00  0.0000E+00
    -31.897  0.0000E+00  0.0000E+00
    -31.889  0.0000E+00  0.0000E+00
    -31.881  0.0000E+00  0.0000E+00
    -31.872  0.0000E+00  0.0000E+00
    -31.864  0.0000E+00  0.0000E+00
    -31.856  0.0000E+00  0.0000E+00
    -31.847  0.0000E+00  0.0000E+00
    -31.839  0.0000E+00  0.0000E+00
    -31.830  0.0000E+00  0.0000E+00
    -31.822  0.0000E+00  0.0000E+00
    -31.814  0.0000E+00  0.0000E+00
    -31.805  0.0000E+00  0.0000E+00
    -31.797  0.0000E+00  0.0000E+00
    -31.788  0.0000E+00  0.0000E+00
    -31.780  0.0000E+00  0.0000E+00
    -31.772  0.0000E+00  0.0000E+00
    -31.763  0.0000E+00  0.0000E+00
    -31.755  0.0000E+00  0.0000E+00
    -31.747  0.0000E+00  0.0000E+00
    -31.738  0.0000E+00  0.0000E+00
    -31.730  0.0000E+00  0.0000E+00
    -31.721  0.0000E+00  0.0000E+00
    -31.713  0.0000E+00  0.0000E+00
    -31.705  0.0000E+00  0.0000E+00
    -31.696  0.0000E+00  0.0000E+00
    -31.688  0.0000E+00  0.0000E+00
    -31.680  0.0000E+00  0.0000E+00
    -31.671  0.0000E+00  0.0000E+00
    -31.663  0.0000E+00  0.0000E+00
    -31.654  0.0000E+00  0.0000E+00
    -31.646  0.0000E+00  0.0000E+00
    -31.638  0.0000E+00  0.0000E+00
    -31.629  0.0000E+00  0.0000E+00
    -31.621  0.0000E+00  0.0000E+00
    -31.612  0.0000E+00  0.0000E+00
    -31.604  0.0000E+00  0.0000E+00
    -31.596  0.0000E+00  0.0000E+00
    -31.587  0.0000E+00  0.0000E+00
    -31.579  0.0000E+00  0.0000E+00
    -31.571  0.0000E+00  0.0000E+00
    -31.562  0.0000E+00  0.0000E+00
    -31.554  0.0000E+00  0.0000E+00
    -31.545  0.0000E+00  0.0000E+00
    -31.537  0.0000E+00  0.0000E+00
    -31.529  0.0000E+00  0.0000E+00
    -31.520  0.0000E+00  0.0000E+00
    -31.512  0.0000E+00  0.0000E+00
    -31.504  0.0000E+00  0.0000E+00
    -31.495  0.0000E+00  0.0000E+00
    -31.487  0.0000E+00  0.0000E+00
    -31.478  0.0000E+00  0.0000E+00
    -31.470  0.0000E+00  0.0000E+00
    -31.462  0.0000E+00  0.0000E+00
    -31.453  0.0000E+00  0.0000E+00
    -31.445  0.0000E+00  0.0000E+00
    -31.436  0.0000E+00  0.0000E+00
    -31.428  0.0000E+00  0.0000E+00
    -31.420  0.0000E+00  0.0000E+00
    -31.411  0.0000E+00  0.0000E+00
    -31.403  0.0000E+00  0.0000E+00
    -31.395  0.0000E+00  0.0000E+00
    -31.386  0.0000E+00  0.0000E+00
    -31.378  0.0000E+00  0.0000E+00
    -31.369  0.0000E+00  0.0000E+00
    -31.361  0.0000E+00  0.0000E+00
    -31.353  0.0000E+00  0.0000E+00
    -31.344  0.0000E+00  0.0000E+00
    -31.336  0.0000E+00  0.0000E+00
    -31.328  0.0000E+00  0.0000E+00
    -31.319  0.0000E+00  0.0000E+00
    -31.311  0.0000E+00  0.0000E+00
    -31.302  0.0000E+00  0.0000E+00
    -31.294  0.0000E+00  0.0000E+00
    -31.286  0.0000E+00  0.0000E+00
    -31.277  0.0000E+00  0.0000E+00
    -31.269  0.0000E+00  0.0000E+00
    -31.260  0.0000E+00  0.0000E+00
    -31.252  0.0000E+00  0.0000E+00
    -31.244  0.0000E+00  0.0000E+00
    -31.235  0.0000E+00  0.0000E+00
    -31.227  0.0000E+00  0.0000E+00
    -31.219  0.0000E+00  0.0000E+00
    -31.210  0.0000E+00  0.0000E+00
    -31.202  0.0000E+00  0.0000E+00
    -31.193  0.0000E+00  0.0000E+00
    -31.185  0.0000E+00  0.0000E+00
    -31.177  0.0000E+00  0.0000E+00
    -31.168  0.0000E+00  0.0000E+00
    -31.160  0.0000E+00  0.0000E+00
    -31.152  0.0000E+00  0.0000E+00
    -31.143  0.0000E+00  0.0000E+00
    -31.135  0.0000E+00  0.0000E+00
    -31.126  0.0000E+00  0.0000E+00
    -31.118  0.0000E+00  0.0000E+00
    -31.110  0.0000E+00  0.0000E+00
    -31.101  0.0000E+00  0.0000E+00
    -31.093  0.0000E+00  0.0000E+00
    -31.084  0.0000E+00  0.0000E+00
    -31.076  0.0000E+00  0.0000E+00
    -31.068  0.0000E+00  0.0000E+00
    -31.059  0.0000E+00  0.0000E+00
    -31.051  0.0000E+00  0.0000E+00
    -31.043  0.0000E+00  0.0000E+00
    -31.034  0.0000E+00  0.0000E+00
    -31.026  0.0000E+00  0.0000E+00
    -31.017  0.0000E+00  0.0000E+00
    -31.009  0.0000E+00  0.0000E+00
    -31.001  0.0000E+00  0.0000E+00
    -30.992  0.0000E+00  0.0000E+00
    -30.984  0.0000E+00  0.0000E+00
    -30.976  0.0000E+00  0.0000E+00
    -30.967  0.0000E+00  0.0000E+00
    -30.959  0.0000E+00  0.0000E+00
    -30.950  0.0000E+00  0.0000E+00
    -30.942  0.0000E+00  0.0000E+00
    -30.934  0.0000E+00  0.0000E+00
    -30.925  0.0000E+00  0.0000E+00
    -30.917  0.0000E+00  0.0000E+00
    -30.908  0.0000E+00  0.0000E+00
    -30.900  0.0000E+00  0.0000E+00
    -30.892  0.0000E+00  0.0000E+00
    -30.883  0.0000E+00  0.0000E+00
    -30.875  0.0000E+00  0.0000E+00
    -30.867  0.0000E+00  0.0000E+00
    -30.858  0.0000E+00  0.0000E+00
    -30.850  0.0000E+00  0.0000E+00
    -30.841  0.0000E+00  0.0000E+00
    -30.833  0.0000E+00  0.0000E+00
    -30.825  0.0000E+00  0.0000E+00
    -30.816  0.0000E+00  0.0000E+00
    -30.808  0.0000E+00  0.0000E+00
    -30.800  0.0000E+00  0.0000E+00
    -30.791  0.0000E+00  0.0000E+00
    -30.783  0.0000E+00  0.0000E+00
    -30.774  0.0000E+00  0.0000E+00
    -30.766  0.0000E+00  0.0000E+00
    -30.758  0.0000E+00  0.0000E+00
    -30.749  0.0000E+00  0.0000E+00
    -30.741  0.0000E+00  0.0000E+00
    -30.732  0.0000E+00  0.0000E+00
    -30.724  0.0000E+00  0.0000E+00
    -30.716  0.0000E+00  0.0000E+00
    -30.707  0.0000E+00  0.0000E+00
    -30.699  0.0000E+00  0.0000E+00
    -30.691  0.0000E+00  0.0000E+00
    -30.682  0.0000E+00  0.0000E+00
    -30.674  0.0000E+00  0.0000E+00
    -30.665  0.0000E+00  0.0000E+00
    -30.657  0.0000E+00  0.0000E+00
    -30.649  0.0000E+00  0.0000E+00
    -30.640  0.0000E+00  0.0000E+00
    -30.632  0.0000E+00  0.0000E+00
    -30.624  0.0000E+00  0.0000E+00
    -30.615  0.0000E+00  0.0000E+00
    -30.607  0.0000E+00  0.0000E+00
    -30.598  0.0000E+00  0.0000E+00
    -30.590  0.0000E+00  0.0000E+00
    -30.582  0.0000E+00  0.0000E+00
    -30.573  0.0000E+00  0.0000E+00
    -30.565  0.0000E+00  0.0000E+00
    -30.556  0.0000E+00  0.0000E+00
    -30.548  0.0000E+00  0.0000E+00
    -30.540  0.0000E+00  0.0000E+00
    -30.531  0.0000E+00  0.0000E+00
    -30.523  0.0000E+00  0.0000E+00
    -30.515  0.0000E+00  0.0000E+00
    -30.506  0.0000E+00  0.0000E+00
    -30.498  0.0000E+00  0.0000E+00
    -30.489  0.0000E+00  0.0000E+00
    -30.481  0.0000E+00  0.0000E+00
    -30.473  0.0000E+00  0.0000E+00
    -30.464  0.0000E+00  0.0000E+00
    -30.456  0.0000E+00  0.0000E+00
    -30.448  0.0000E+00  0.0000E+00
    -30.439  0.0000E+00  0.0000E+00
    -30.431  0.0000E+00  0.0000E+00
    -30.422  0.0000E+00  0.0000E+00
    -30.414  0.0000E+00  0.0000E+00
    -30.406  0.0000E+00  0.0000E+00
    -30.397  0.0000E+00  0.0000E+00
    -30.389  0.0000E+00  0.0000E+00
    -30.380  0.0000E+00  0.0000E+00
    -30.372  0.0000E+00  0.0000E+00
    -30.364  0.0000E+00  0.0000E+00
    -30.355  0.0000E+00  0.0000E+00
    -30.347  0.0000E+00  0.0000E+00
    -30.339  0.0000E+00  0.0000E+00
    -30.330  0.0000E+00  0.0000E+00
    -30.322  0.0000E+00  0.0000E+00
    -30.313  0.0000E+00  0.0000E+00
    -30.305  0.0000E+00  0.0000E+00
    -30.297  0.0000E+00  0.0000E+00
    -30.288  0.0000E+00  0.0000E+00
    -30.280  0.0000E+00  0.0000E+00
    -30.272  0.0000E+00  0.0000E+00
    -30.263  0.0000E+00  0.0000E+00
    -30.255  0.0000E+00  0.0000E+00
    -30.246  0.0000E+00  0.0000E+00
    -30.238  0.0000E+00  0.0000E+00
    -30.230  0.0000E+00  0.0000E+00
    -30.221  0.0000E+00  0.0000E+00
    -30.213  0.0000E+00  0.0000E+00
    -30.204  0.0000E+00  0.0000E+00
    -30.196  0.0000E+00  0.0000E+00
    -30.188  0.0000E+00  0.0000E+00
    -30.179  0.0000E+00  0.0000E+00
    -30.171  0.0000E+00  0.0000E+00
    -30.163  0.0000E+00  0.0000E+00
    -30.154  0.0000E+00  0.0000E+00
    -30.146  0.0000E+00  0.0000E+00
    -30.137  0.0000E+00  0.0000E+00
    -30.129  0.0000E+00  0.0000E+00
    -30.121  0.0000E+00  0.0000E+00
    -30.112  0.0000E+00  0.0000E+00
    -30.104  0.0000E+00  0.0000E+00
    -30.096  0.4636E-15  0.3886E-17
    -30.087  0.3385E-11  0.2837E-13
    -30.079  0.6280E-08  0.5266E-10
    -30.070  0.2968E-05  0.2493E-07
    -30.062  0.3631E-03  0.3068E-05
    -30.054  0.1175E-01  0.1016E-03
    -30.045  0.1038E+00  0.9717E-03
    -30.037  0.2580E+00  0.3134E-02
    -30.028  0.1835E+00  0.4671E-02
    -30.020  0.3710E-01  0.4982E-02
    -30.012  0.2076E-02  0.5000E-02
    -30.003  0.3170E-04  0.5000E-02
    -29.995  0.1469E-03  0.5001E-02
    -29.987  0.1044E-01  0.5089E-02
    -29.978  0.1988E+00  0.6755E-02
    -29.970  0.1047E+01  0.1553E-01
    -29.961  0.1567E+01  0.2867E-01
    -29.953  0.6717E+00  0.3430E-01
    -29.945  0.8111E-01  0.3498E-01
    -29.936  0.2677E-02  0.3500E-01
    -29.928  0.2344E-04  0.3500E-01
    -29.920  0.5314E-07  0.3500E-01
    -29.911  0.3073E-10  0.3500E-01
    -29.903  0.4504E-14  0.3500E-01
    -29.894  0.0000E+00  0.3500E-01
    -29.886  0.0000E+00  0.3500E-01
    -29.878  0.2365E-13  0.3500E-01
    -29.869  0.1262E-09  0.3500E-01
    -29.861  0.1703E-06  0.3500E-01
    -29.852  0.5891E-04  0.3500E-01
    -29.844  0.5310E-02  0.3504E-01
    -29.836  0.1278E+00  0.3612E-01
    -29.827  0.8483E+00  0.4323E-01
    -29.819  0.1597E+01  0.5661E-01
    -29.811  0.8632E+00  0.6384E-01
    -29.802  0.1325E+00  0.6495E-01
    -29.794  0.5605E-02  0.6500E-01
    -29.785  0.6594E-04  0.6500E-01
    -29.777  0.4819E-03  0.6500E-01
    -29.769  0.2440E-01  0.6521E-01
    -29.760  0.3356E+00  0.6802E-01
    -29.752  0.1294E+01  0.7886E-01
    -29.744  0.1430E+01  0.9085E-01
    -29.735  0.4540E+00  0.9465E-01
    -29.727  0.4056E-01  0.9499E-01
    -29.718  0.9876E-03  0.9500E-01
    -29.710  0.6368E-05  0.9500E-01
    -29.702  0.1064E-07  0.9500E-01
    -29.693  0.4540E-11  0.9500E-01
    -29.685  0.5299E-15  0.9500E-01
    -29.676  0.0000E+00  0.9500E-01
    -29.668  0.0000E+00  0.9500E-01
    -29.660  0.0000E+00  0.9500E-01
    -29.651  0.0000E+00  0.9500E-01
    -29.643  0.0000E+00  0.9500E-01
    -29.635  0.0000E+00  0.9500E-01
    -29.626  0.0000E+00  0.9500E-01
    -29.618  0.0000E+00  0.9500E-01
    -29.609  0.0000E+00  0.9500E-01
    -29.601  0.0000E+00  0.9500E-01
    -29.593  0.6756E-14  0.9500E-01
    -29.584  0.4586E-10  0.9500E-01
    -29.576  0.8018E-07  0.9500E-01
    -29.568  0.3619E-04  0.9500E-01
    -29.559  0.4288E-02  0.9504E-01
    -29.551  0.1367E+00  0.9618E-01
    -29.542  0.1208E+01  0.1063E+00
    -29.534  0.3054E+01  0.1319E+00
    -29.526  0.2248E+01  0.1507E+00
    -29.517  0.4788E+00  0.1548E+00
    -29.509  0.2879E-01  0.1550E+00
    -29.500  0.4739E-03  0.1550E+00
    -29.492  0.2077E-05  0.1550E+00
    -29.484  0.2378E-08  0.1550E+00
    -29.475  0.7005E-12  0.1550E+00
    -29.467  0.0000E+00  0.1550E+00
    -29.459  0.0000E+00  0.1550E+00
    -29.450  0.2914E-14  0.1550E+00
    -29.442  0.1944E-10  0.1550E+00
    -29.433  0.3333E-07  0.1550E+00
    -29.425  0.1496E-04  0.1550E+00
    -29.417  0.1794E-02  0.1550E+00
    -29.408  0.5900E-01  0.1555E+00
    -29.400  0.5487E+00  0.1601E+00
    -29.392  0.1485E+01  0.1726E+00
    -29.383  0.1188E+01  0.1825E+00
    -29.375  0.2785E+00  0.1848E+00
    -29.366  0.1862E-01  0.1850E+00
    -29.358  0.3429E-03  0.1850E+00
    -29.350  0.1685E-05  0.1850E+00
    -29.341  0.2157E-08  0.1850E+00
    -29.333  0.7079E-12  0.1850E+00
    -29.324  0.0000E+00  0.1850E+00
    -29.316  0.0000E+00  0.1850E+00
    -29.308  0.0000E+00  0.1850E+00
    -29.299  0.0000E+00  0.1850E+00
    -29.291  0.0000E+00  0.1850E+00
    -29.283  0.0000E+00  0.1850E+00
    -29.274  0.0000E+00  0.1850E+00
    -29.266  0.0000E+00  0.1850E+00
    -29.257  0.0000E+00  0.1850E+00
    -29.249  0.0000E+00  0.1850E+00
    -29.241  0.0000E+00  0.1850E+00
    -29.232  0.2068E-12  0.1850E+00
    -29.224  0.7519E-09  0.1850E+00
    -29.216  0.7001E-06  0.1850E+00
    -29.207  0.1697E-03  0.1850E+00
    -29.199  0.1098E-01  0.1851E+00
    -29.190  0.1963E+00  0.1867E+00
    -29.182  0.1009E+01  0.1952E+00
    -29.174  0.1544E+01  0.2081E+00
    -29.165  0.7155E+00  0.2141E+00
    -29.157  0.9950E-01  0.2150E+00
    -29.148  0.4038E-02  0.2150E+00
    -29.140  0.7996E-04  0.2150E+00
    -29.132  0.3778E-02  0.2150E+00
    -29.123  0.1177E+00  0.2160E+00
    -29.115  0.1064E+01  0.2249E+00
    -29.107  0.2894E+01  0.2492E+00
    -29.098  0.2417E+01  0.2694E+00
    -29.090  0.6157E+00  0.2746E+00
    -29.081  0.4643E-01  0.2750E+00
    -29.073  0.9956E-03  0.2750E+00
    -29.065  0.5840E-05  0.2750E+00
    -29.056  0.9093E-08  0.2750E+00
    -29.048  0.3677E-11  0.2750E+00
    -29.040  0.3974E-15  0.2750E+00
    -29.031  0.0000E+00  0.2750E+00
    -29.023  0.0000E+00  0.2750E+00
    -29.014  0.0000E+00  0.2750E+00
    -29.006  0.0000E+00  0.2750E+00
    -28.998  0.0000E+00  0.2750E+00
    -28.989  0.0000E+00  0.2750E+00
    -28.981  0.0000E+00  0.2750E+00
    -28.972  0.0000E+00  0.2750E+00
    -28.964  0.0000E+00  0.2750E+00
    -28.956  0.2649E-15  0.2750E+00
    -28.947  0.2154E-11  0.2750E+00
    -28.939  0.4912E-08  0.2750E+00
    -28.931  0.2894E-05  0.2750E+00
    -28.922  0.4546E-03  0.2750E+00
    -28.914  0.1997E-01  0.2752E+00
    -28.905  0.2619E+00  0.2774E+00
    -28.897  0.1088E+01  0.2865E+00
    -28.889  0.1476E+01  0.2989E+00
    -28.880  0.6435E+00  0.3043E+00
    -28.872  0.8603E-01  0.3050E+00
    -28.864  0.3327E-02  0.3050E+00
    -28.855  0.3537E-04  0.3050E+00
    -28.847  0.9964E-07  0.3050E+00
    -28.838  0.7266E-10  0.3050E+00
    -28.830  0.1351E-13  0.3050E+00
    -28.822  0.0000E+00  0.3050E+00
    -28.813  0.0000E+00  0.3050E+00
    -28.805  0.0000E+00  0.3050E+00
    -28.796  0.0000E+00  0.3050E+00
    -28.788  0.0000E+00  0.3050E+00
    -28.780  0.0000E+00  0.3050E+00
    -28.771  0.0000E+00  0.3050E+00
    -28.763  0.0000E+00  0.3050E+00
    -28.755  0.0000E+00  0.3050E+00
    -28.746  0.0000E+00  0.3050E+00
    -28.738  0.1417E-12  0.3050E+00
    -28.729  0.5726E-09  0.3050E+00
    -28.721  0.5964E-06  0.3050E+00
    -28.713  0.1629E-03  0.3050E+00
    -28.704  0.1198E-01  0.3051E+00
    -28.696  0.2476E+00  0.3072E+00
    -28.688  0.1522E+01  0.3199E+00
    -28.679  0.2974E+01  0.3449E+00
    -28.671  0.1945E+01  0.3612E+00
    -28.662  0.4281E+00  0.3647E+00
    -28.654  0.3025E-01  0.3650E+00
    -28.646  0.6357E-03  0.3650E+00
    -28.637  0.3708E-05  0.3650E+00
    -28.629  0.5730E-08  0.3650E+00
    -28.620  0.2281E-11  0.3650E+00
    -28.612  0.1325E-15  0.3650E+00
    -28.604  0.3312E-15  0.3650E+00
    -28.595  0.3012E-11  0.3650E+00
    -28.587  0.7169E-08  0.3650E+00
    -28.579  0.4387E-05  0.3650E+00
    -28.570  0.7080E-03  0.3650E+00
    -28.562  0.3155E-01  0.3653E+00
    -28.553  0.4194E+00  0.3688E+00
    -28.545  0.1842E+01  0.3842E+00
    -28.537  0.2900E+01  0.4085E+00
    -28.528  0.1638E+01  0.4223E+00
    -28.520  0.3094E+00  0.4248E+00
    -28.512  0.1792E-01  0.4250E+00
    -28.503  0.2966E-03  0.4250E+00
    -28.495  0.1339E-05  0.4250E+00
    -28.486  0.1597E-08  0.4250E+00
    -28.478  0.4937E-12  0.4250E+00
    -28.470  0.0000E+00  0.4250E+00
    -28.461  0.0000E+00  0.4250E+00
    -28.453  0.0000E+00  0.4250E+00
    -28.444  0.0000E+00  0.4250E+00
    -28.436  0.0000E+00  0.4250E+00
    -28.428  0.0000E+00  0.4250E+00
    -28.419  0.0000E+00  0.4250E+00
    -28.411  0.0000E+00  0.4250E+00
    -28.403  0.0000E+00  0.4250E+00
    -28.394  0.0000E+00  0.4250E+00
    -28.386  0.0000E+00  0.4250E+00
    -28.377  0.0000E+00  0.4250E+00
    -28.369  0.0000E+00  0.4250E+00
    -28.361  0.0000E+00  0.4250E+00
    -28.352  0.0000E+00  0.4250E+00
    -28.344  0.0000E+00  0.4250E+00
    -28.336  0.0000E+00  0.4250E+00
    -28.327  0.0000E+00  0.4250E+00
    -28.319  0.1168E-12  0.4250E+00
    -28.310  0.4168E-09  0.4250E+00
    -28.302  0.3773E-06  0.4250E+00
    -28.294  0.8796E-04  0.4250E+00
    -28.285  0.5440E-02  0.4250E+00
    -28.277  0.9507E-01  0.4258E+00
    -28.268  0.5386E+00  0.4304E+00
    -28.260  0.1223E+01  0.4406E+00
    -28.252  0.1212E+01  0.4508E+00
    -28.243  0.4502E+00  0.4545E+00
    -28.235  0.5289E-01  0.4550E+00
    -28.227  0.1788E-02  0.4550E+00
    -28.218  0.1652E-04  0.4550E+00
    -28.210  0.4042E-07  0.4550E+00
    -28.201  0.2564E-10  0.4550E+00
    -28.193  0.4107E-14  0.4550E+00
    -28.185  0.0000E+00  0.4550E+00
    -28.176  0.7816E-13  0.4550E+00
    -28.168  0.3123E-09  0.4550E+00
    -28.160  0.3203E-06  0.4550E+00
    -28.151  0.8561E-04  0.4550E+00
    -28.143  0.6109E-02  0.4551E+00
    -28.134  0.1207E+00  0.4561E+00
    -28.126  0.7034E+00  0.4620E+00
    -28.118  0.1355E+01  0.4733E+00
    -28.109  0.1024E+01  0.4819E+00
    -28.101  0.3295E+00  0.4847E+00
    -28.092  0.3915E-01  0.4850E+00
    -28.084  0.1505E-02  0.4850E+00
    -28.076  0.6254E-02  0.4851E+00
    -28.067  0.1400E+00  0.4862E+00
    -28.059  0.9713E+00  0.4944E+00
    -28.051  0.2379E+01  0.5143E+00
    -28.042  0.2416E+01  0.5346E+00
    -28.034  0.1061E+01  0.5435E+00
    -28.025  0.1752E+00  0.5449E+00
    -28.017  0.9183E-02  0.5450E+00
    -28.009  0.1373E-03  0.5450E+00
    -28.000  0.5526E-06  0.5450E+00
    -27.992  0.5798E-09  0.5450E+00
    -27.984  0.1558E-12  0.5450E+00
    -27.975  0.0000E+00  0.5450E+00
    -27.967  0.0000E+00  0.5450E+00
    -27.958  0.0000E+00  0.5450E+00
    -27.950  0.0000E+00  0.5450E+00
    -27.942  0.0000E+00  0.5450E+00
    -27.933  0.0000E+00  0.5450E+00
    -27.925  0.0000E+00  0.5450E+00
    -27.916  0.0000E+00  0.5450E+00
    -27.908  0.3312E-15  0.5450E+00
    -27.900  0.3129E-11  0.5450E+00
    -27.891  0.7309E-08  0.5450E+00
    -27.883  0.4360E-05  0.5450E+00
    -27.875  0.6750E-03  0.5450E+00
    -27.866  0.2789E-01  0.5452E+00
    -27.858  0.3260E+00  0.5480E+00
    -27.849  0.1254E+01  0.5585E+00
    -27.841  0.2228E+01  0.5772E+00
    -27.833  0.2228E+01  0.5958E+00
    -27.824  0.9521E+00  0.6038E+00
    -27.816  0.1356E+00  0.6050E+00
    -27.808  0.5804E-02  0.6050E+00
    -27.799  0.7063E-04  0.6050E+00
    -27.791  0.2347E-06  0.6050E+00
    -27.782  0.2067E-09  0.6050E+00
    -27.774  0.4729E-13  0.6050E+00
    -27.766  0.0000E+00  0.6050E+00
    -27.757  0.0000E+00  0.6050E+00
    -27.749  0.0000E+00  0.6050E+00
    -27.740  0.0000E+00  0.6050E+00
    -27.732  0.0000E+00  0.6050E+00
    -27.724  0.0000E+00  0.6050E+00
    -27.715  0.0000E+00  0.6050E+00
    -27.707  0.0000E+00  0.6050E+00
    -27.699  0.0000E+00  0.6050E+00
    -27.690  0.0000E+00  0.6050E+00
    -27.682  0.0000E+00  0.6050E+00
    -27.673  0.0000E+00  0.6050E+00
    -27.665  0.0000E+00  0.6050E+00
    -27.657  0.0000E+00  0.6050E+00
    -27.648  0.0000E+00  0.6050E+00
    -27.640  0.0000E+00  0.6050E+00
    -27.632  0.0000E+00  0.6050E+00
    -27.623  0.0000E+00  0.6050E+00
    -27.615  0.0000E+00  0.6050E+00
    -27.606  0.0000E+00  0.6050E+00
    -27.598  0.0000E+00  0.6050E+00
    -27.590  0.0000E+00  0.6050E+00
    -27.581  0.0000E+00  0.6050E+00
    -27.573  0.0000E+00  0.6050E+00
    -27.564  0.1523E-14  0.6050E+00
    -27.556  0.1057E-10  0.6050E+00
    -27.548  0.1820E-07  0.6050E+00
    -27.539  0.7988E-05  0.6050E+00
    -27.531  0.9082E-03  0.6050E+00
    -27.523  0.2741E-01  0.6052E+00
    -27.514  0.2288E+00  0.6072E+00
    -27.506  0.5996E+00  0.6122E+00
    -27.497  0.8537E+00  0.6193E+00
    -27.489  0.1089E+01  0.6285E+00
    -27.481  0.6481E+00  0.6339E+00
    -27.472  0.1251E+00  0.6349E+00
    -27.464  0.7197E-02  0.6350E+00
    -27.456  0.1517E-02  0.6350E+00
    -27.447  0.5028E-01  0.6354E+00
    -27.439  0.5324E+00  0.6399E+00
    -27.430  0.1784E+01  0.6548E+00
    -27.422  0.2262E+01  0.6738E+00
    -27.414  0.1654E+01  0.6877E+00
    -27.405  0.7425E+00  0.6939E+00
    -27.397  0.1269E+00  0.6949E+00
    -27.388  0.6392E-02  0.6950E+00
    -27.380  0.8752E-04  0.6950E+00
    -27.372  0.3146E-06  0.6950E+00
    -27.363  0.2909E-09  0.6950E+00
    -27.355  0.8014E-13  0.6950E+00
    -27.347  0.6288E-10  0.6950E+00
    -27.338  0.8576E-07  0.6950E+00
    -27.330  0.3035E-04  0.6950E+00
    -27.321  0.2847E-02  0.6950E+00
    -27.313  0.7331E-01  0.6956E+00
    -27.305  0.5530E+00  0.7003E+00
    -27.296  0.1435E+01  0.7123E+00
    -27.288  0.1915E+01  0.7284E+00
    -27.280  0.1895E+01  0.7442E+00
    -27.271  0.1047E+01  0.7530E+00
    -27.263  0.2222E+00  0.7549E+00
    -27.254  0.1505E-01  0.7550E+00
    -27.246  0.2950E-03  0.7550E+00
    -27.238  0.1582E-05  0.7550E+00
    -27.229  0.2239E-08  0.7550E+00
    -27.221  0.8185E-12  0.7550E+00
    -27.212  0.0000E+00  0.7550E+00
    -27.204  0.0000E+00  0.7550E+00
    -27.196  0.0000E+00  0.7550E+00
    -27.187  0.0000E+00  0.7550E+00
    -27.179  0.0000E+00  0.7550E+00
    -27.171  0.0000E+00  0.7550E+00
    -27.162  0.0000E+00  0.7550E+00
    -27.154  0.0000E+00  0.7550E+00
    -27.145  0.0000E+00  0.7550E+00
    -27.137  0.0000E+00  0.7550E+00
    -27.129  0.0000E+00  0.7550E+00
    -27.120  0.0000E+00  0.7550E+00
    -27.112  0.0000E+00  0.7550E+00
    -27.104  0.0000E+00  0.7550E+00
    -27.095  0.0000E+00  0.7550E+00
    -27.087  0.1455E-12  0.7550E+00
    -27.078  0.5480E-09  0.7550E+00
    -27.070  0.5260E-06  0.7550E+00
    -27.062  0.1303E-03  0.7550E+00
    -27.053  0.8493E-02  0.7551E+00
    -27.045  0.1496E+00  0.7563E+00
    -27.036  0.7398E+00  0.7625E+00
    -27.028  0.1155E+01  0.7722E+00
    -27.020  0.1223E+01  0.7825E+00
    -27.011  0.1885E+01  0.7983E+00
    -27.003  0.1518E+01  0.8110E+00
    -26.995  0.4376E+00  0.8146E+00
    -26.986  0.4137E-01  0.8150E+00
    -26.978  0.1190E-02  0.8150E+00
    -26.969  0.9754E-05  0.8150E+00
    -26.961  0.2162E-07  0.8150E+00
    -26.953  0.1252E-10  0.8150E+00
    -26.944  0.1855E-14  0.8150E+00
    -26.936  0.0000E+00  0.8150E+00
    -26.928  0.0000E+00  0.8150E+00
    -26.919  0.0000E+00  0.8150E+00
    -26.911  0.0000E+00  0.8150E+00
    -26.902  0.0000E+00  0.8150E+00
    -26.894  0.0000E+00  0.8150E+00
    -26.886  0.0000E+00  0.8150E+00
    -26.877  0.0000E+00  0.8150E+00
    -26.869  0.0000E+00  0.8150E+00
    -26.860  0.0000E+00  0.8150E+00
    -26.852  0.0000E+00  0.8150E+00
    -26.844  0.0000E+00  0.8150E+00
    -26.835  0.0000E+00  0.8150E+00
    -26.827  0.0000E+00  0.8150E+00
    -26.819  0.0000E+00  0.8150E+00
    -26.810  0.0000E+00  0.8150E+00
    -26.802  0.0000E+00  0.8150E+00
    -26.793  0.0000E+00  0.8150E+00
    -26.785  0.0000E+00  0.8150E+00
    -26.777  0.0000E+00  0.8150E+00
    -26.768  0.0000E+00  0.8150E+00
    -26.760  0.0000E+00  0.8150E+00
    -26.752  0.0000E+00  0.8150E+00
    -26.743  0.6623E-16  0.8150E+00
    -26.735  0.4193E-12  0.8150E+00
    -26.726  0.1233E-08  0.8150E+00
    -26.718  0.9262E-06  0.8150E+00
    -26.710  0.1818E-03  0.8150E+00
    -26.701  0.9662E-02  0.8151E+00
    -26.693  0.1465E+00  0.8163E+00
    -26.684  0.6759E+00  0.8220E+00
    -26.676  0.1019E+01  0.8305E+00
    -26.668  0.6773E+00  0.8362E+00
    -26.659  0.5862E+00  0.8411E+00
    -26.651  0.4349E+00  0.8448E+00
    -26.643  0.3984E+00  0.8481E+00
    -26.634  0.6328E+00  0.8534E+00
    -26.626  0.9339E+00  0.8612E+00
    -26.617  0.1871E+01  0.8769E+00
    -26.609  0.2497E+01  0.8978E+00
    -26.601  0.2129E+01  0.9157E+00
    -26.592  0.1498E+01  0.9282E+00
    -26.584  0.6848E+00  0.9340E+00
    -26.576  0.1173E+00  0.9349E+00
    -26.567  0.6015E-02  0.9350E+00
    -26.559  0.8574E-04  0.9350E+00
    -26.550  0.3274E-06  0.9350E+00
    -26.542  0.3267E-09  0.9350E+00
    -26.534  0.8372E-13  0.9350E+00
    -26.525  0.0000E+00  0.9350E+00
    -26.517  0.0000E+00  0.9350E+00
    -26.508  0.0000E+00  0.9350E+00
    -26.500  0.0000E+00  0.9350E+00
    -26.492  0.2649E-15  0.9350E+00
    -26.483  0.2559E-11  0.9350E+00
    -26.475  0.5850E-08  0.9350E+00
    -26.467  0.3454E-05  0.9350E+00
    -26.458  0.5370E-03  0.9350E+00
    -26.450  0.2258E-01  0.9352E+00
    -26.441  0.2655E+00  0.9374E+00
    -26.433  0.9074E+00  0.9450E+00
    -26.425  0.1008E+01  0.9535E+00
    -26.416  0.8221E+00  0.9604E+00
    -26.408  0.1290E+01  0.9712E+00
    -26.400  0.1577E+01  0.9844E+00
    -26.391  0.9891E+00  0.9927E+00
    -26.383  0.2541E+00  0.9948E+00
    -26.374  0.2238E-01  0.9950E+00
    -26.366  0.5919E-03  0.9950E+00
    -26.358  0.4321E-05  0.9950E+00
    -26.349  0.8303E-08  0.9950E+00
    -26.341  0.4092E-11  0.9950E+00
    -26.332  0.5299E-15  0.9950E+00
    -26.324  0.0000E+00  0.9950E+00
    -26.316  0.0000E+00  0.9950E+00
    -26.307  0.0000E+00  0.9950E+00
    -26.299  0.0000E+00  0.9950E+00
    -26.291  0.0000E+00  0.9950E+00
    -26.282  0.0000E+00  0.9950E+00
    -26.274  0.0000E+00  0.9950E+00
    -26.265  0.0000E+00  0.9950E+00
    -26.257  0.0000E+00  0.9950E+00
    -26.249  0.0000E+00  0.9950E+00
    -26.240  0.0000E+00  0.9950E+00
    -26.232  0.0000E+00  0.9950E+00
    -26.224  0.0000E+00  0.9950E+00
    -26.215  0.0000E+00  0.9950E+00
    -26.207  0.0000E+00  0.9950E+00
    -26.198  0.0000E+00  0.9950E+00
    -26.190  0.0000E+00  0.9950E+00
    -26.182  0.0000E+00  0.9950E+00
    -26.173  0.2314E-12  0.9950E+00
    -26.165  0.8048E-09  0.9950E+00
    -26.156  0.7154E-06  0.9950E+00
    -26.148  0.1647E-03  0.9950E+00
    -26.140  0.1002E-01  0.9951E+00
    -26.131  0.1653E+00  0.9965E+00
    -26.123  0.7639E+00  0.1003E+01
    -26.115  0.1015E+01  0.1011E+01
    -26.106  0.4048E+00  0.1015E+01
    -26.098  0.2395E+00  0.1017E+01
    -26.089  0.8578E+00  0.1024E+01
    -26.081  0.1598E+01  0.1037E+01
    -26.073  0.1442E+01  0.1049E+01
    -26.064  0.5745E+00  0.1054E+01
    -26.056  0.8443E-01  0.1055E+01
    -26.047  0.3939E-02  0.1055E+01
    -26.039  0.5267E-04  0.1055E+01
    -26.031  0.1896E-06  0.1055E+01
    -26.022  0.1774E-09  0.1055E+01
    -26.014  0.4239E-13  0.1055E+01
    -26.006  0.0000E+00  0.1055E+01
    -25.997  0.0000E+00  0.1055E+01
    -25.989  0.0000E+00  0.1055E+01
    -25.980  0.0000E+00  0.1055E+01
    -25.972  0.0000E+00  0.1055E+01
    -25.964  0.0000E+00  0.1055E+01
    -25.955  0.0000E+00  0.1055E+01
    -25.947  0.0000E+00  0.1055E+01
    -25.939  0.0000E+00  0.1055E+01
    -25.930  0.0000E+00  0.1055E+01
    -25.922  0.0000E+00  0.1055E+01
    -25.913  0.0000E+00  0.1055E+01
    -25.905  0.0000E+00  0.1055E+01
    -25.897  0.0000E+00  0.1055E+01
    -25.888  0.0000E+00  0.1055E+01
    -25.880  0.1673E-12  0.1055E+01
    -25.871  0.5660E-09  0.1055E+01
    -25.863  0.4875E-06  0.1055E+01
    -25.855  0.1093E-03  0.1055E+01
    -25.846  0.6641E-02  0.1055E+01
    -25.838  0.1183E+00  0.1056E+01
    -25.830  0.6974E+00  0.1062E+01
    -25.821  0.1561E+01  0.1075E+01
    -25.813  0.1521E+01  0.1088E+01
    -25.804  0.7755E+00  0.1094E+01
    -25.796  0.6260E+00  0.1099E+01
    -25.788  0.1055E+01  0.1108E+01
    -25.779  0.6675E+00  0.1114E+01
    -25.771  0.1237E+00  0.1115E+01
    -25.763  0.6471E-02  0.1115E+01
    -25.754  0.9262E-04  0.1115E+01
    -25.746  0.2190E-04  0.1115E+01
    -25.737  0.2025E-02  0.1115E+01
    -25.729  0.5295E-01  0.1115E+01
    -25.721  0.4080E+00  0.1119E+01
    -25.712  0.9938E+00  0.1127E+01
    -25.704  0.9836E+00  0.1135E+01
    -25.695  0.1111E+01  0.1145E+01
    -25.687  0.1305E+01  0.1156E+01
    -25.679  0.1092E+01  0.1165E+01
    -25.670  0.1106E+01  0.1174E+01
    -25.662  0.9571E+00  0.1182E+01
    -25.654  0.5948E+00  0.1187E+01
    -25.645  0.6658E+00  0.1193E+01
    -25.637  0.7244E+00  0.1199E+01
    -25.628  0.5493E+00  0.1203E+01
    -25.620  0.1755E+00  0.1205E+01
    -25.612  0.1696E-01  0.1205E+01
    -25.603  0.4504E-03  0.1205E+01
    -25.595  0.3161E-05  0.1205E+01
    -25.587  0.5731E-08  0.1205E+01
    -25.578  0.2643E-11  0.1205E+01
    -25.570  0.2649E-15  0.1205E+01
    -25.561  0.0000E+00  0.1205E+01
    -25.553  0.0000E+00  0.1205E+01
    -25.545  0.2084E-12  0.1205E+01
    -25.536  0.7000E-09  0.1205E+01
    -25.528  0.6043E-06  0.1205E+01
    -25.519  0.1367E-03  0.1205E+01
    -25.511  0.8334E-02  0.1205E+01
    -25.503  0.1417E+00  0.1206E+01
    -25.494  0.6975E+00  0.1212E+01
    -25.486  0.1025E+01  0.1221E+01
    -25.478  0.4532E+00  0.1224E+01
    -25.469  0.7537E-01  0.1225E+01
    -25.461  0.1736E+00  0.1227E+01
    -25.452  0.5672E+00  0.1231E+01
    -25.444  0.9548E+00  0.1239E+01
    -25.436  0.1317E+01  0.1250E+01
    -25.427  0.1100E+01  0.1260E+01
    -25.419  0.5260E+00  0.1264E+01
    -25.411  0.1120E+00  0.1265E+01