    2    2    1    1
  0.3647508E+02  0.2294499E-09  0.2294499E-09  0.1600000E-08  0.5000000E-15
  1.000000000000000E-004
  CAR 
 unknown system                          
     10    202     16
 
  0.0000000E+00  0.0000000E+00  0.0000000E+00  0.2500000E-02
      1        -30.039150   1.000000
      2        -14.502710   1.000000
      3         -8.565437   1.000000
      4         -8.220879   1.000000
      5         -5.630234   1.000000
      6         -0.274839   0.000000
      7          0.164182   0.000000
      8          0.353890   0.000000
      9          2.077754   0.000000
     10          2.231016   0.000000
     11          3.310081   0.000000
     12          4.299293   0.000000
     13          6.117261   0.000000
     14          7.729357   0.000000
     15         10.129328   0.000000
     16         12.518433   0.000000
 
  0.5000000E-01  0.0000000E+00  0.0000000E+00  0.5000000E-02
      1        -29.967061   1.000000
      2        -14.436422   1.000000
      3         -8.905189   1.000000
      4         -8.410001   1.000000
      5         -5.595493   1.000000
      6         -0.234260   0.000000
      7          0.227050   0.000000
      8          0.614362   0.000000
      9          2.171137   0.000000
     10          2.322329   0.000000
     11          3.399269   0.000000
     12          4.392131   0.000000
     13          6.198864   0.000000
     14          7.819610   0.000000
     15         10.199928   0.000000
     16         12.603000   0.000000
 
  0.0000000E+00  0.5000000E-01  0.0000000E+00  0.5000000E-02
      1        -29.967272   1.000000
      2        -14.436533   1.000000
      3         -8.701867   1.000000
      4         -8.618120   1.000000
      5         -5.594637   1.000000
      6         -0.249575   0.000000
      7          0.302044   0.000000
      8          0.554160   0.000000
      9          2.170921   0.000000
     10          2.321982   0.000000
     11          3.399033   0.000000
     12          4.392094   0.000000
     13          6.198703   0.000000
     14          7.819563   0.000000
     15         10.199843   0.000000
     16         12.602875   0.000000
 
 -0.5000000E-01  0.5000000E-01  0.0000000E+00  0.5000000E-02
      1        -29.967003   1.000000
      2        -14.436392   1.000000
      3         -8.934727   1.000000
      4         -8.379348   1.000000
      5         -5.595885   1.000000
      6         -0.202166   0.000000
      7          0.163113   0.000000
      8          0.646712   0.000000
      9          2.171199   0.000000
     10          2.322431   0.000000
     11          3.399335   0.000000
     12          4.392139   0.000000
     13          6.198909   0.000000
     14          7.819621   0.000000
     15         10.199953   0.000000
     16         12.603032   0.000000
 
  0.1000000E+00  0.0000000E+00  0.0000000E+00  0.5000000E-02
      1        -29.751020   1.000000
      2        -14.239662   1.000000
      3         -9.911935   1.000000
      4         -8.796704   1.000000
      5         -5.497880   1.000000
      6         -0.316217   0.000000
      7          0.495381   0.000000
      8          1.325588   0.000000
      9          2.450538   0.000000
     10          2.596628   0.000000
     11          3.667044   0.000000
     12          4.670249   0.000000
     13          6.443132   0.000000
     14          8.089686   0.000000
     15         10.409325   0.000000
     16         12.854186   0.000000
 
  0.0000000E+00  0.1000000E+00  0.0000000E+00  0.5000000E-02
      1        -29.751915   1.000000
      2        -14.240058   1.000000
      3         -9.709809   1.000000
      4         -9.008914   1.000000
      5         -5.494782   1.000000
      6         -0.376935   0.000000
      7          0.661031   0.000000
      8          1.210053   0.000000
      9          2.449602   0.000000
     10          2.595117   0.000000
     11          3.666128   0.000000
     12          4.670111   0.000000
     13          6.442543   0.000000
     14          8.089499   0.000000
     15         10.409177   0.000000
     16         12.853641   0.000000
 
 -0.1000000E+00  0.1000000E+00  0.0000000E+00  0.5000000E-02
      1        -29.750772   1.000000
      2        -14.239554   1.000000
      3         -9.953997   1.000000
      4         -8.752488   1.000000
      5         -5.499117   1.000000
      6         -0.267651   0.000000
      7          0.410960   0.000000
      8          1.365318   0.000000
      9          2.450809   0.000000
     10          2.597120   0.000000
     11          3.667311   0.000000
     12          4.670279   0.000000
     13          6.443294   0.000000
     14          8.089729   0.000000
     15         10.409364   0.000000
     16         12.854324   0.000000
 
  0.1500000E+00  0.0000000E+00  0.0000000E+00  0.5000000E-02
      1        -29.392546   1.000000
      2        -13.923747   1.000000
      3        -11.312665   1.000000
      4         -9.293214   1.000000
      5         -5.363174   1.000000
      6         -0.571298   0.000000
      7          0.981174   0.000000
      8          2.153687   0.000000
      9          2.911706   0.000000
     10          3.061427   0.000000
     11          4.116251   0.000000
     12          5.132620   0.000000
     13          6.849874   0.000000
     14          8.537608   0.000000
     15         10.752071   0.000000
     16         13.262760   0.000000
 
  0.0000000E+00  0.1500000E+00  0.0000000E+00  0.5000000E-02
      1        -29.394727   1.000000
      2        -13.923952   1.000000
      3        -11.144146   1.000000
      4         -9.471138   1.000000
      5         -5.356426   1.000000
      6         -0.642322   0.000000
      7          1.151556   0.000000
      8          2.019962   0.000000
      9          2.910034   0.000000
     10          3.056063   0.000000
     11          4.113954   0.000000
     12          5.132382   0.000000
     13          6.848636   0.000000
     14          8.537217   0.000000
     15         10.752430   0.000000
     16         13.261412   0.000000
 
 -0.1500000E+00  0.1500000E+00  0.0000000E+00  0.5000000E-02
      1        -29.391942   1.000000
      2        -13.923699   1.000000
      3        -11.353051   1.000000
      4         -9.251236   1.000000
      5         -5.365533   1.000000
      6         -0.532957   0.000000
      7          0.913327   0.000000
      8          2.193703   0.000000
      9          2.912159   0.000000
     10          3.063405   0.000000
     11          4.116962   0.000000
     12          5.132668   0.000000
     13          6.850214   0.000000
     14          8.537696   0.000000
     15         10.751945   0.000000
     16         13.263105   0.000000
 
  0.2000000E+00  0.0000000E+00  0.0000000E+00  0.5000000E-02
      1        -28.893787   1.000000
      2        -13.606101   1.000000
      3        -12.781304   1.000000
      4         -9.836229   1.000000
      5         -5.240965   1.000000
      6         -0.872676   0.000000
      7          1.525494   0.000000
      8          2.817185   0.000000
      9          3.551281   0.000000
     10          3.726787   0.000000
     11          4.752681   0.000000
     12          5.778648   0.000000
     13          7.421710   0.000000
     14          9.160701   0.000000
     15         11.224865   0.000000
     16         13.805748   0.000000
 
  0.0000000E+00  0.2000000E+00  0.0000000E+00  0.5000000E-02
      1        -28.898164   1.000000
      2        -13.583386   1.000000
      3        -12.657012   1.000000
      4         -9.987970   1.000000
      5         -5.228369   1.000000
      6         -0.944120   0.000000
      7          1.678054   0.000000
      8          2.670356   0.000000
      9          3.550541   0.000000
     10          3.712910   0.000000
     11          4.747600   0.000000
     12          5.778442   0.000000
     13          7.419383   0.000000
     14          9.160141   0.000000
     15         11.226998   0.000000
     16         13.803546   0.000000
 
 -0.2000000E+00  0.2000000E+00  0.0000000E+00  0.5000000E-02
      1        -28.892574   1.000000
      2        -13.613219   1.000000
      3        -12.811356   1.000000
      4         -9.799030   1.000000
      5         -5.244963   1.000000
      6         -0.839927   0.000000
      7          1.471613   0.000000
      8          2.856958   0.000000
      9          3.551401   0.000000
     10          3.731831   0.000000
     11          4.754322   0.000000
     12          5.778675   0.000000
     13          7.422364   0.000000
     14          9.160820   0.000000
     15         11.224180   0.000000
     16         13.806293   0.000000
 
  0.2500000E+00  0.0000000E+00  0.0000000E+00  0.5000000E-02
      1        -28.258760   1.000000
      2        -14.718797   1.000000
      3        -12.775211   1.000000
      4        -10.365252   1.000000
      5         -5.207687   1.000000
      6         -1.125968   0.000000
      7          2.031707   0.000000
      8          3.171955   0.000000
      9          4.377407   0.000000
     10          4.560808   0.000000
     11          5.570799   0.000000
     12          6.609665   0.000000
     13          8.160672   0.000000
     14          9.956838   0.000000
     15         11.831828   0.000000
     16         14.422951   0.000000
 
  0.0000000E+00  0.2500000E+00  0.0000000E+00  0.5000000E-02
      1        -28.266771   1.000000
      2        -14.588082   1.000000
      3        -12.772855   1.000000
      4        -10.496972   1.000000
      5         -5.186169   1.000000
      6         -1.196100   0.000000
      7          2.164175   0.000000
      8          3.005104   0.000000
      9          4.377643   0.000000
     10          4.542823   0.000000
     11          5.562766   0.000000
     12          6.609591   0.000000
     13          8.156570   0.000000
     14          9.956232   0.000000
     15         11.837265   0.000000
     16         14.423663   0.000000
 
 -0.2500000E+00  0.2500000E+00  0.0000000E+00  0.5000000E-02
      1        -28.256538   1.000000
      2        -14.753056   1.000000
      3        -12.775486   1.000000
      4        -10.332535   1.000000
      5         -5.214101   1.000000
      6         -1.096035   0.000000
      7          1.989654   0.000000
      8          3.213401   0.000000
      9          4.377292   0.000000
     10          4.566804   0.000000
     11          5.573373   0.000000
     12          6.609650   0.000000
     13          8.161860   0.000000
     14          9.956953   0.000000
     15         11.830115   0.000000
     16         14.422412   0.000000
 
  0.3000000E+00  0.0000000E+00  0.0000000E+00  0.5000000E-02
      1        -27.494332   1.000000
      2        -16.365286   1.000000
      3        -12.133678   1.000000
      4        -10.839113   1.000000
      5         -5.350473   1.000000
      6         -1.259219   0.000000
      7          2.446485   0.000000
      8          3.218962   0.000000
      9          5.379712   0.000000
     10          5.546914   0.000000
     11          6.555273   0.000000
     12          7.626519   0.000000
     13          9.058071   0.000000
     14         10.923046   0.000000
     15         12.576452   0.000000
     16         14.956803   0.000000
 
  0.0000000E+00  0.3000000E+00  0.0000000E+00  0.5000000E-02
      1        -27.508540   1.000000
      2        -16.233483   1.000000
      3        -12.141024   1.000000
      4        -10.955987   1.000000
      5         -5.316712   1.000000
      6         -1.327699   0.000000
      7          2.563941   0.000000
      8          3.025245   0.000000
      9          5.380587   0.000000
     10          5.529105   0.000000
     11          6.546635   0.000000
     12          7.626462   0.000000
     13          9.052409   0.000000
     14         10.922358   0.000000
     15         12.586531   0.000000
     16         14.976666   0.000000
 
 -0.3000000E+00  0.3000000E+00  0.0000000E+00  0.5000000E-02
      1        -27.490384   1.000000
      2        -16.400222   1.000000
      3        -12.131483   1.000000
      4        -10.810019   1.000000
      5         -5.360168   1.000000
      6         -1.230582   0.000000
      7          2.415977   0.000000
      8          3.261349   0.000000
      9          5.379460   0.000000
     10          5.552449   0.000000
     11          6.557966   0.000000
     12          7.626504   0.000000
     13          9.059739   0.000000
     14         10.923172   0.000000
     15         12.573324   0.000000
     16         14.949608   0.000000
 
  0.3500000E+00 -0.2775558E-16  0.0000000E+00  0.5000000E-02
      1        -26.613753   1.000000
      2        -17.981933   1.000000
      3        -11.393090   1.000000
      4        -11.228671   1.000000
      5         -5.712346   1.000000
      6         -1.256521   0.000000
      7          2.737951   0.000000
      8          3.077815   0.000000
      9          6.525031   0.000000
     10          6.702858   0.000000
     11          7.704161   0.000000
     12          8.825662   0.000000
     13         10.094650   0.000000
     14         12.042297   0.000000
     15         13.422824   0.000000
     16         15.099972   0.000000
 
  0.0000000E+00  0.3500000E+00  0.0000000E+00  0.5000000E-02
      1        -26.639031   1.000000
      2        -17.845510   1.000000
      3        -11.407347   1.000000
      4        -11.336260   1.000000
      5         -5.663123   1.000000
      6         -1.322687   0.000000
      7          2.822437   0.000000
      8          2.880739   0.000000
      9          6.524874   0.000000
     10          6.687294   0.000000
     11          7.697231   0.000000
     12          8.825481   0.000000
     13         10.089664   0.000000
     14         12.041244   0.000000
     15         13.439968   0.000000
     16         15.125701   0.000000
 
 -0.3500000E+00  0.3500000E+00  0.0000000E+00  0.5000000E-02
      1        -26.606702   1.000000
      2        -18.018510   1.000000
      3        -11.387866   1.000000
      4        -11.202988   1.000000
      5         -5.726208   1.000000
      6         -1.228282   0.000000
      7          2.727022   0.000000
      8          3.110363   0.000000
      9          6.525044   0.000000
     10          6.707555   0.000000
     11          7.706269   0.000000
     12          8.825685   0.000000
     13         10.096127   0.000000
     14         12.042510   0.000000
     15         13.417600   0.000000
     16         15.091350   0.000000
 
  0.4000000E+00  0.0000000E+00  0.0000000E+00  0.5000000E-02
      1        -25.648666   1.000000
      2        -19.491420   1.000000
      3        -11.521709   1.000000
      4        -10.615780   1.000000
      5         -6.250395   1.000000
      6         -1.173443   0.000000
      7          2.772827   0.000000
      8          3.034827   0.000000
      9          7.753254   0.000000
     10          8.053789   0.000000
     11          9.025294   0.000000
     12         10.196214   0.000000
     13         11.235619   0.000000
     14         13.144840   0.000000
     15         13.998837   0.000000
     16         14.517008   0.000000
 
  0.0000000E+00  0.4000000E+00  0.0000000E+00  0.5000000E-02
      1        -25.695414   1.000000
      2        -19.338125   1.000000
      3        -11.620170   1.000000
      4        -10.645523   1.000000
      5         -6.181186   1.000000
      6         -1.236692   0.000000
      7          2.602374   0.000000
      8          3.064040   0.000000
      9          7.752351   0.000000
     10          8.041394   0.000000
     11          9.021492   0.000000
     12         10.195955   0.000000
     13         11.235656   0.000000
     14         13.146897   0.000000
     15         14.011560   0.000000
     16         14.522901   0.000000
 
 -0.4000000E+00  0.4000000E+00  0.0000000E+00  0.5000000E-02
      1        -25.635495   1.000000
      2        -19.533037   1.000000
      3        -11.496838   1.000000
      4        -10.607755   1.000000
      5         -6.269768   1.000000
      6         -1.145034   0.000000
      7          2.832184   0.000000
      8          3.003996   0.000000
      9          7.753405   0.000000
     10          8.057501   0.000000
     11          9.026426   0.000000
     12         10.196251   0.000000
     13         11.235603   0.000000
     14         13.144053   0.000000
     15         13.995166   0.000000
     16         14.514986   0.000000
 
  0.4500000E+00  0.0000000E+00  0.0000000E+00  0.5000000E-02
      1        -24.702205   1.000000
      2        -20.770394   1.000000
      3        -11.699261   1.000000
      4         -9.922063   1.000000
      5         -6.821151   1.000000
      6         -1.088650   0.000000
      7          2.640323   0.000000
      8          3.124132   0.000000
      9          8.990621   0.000000
     10          9.589113   0.000000
     11         10.509790   0.000000
     12         11.627390   0.000000
     13         12.121220   0.000000
     14         12.884613   0.000000
     15         13.291283   0.000000
     16         14.225548   0.000000
 
  0.0000000E+00  0.4500000E+00  0.0000000E+00  0.5000000E-02
      1        -24.792649   1.000000
      2        -20.576070   1.000000
      3        -11.793772   1.000000
      4         -9.974442   1.000000
      5         -6.724828   1.000000
      6         -1.149323   0.000000
      7          2.428841   0.000000
      8          3.175352   0.000000
      9          8.996943   0.000000
     10          9.576414   0.000000
     11         10.510488   0.000000
     12         11.632042   0.000000
     13         12.125833   0.000000
     14         12.866495   0.000000
     15         13.288708   0.000000
     16         14.227044   0.000000
 
 -0.4500000E+00  0.4500000E+00  0.0000000E+00  0.5000000E-02
      1        -24.675973   1.000000
      2        -20.824437   1.000000
      3        -11.675489   1.000000
      4         -9.907355   1.000000
      5         -6.848305   1.000000
      6         -1.059850   0.000000
      7          2.703657   0.000000
      8          3.093490   0.000000
      9          8.988578   0.000000
     10          9.592866   0.000000
     11         10.509559   0.000000
     12         11.625928   0.000000
     13         12.119902   0.000000
     14         12.890154   0.000000
     15         13.291994   0.000000
     16         14.225146   0.000000
 
  0.5000000E+00  0.0000000E+00  0.0000000E+00  0.2500000E-02
      1        -24.197427   1.000000
      2        -21.388358   1.000000
      3        -11.759545   1.000000
      4         -9.597949   1.000000
      5         -7.108425   1.000000
      6         -1.055022   0.000000
      7          2.587428   0.000000
      8          3.157821   0.000000
      9          9.790744   0.000000
     10         11.135552   0.000000
     11         11.275054   0.000000
     12         11.391904   0.000000
     13         12.224707   0.000000
     14         12.439275   0.000000
     15         13.431687   0.000000
     16         13.486921   0.000000
 
  0.0000000E+00  0.5000000E+00  0.0000000E+00  0.2500000E-02
      1        -24.334376   1.000000
      2        -21.148405   1.000000
      3        -11.852730   1.000000
      4         -9.668783   1.000000
      5         -6.992105   1.000000
      6         -1.114655   0.000000
      7          2.367167   0.000000
      8          3.211057   0.000000
      9          9.813563   0.000000
     10         11.103311   0.000000
     11         11.277012   0.000000
     12         11.389019   0.000000
     13         12.226006   0.000000
     14         12.437189   0.000000
     15         13.415171   0.000000
     16         13.499723   0.000000
 
  0.5000000E+00  0.5000000E+00  0.0000000E+00  0.2500000E-02
      1        -24.155927   1.000000
      2        -21.457458   1.000000
      3        -11.736127   1.000000
      4         -9.577581   1.000000
      5         -7.141637   1.000000
      6         -1.026024   0.000000
      7          2.650271   0.000000
      8          3.129068   0.000000
      9          9.783829   0.000000
     10         11.145076   0.000000
     11         11.274493   0.000000
     12         11.392714   0.000000
     13         12.224311   0.000000
     14         12.439971   0.000000
     15         13.436473   0.000000
     16         13.483143   0.000000
 
  0.5000000E-01  0.5000000E-01  0.0000000E+00  0.5000000E-02
      1        -29.823425   1.000000
      2        -14.304992   1.000000
      3         -9.414474   1.000000
      4         -8.868294   1.000000
      5         -5.526930   1.000000
      6         -0.225728   0.000000
      7          0.377047   0.000000
      8          1.082861   0.000000
      9          2.357065   0.000000
     10          2.503798   0.000000
     11          3.576987   0.000000
     12          4.577549   0.000000
     13          6.361304   0.000000
     14          7.999707   0.000000
     15         10.339653   0.000000
     16         12.770735   0.000000
 
 -0.5000000E-01  0.1000000E+00  0.0000000E+00  0.5000000E-02
      1        -29.823246   1.000000
      2        -14.304907   1.000000
      3         -9.480530   1.000000
      4         -8.799673   1.000000
      5         -5.527978   1.000000
      6         -0.176032   0.000000
      7          0.289132   0.000000
      8          1.123166   0.000000
      9          2.357266   0.000000
     10          2.504083   0.000000
     11          3.577184   0.000000
     12          4.577565   0.000000
     13          6.361448   0.000000
     14          7.999730   0.000000
     15         10.339733   0.000000
     16         12.770813   0.000000
 
 -0.1000000E+00  0.5000000E-01  0.0000000E+00  0.5000000E-02
      1        -29.822597   1.000000
      2        -14.304599   1.000000
      3         -9.655472   1.000000
      4         -8.613566   1.000000
      5         -5.530673   1.000000
      6         -0.099691   0.000000
      7          0.148124   0.000000
      8          1.192439   0.000000
      9          2.358019   0.000000
     10          2.505054   0.000000
     11          3.577881   0.000000
     12          4.577653   0.000000
     13          6.361965   0.000000
     14          7.999841   0.000000
     15         10.340012   0.000000
     16         12.771135   0.000000
 
  0.1000000E+00  0.5000000E-01  0.0000000E+00  0.5000000E-02
      1        -29.536494   1.000000
      2        -14.047651   1.000000
      3        -10.643747   1.000000
      4         -9.286474   1.000000
      5         -5.409333   1.000000
      6         -0.286506   0.000000
      7          0.623005   0.000000
      8          1.877308   0.000000
      9          2.727554   0.000000
     10          2.868606   0.000000
     11          3.933581   0.000000
     12          4.947864   0.000000
     13          6.685641   0.000000
     14          8.358873   0.000000
     15         10.614809   0.000000
     16         13.101678   0.000000
 
 -0.5000000E-01  0.1500000E+00  0.0000000E+00  0.5000000E-02
      1        -29.536903   1.000000
      2        -14.047776   1.000000
      3        -10.598068   1.000000
      4         -9.332452   1.000000
      5         -5.408588   1.000000
      6         -0.313444   0.000000
      7          0.653674   0.000000
      8          1.866014   0.000000
      9          2.727205   0.000000
     10          2.867438   0.000000
     11          3.933183   0.000000
     12          4.947751   0.000000
     13          6.685562   0.000000
     14          8.358713   0.000000
     15         10.615147   0.000000
     16         13.101215   0.000000
 
 -0.1500000E+00  0.1000000E+00  0.0000000E+00  0.5000000E-02
      1        -29.534866   1.000000
      2        -14.047214   1.000000
      3        -10.824968   1.000000
      4         -9.089324   1.000000
      5         -5.415741   1.000000
      6         -0.171175   0.000000
      7          0.408852   0.000000
      8          1.996528   0.000000
      9          2.729483   0.000000
     10          2.870983   0.000000
     11          3.935237   0.000000
     12          4.947937   0.000000
     13          6.686992   0.000000
     14          8.358995   0.000000
     15         10.615514   0.000000
     16         13.102205   0.000000
 
 -0.1000000E+00  0.1500000E+00  0.0000000E+00  0.5000000E-02
      1        -29.535986   1.000000
      2        -14.047512   1.000000
      3        -10.702538   1.000000
      4         -9.224313   1.000000
      5         -5.411561   1.000000
      6         -0.225097   0.000000
      7          0.524633   0.000000
      8          1.922303   0.000000
      9          2.728060   0.000000
     10          2.869577   0.000000
     11          3.934115   0.000000
     12          4.947887   0.000000
     13          6.686012   0.000000
     14          8.358919   0.000000
     15         10.614926   0.000000
     16         13.101880   0.000000
 
  0.5000000E-01  0.1000000E+00  0.0000000E+00  0.5000000E-02
      1        -29.537212   1.000000
      2        -14.047860   1.000000
      3        -10.554299   1.000000
      4         -9.379097   1.000000
      5         -5.407165   1.000000
      6         -0.338954   0.000000
      7          0.707721   0.000000
      8          1.833165   0.000000
      9          2.726904   0.000000
     10          2.867044   0.000000
     11          3.932869   0.000000
     12          4.947753   0.000000
     13          6.685288   0.000000
     14          8.358707   0.000000
     15         10.614974   0.000000
     16         13.101151   0.000000
 
  0.1500000E+00 -0.5000000E-01  0.0000000E+00  0.5000000E-02
      1        -29.535065   1.000000
      2        -14.047269   1.000000
      3        -10.807422   1.000000
      4         -9.107362   1.000000
      5         -5.414934   1.000000
      6         -0.210040   0.000000
      7          0.457016   0.000000
      8          1.983515   0.000000
      9          2.729276   0.000000
     10          2.870398   0.000000
     11          3.935016   0.000000
     12          4.947911   0.000000
     13          6.686896   0.000000
     14          8.358955   0.000000
     15         10.615570   0.000000
     16         13.102066   0.000000
 
  0.1500000E+00  0.5000000E-01  0.0000000E+00  0.5000000E-02
      1        -29.108199   1.000000
      2        -13.696103   1.000000
      3        -12.100946   1.000000
      4         -9.820752   1.000000
      5         -5.278739   1.000000
      6         -0.518570   0.000000
      7          1.128464   0.000000
      8          2.600103   0.000000
      9          3.277583   0.000000
     10          3.426897   0.000000
     11          4.473033   0.000000
     12          5.502289   0.000000
     13          7.172257   0.000000
     14          8.894923   0.000000
     15         11.019668   0.000000
     16         13.582368   0.000000
 
 -0.5000000E-01  0.2000000E+00  0.0000000E+00  0.5000000E-02
      1        -29.109869   1.000000
      2        -13.694716   1.000000
      3        -12.022698   1.000000
      4         -9.899620   1.000000
      5         -5.273892   1.000000
      6         -0.573522   0.000000
      7          1.191027   0.000000
      8          2.562743   0.000000
      9          3.276594   0.000000
     10          3.420938   0.000000
     11          4.471228   0.000000
     12          5.501990   0.000000
     13          7.171893   0.000000
     14          8.894431   0.000000
     15         11.021448   0.000000
     16         13.580635   0.000000
 
 -0.2000000E+00  0.1500000E+00  0.0000000E+00  0.5000000E-02
      1        -29.105502   1.000000
      2        -13.699359   1.000000
      3        -12.231484   1.000000
      4         -9.673087   1.000000
      5         -5.287112   1.000000
      6         -0.456236   0.000000
      7          0.968303   0.000000
      8          2.733931   0.000000
      9          3.278238   0.000000
     10          3.432973   0.000000
     11          4.475881   0.000000
     12          5.502118   0.000000
     13          7.174647   0.000000
     14          8.894844   0.000000
     15         11.020877   0.000000
     16         13.582592   0.000000
 
 -0.1500000E+00  0.2000000E+00  0.0000000E+00  0.5000000E-02
      1        -29.107153   1.000000
      2        -13.697204   1.000000
      3        -12.150405   1.000000
      4         -9.767769   1.000000
      5         -5.282316   1.000000
      6         -0.475076   0.000000
      7          1.051784   0.000000
      8          2.649759   0.000000
      9          3.277808   0.000000
     10          3.430123   0.000000
     11          4.474222   0.000000
     12          5.502273   0.000000
     13          7.172957   0.000000
     14          8.894969   0.000000
     15         11.019600   0.000000
     16         13.582726   0.000000
 
  0.5000000E-01  0.1500000E+00  0.0000000E+00  0.5000000E-02
      1        -29.110325   1.000000
      2        -13.694232   1.000000
      3        -11.996363   1.000000
      4         -9.929086   1.000000
      5         -5.272396   1.000000
      6         -0.584799   0.000000
      7          1.228206   0.000000
      8          2.530587   0.000000
      9          3.276632   0.000000
     10          3.420318   0.000000
     11          4.470782   0.000000
     12          5.502057   0.000000
     13          7.171422   0.000000
     14          8.894489   0.000000
     15         11.021074   0.000000
     16         13.580712   0.000000
 
  0.2000000E+00 -0.5000000E-01  0.0000000E+00  0.5000000E-02
      1        -29.106092   1.000000
      2        -13.698735   1.000000
      3        -12.207641   1.000000
      4         -9.697326   1.000000
      5         -5.285027   1.000000
      6         -0.488557   0.000000
      7          1.008697   0.000000