       N       E                     dE             d eps       ncg     rms          rms(c)
DAV:   1     0.588669744998E+02    0.58867E+02   -0.46885E+03  6464   0.453E+02
DAV:   2    -0.130076772381E+02   -0.71875E+02   -0.65895E+02  9712   0.137E+02
DAV:   3    -0.140383170109E+02   -0.10306E+01   -0.10306E+01  6624   0.193E+01
DAV:   4    -0.140420646671E+02   -0.37477E-02   -0.37477E-02 11200   0.140E+00
DAV:   5    -0.140420680537E+02   -0.33866E-05   -0.33866E-05  6960   0.228E-02
DAV:   6    -0.140420681050E+02   -0.51345E-07   -0.51345E-07 12064   0.226E-03
DAV:   7    -0.140420681050E+02    0.21146E-10   -0.11830E-09  7168   0.510E-05
DAV:   8    -0.140420681052E+02   -0.14575E-09   -0.16069E-11  8848   0.740E-06
DAV:   9    -0.140420681052E+02    0.90949E-12   -0.37216E-12  5232   0.359E-06
DAV:  10    -0.140420681051E+02    0.44338E-11   -0.10210E-12  5296   0.207E-06
DAV:  11    -0.140420681051E+02    0.81855E-11   -0.47962E-14  4096   0.123E-06
DAV:  12    -0.140420681051E+02    0.14438E-10   -0.29594E-13  4064   0.741E-07    0.607E+00
DAV:  13    -0.138554197864E+02    0.18665E+00   -0.30157E-02  9520   0.112E+00    0.531E+00
DAV:  14    -0.134173291661E+02    0.43809E+00   -0.14878E+00  9936   0.733E+00    0.731E-01
DAV:  15    -0.134147482880E+02    0.25809E-02   -0.35082E-02  7824   0.134E+00    0.505E-01
DAV:  16    -0.134175173828E+02   -0.27691E-02   -0.41048E-03  9152   0.503E-01    0.606E-02
DAV:  17    -0.134174050123E+02    0.11237E-03   -0.43425E-04  6832   0.137E-01    0.308E-02
DAV:  18    -0.134174254939E+02   -0.20482E-04   -0.74660E-05 10192   0.529E-02    0.745E-03
DAV:  19    -0.134174254084E+02    0.85535E-07   -0.33292E-07  6464   0.422E-03
   1 F= -.13417425E+02 E0= -.13417425E+02  d E =-.921899E-14
 Linear response reoptimize wavefunctions
DAV:   1    -0.134174248338E+02    0.57454E-06   -0.81403E-06  7472   0.161E-02
DAV:   2    -0.134174248381E+02   -0.42719E-08   -0.42717E-08  9248   0.146E-03
DAV:   3    -0.134174248381E+02   -0.95497E-11   -0.98487E-11  9440   0.545E-05
 Linear response G [H, r] |phi>, progress :
  Direction:   1
       N       E                     dE             d eps       ncg     rms
RMM:   1    -0.344108559542E+02   -0.34411E+02   -0.39786E+01 14411   0.981E+01
RMM:   2    -0.361103286846E+02   -0.16995E+01   -0.29651E+00 11009   0.154E+01
RMM:   3    -0.361873303879E+02   -0.77002E-01   -0.23640E-01 12613   0.290E+00
RMM:   4    -0.361891508673E+02   -0.18205E-02   -0.27539E-03 12959   0.334E-01
RMM:   5    -0.361891876111E+02   -0.36744E-04   -0.10263E-04 13241   0.607E-02
RMM:   6    -0.361891884933E+02   -0.88217E-06   -0.30527E-06 13296   0.844E-03
 Linear response G [H, r] |phi>, progress :
  Direction:   2
       N       E                     dE             d eps       ncg     rms
RMM:   1    -0.337741299331E+02   -0.33774E+02   -0.28703E+01 14421   0.985E+01
RMM:   2    -0.361252131856E+02   -0.23511E+01   -0.29937E+00 11149   0.155E+01
RMM:   3    -0.362051814573E+02   -0.79968E-01   -0.23983E-01 12687   0.283E+00
RMM:   4    -0.362078569970E+02   -0.26755E-02   -0.25177E-03 12951   0.325E-01
RMM:   5    -0.362079100503E+02   -0.53053E-04   -0.10307E-04 13305   0.579E-02
RMM:   6    -0.362079116351E+02   -0.15848E-05   -0.33096E-06 13322   0.847E-03
RMM:   7    -0.362079116858E+02   -0.50689E-07   -0.13480E-07 12693   0.153E-03
 Linear response G [H, r] |phi>, progress :
  Direction:   3
       N       E                     dE             d eps       ncg     rms
RMM:   1    -0.339338550314E+02   -0.33934E+02    0.68177E+01 12867   0.107E+02
RMM:   2    -0.376053557702E+02   -0.36715E+01   -0.50440E+00 11872   0.166E+01
RMM:   3    -0.376825322830E+02   -0.77177E-01   -0.24090E-01 12436   0.309E+00
RMM:   4    -0.376839874605E+02   -0.14552E-02   -0.25642E-03 13021   0.343E-01
RMM:   5    -0.376840220513E+02   -0.34591E-04   -0.13378E-04 13541   0.552E-02
RMM:   6    -0.376840233191E+02   -0.12677E-05   -0.23935E-06 13455   0.827E-03
RMM:   7    -0.376840233589E+02   -0.39821E-07   -0.22360E-07 13198   0.182E-03
 Linear response to external field (no local field effect), progress :
  Direction:   1
       N       E                     dE             d eps       ncg     rms          rms(c)
RMM:   1    -0.204194494959E+00   -0.20419E+00   -0.97778E-01 16065   0.275E+00
RMM:   2    -0.213030633986E+00   -0.88361E-02   -0.21288E-03 11099   0.406E-01
RMM:   3    -0.213239071507E+00   -0.20844E-03   -0.17505E-04 12366   0.711E-02
RMM:   4    -0.213244005227E+00   -0.49337E-05   -0.54666E-06 12687   0.119E-02
RMM:   5    -0.213244081462E+00   -0.76236E-07   -0.12603E-07 12934   0.184E-03
RMM:   6    -0.213244083071E+00   -0.16093E-08   -0.21576E-09 10972   0.302E-04
 Linear response to external field (no local field effect), progress :
  Direction:   2
       N       E                     dE             d eps       ncg     rms          rms(c)
RMM:   1    -0.210104628282E+00   -0.21010E+00   -0.10285E+00 16081   0.273E+00
RMM:   2    -0.219377123769E+00   -0.92725E-02   -0.15280E-03 11120   0.410E-01
RMM:   3    -0.219651594918E+00   -0.27447E-03   -0.19870E-04 12478   0.737E-02
RMM:   4    -0.219657613216E+00   -0.60183E-05   -0.57674E-06 12740   0.118E-02
RMM:   5    -0.219657693927E+00   -0.80711E-07   -0.12984E-07 12926   0.185E-03
RMM:   6    -0.219657695569E+00   -0.16418E-08   -0.18012E-09 11068   0.290E-04
 Linear response to external field (no local field effect), progress :
  Direction:   3
       N       E                     dE             d eps       ncg     rms          rms(c)
RMM:   1    -0.888851691744E-01   -0.88885E-01   -0.21421E-01 15797   0.227E+00
RMM:   2    -0.954130810700E-01   -0.65279E-02   -0.18434E-03 10638   0.407E-01
RMM:   3    -0.955581609340E-01   -0.14508E-03   -0.19291E-04 12432   0.847E-02
RMM:   4    -0.955635599930E-01   -0.53991E-05   -0.59136E-06 12855   0.133E-02
RMM:   5    -0.955636649228E-01   -0.10493E-06   -0.18126E-07 12750   0.225E-03
RMM:   6    -0.955636676483E-01   -0.27255E-08   -0.30845E-09 11083   0.333E-04
 Linear response to external field, progress :
  Direction:   1
       N       E                     dE             d eps       ncg     rms          rms(c)
RMM:   1    -0.204194494959E+00   -0.20419E+00   -0.97778E-01 16065   0.275E+00
RMM:   2    -0.213030633986E+00   -0.88361E-02   -0.21288E-03 11099   0.406E-01    0.139E+00
RMM:   3    -0.211284531631E+00    0.17461E-02   -0.52434E-04 10680   0.181E-01    0.122E+00
RMM:   4    -0.227352112981E+00   -0.16068E-01   -0.94139E-03 10084   0.619E-01    0.148E-01
RMM:   5    -0.224251034100E+00    0.31011E-02   -0.23561E-04 11508   0.966E-02    0.116E-01
RMM:   6    -0.228061378023E+00   -0.38103E-02   -0.50839E-05 12224   0.521E-02    0.377E-02
RMM:   7    -0.227447360914E+00    0.61402E-03   -0.19458E-05 11133   0.263E-02    0.596E-03
RMM:   8    -0.227524813210E+00   -0.77452E-04   -0.96567E-07 11739   0.653E-03    0.521E-03
RMM:   9    -0.227493834545E+00    0.30979E-04   -0.37206E-07 11706   0.394E-03    0.106E-03
RMM:  10    -0.227498459982E+00   -0.46254E-05   -0.13622E-08 11885   0.840E-04    0.293E-04
RMM:  11    -0.227497989438E+00    0.47054E-06   -0.10267E-08 10512   0.561E-04    0.142E-04
 Linear response to external field, progress :
  Direction:   2
       N       E                     dE             d eps       ncg     rms          rms(c)
RMM:   1    -0.210104628282E+00   -0.21010E+00   -0.10285E+00 16081   0.273E+00
RMM:   2    -0.219377123769E+00   -0.92725E-02   -0.15280E-03 11120   0.410E-01    0.144E+00
RMM:   3    -0.217545498050E+00    0.18316E-02   -0.57933E-04 10743   0.189E-01    0.126E+00
RMM:   4    -0.232791600507E+00   -0.15246E-01   -0.92773E-03 10252   0.613E-01    0.195E-01
RMM:   5    -0.232034884977E+00    0.75672E-03   -0.26601E-04 10656   0.119E-01    0.118E-01
RMM:   6    -0.235247300871E+00   -0.32124E-02   -0.64726E-05 11978   0.499E-02    0.781E-02
RMM:   7    -0.234762855455E+00    0.48445E-03   -0.11393E-04 11447   0.591E-02    0.914E-03
RMM:   8    -0.234803661426E+00   -0.40806E-04   -0.32680E-06 11114   0.125E-02    0.573E-03
RMM:   9    -0.234746388794E+00    0.57273E-04   -0.34657E-07 10983   0.443E-03    0.180E-03
RMM:  10    -0.234787080205E+00   -0.40691E-04   -0.11240E-07 11466   0.221E-03    0.811E-04
RMM:  11    -0.234782202163E+00    0.48780E-05   -0.61426E-08 11757   0.159E-03    0.460E-04
RMM:  12    -0.234781326090E+00    0.87607E-06   -0.64293E-09 10999   0.683E-04    0.105E-04
 Linear response to external field, progress :
  Direction:   3
       N       E                     dE             d eps       ncg     rms          rms(c)
RMM:   1    -0.888851691744E-01   -0.88885E-01   -0.21421E-01 15797   0.227E+00
RMM:   2    -0.954130810700E-01   -0.65279E-02   -0.18434E-03 10638   0.407E-01    0.944E-01
RMM:   3    -0.579433525944E-01    0.37470E-01   -0.98569E-03 10116   0.490E-01    0.433E-01
RMM:   4    -0.396569270924E-01    0.18286E-01   -0.16208E-02 11355   0.550E-01    0.207E-01
RMM:   5    -0.362078963765E-01    0.34490E-02   -0.38425E-03 10201   0.474E-01    0.457E-02
RMM:   6    -0.367833384135E-01   -0.57544E-03   -0.10104E-03 10771   0.152E-01    0.404E-02
RMM:   7    -0.367455050656E-01    0.37833E-04   -0.12474E-04  9662   0.797E-02    0.240E-02
RMM:   8    -0.369298427825E-01   -0.18434E-03   -0.49771E-05 10179   0.536E-02    0.450E-03
RMM:   9    -0.369300024106E-01   -0.15963E-06   -0.74309E-06 11379   0.139E-02    0.538E-03
