 vasp.6.4.2 20Jul23 (build Nov 14 2023 12:59:38) complex                        
  
 executed on             LinuxIFC date 2023.12.29  16:15:30
 running   16 mpi-ranks, on    1 nodes
 distrk:  each k-point on   16 cores,    1 groups
 distr:  one band on NCORE=   1 cores,   16 groups


--------------------------------------------------------------------------------------------------------


 INCAR:
   ENCUT = 473.514750
   ALGO = Normal
   NELM = 200
   NELMIN = 6
   NELMDL = -12
   EDIFF = 1.0E-6
   AMIX = 0.1
   BMIX = 0.0001
   PREC = Accurate
   IVDW = 0
   ISPIN = 1
   ADDGRID = .TRUE.
   LASPH = .TRUE.
   LREAL = .FALSE.
   LEPSILON = .TRUE.
   ISMEAR = 0
   SIGMA = 0.01
   LORBIT = 10
   NEDOS = 6001
   NWRITE = 3
   LWAVE = .FALSE.
   LCHARG = .FALSE.
   ICHARG = 2
   LELF = .FALSE.
   LVTOT = .FALSE.
   LPLANE = .TRUE.

 POTCAR:    PAW_PBE N_GW 10Apr2007                
 -----------------------------------------------------------------------------
|                                                                             |
|           W    W    AA    RRRRR   N    N  II  N    N   GGGG   !!!           |
|           W    W   A  A   R    R  NN   N  II  NN   N  G    G  !!!           |
|           W    W  A    A  R    R  N N  N  II  N N  N  G       !!!           |
|           W WW W  AAAAAA  RRRRR   N  N N  II  N  N N  G  GGG   !            |
|           WW  WW  A    A  R   R   N   NN  II  N   NN  G    G                |
|           W    W  A    A  R    R  N    N  II  N    N   GGGG   !!!           |
|                                                                             |
|     For optimal performance we recommend to set                             |
|       NCORE = 2 up to number-of-cores-per-socket                            |
|     NCORE specifies how many cores store one orbital (NPAR=cpu/NCORE).      |
|     This setting can greatly improve the performance of VASP for DFT.       |
|     The default, NCORE=1 might be grossly inefficient on modern             |
|     multi-core architectures or massively parallel machines. Do your        |
|     own testing! More info at https://www.vasp.at/wiki/index.php/NCORE      |
|     Unfortunately you need to use the default for GW and RPA                |
|     calculations (for HF NCORE is supported but not extensively tested      |
|     yet).                                                                   |
|                                                                             |
 -----------------------------------------------------------------------------

 POTCAR:    PAW_PBE N_GW 10Apr2007                
   SHA256 =  fd1d2aa6ab9491c135f685514eb348746c96945cd88f417c2825c3c063d62dd8 N_GW/POTCAR           
   COPYR  = (c) Copyright 10Apr2007 Georg Kresse                                                    
   COPYR  = This file is part of the software VASP. Any use, copying, and all other rights are regul
   COPYR  = If you do not have a valid VASP license, you may not use, copy or distribute this file. 
   VRHFIN =N: s2p3                                                                                  
   LEXCH  = PE                                                                                      
   EATOM  =   264.5486 eV,   19.4438 Ry                                                             
                                                                                                    
   TITEL  = PAW_PBE N_GW 10Apr2007                                                                  
   LULTRA =        F    use ultrasoft PP ?                                                          
   IUNSCR =        0    unscreen: 0-lin 1-nonlin 2-no                                               
   RPACOR =    0.000    partial core radius                                                         
   POMASS =   14.001; ZVAL   =    5.000    mass and valenz                                          
   RCORE  =    1.500    outmost cutoff radius                                                       
   RWIGS  =    1.400; RWIGS  =    0.741    wigner-seitz radius (au A)                               
   ENMAX  =  420.902; ENMIN  =  315.677 eV                                                          
   ICORE  =        2    local potential                                                             
   LCOR   =        T    correct aug charges                                                         
   LPAW   =        T    paw PP                                                                      
   EAUG   =  904.640                                                                                
   DEXC   =    0.000                                                                                
   RMAX   =    1.529    core radius for proj-oper                                                   
   RAUG   =    1.300    factor for augmentation sphere                                              
   RDEP   =    1.514    radius for radial grids                                                     
   RDEPT  =    1.100    core radius for aug-charge                                                  
                                                                                                    
   Atomic configuration                                                                             
    4 entries                                                                                       
     n  l   j            E        occ.                                                              
     1  0  0.50      -384.7179   2.0000                                                             
     2  0  0.50       -18.5828   2.0000                                                             
     2  1  0.50        -7.0898   3.0000                                                             
     3  2  1.50        -8.1635   0.0000                                                             
   Description                                                                                      
     l       E           TYP  RCUT    TYP  RCUT                                                     
     0    -18.5828120     23  1.300                                                                 
     0     81.6349560     23  1.300                                                                 
     1     -7.0897854     23  1.500                                                                 
     1     81.6349560     23  1.500                                                                 
     2     -8.1634956      7  1.500                                                                 
  local pseudopotential read in
  kinetic energy density of atom read in
  atomic valenz-charges read in
  non local Contribution for L=           0  read in
    real space projection operators read in
  non local Contribution for L=           0  read in
    real space projection operators read in
  non local Contribution for L=           1  read in
    real space projection operators read in
  non local Contribution for L=           1  read in
    real space projection operators read in
    PAW grid and wavefunctions read in
 
   number of l-projection  operators is LMAX  =           4
   number of lm-projection operators is LMMAX =           8
 
  PAW_PBE N_GW 10Apr2007                :
 energy of atom  1       EATOM= -264.5486
 kinetic energy error for atom=    0.0147 (will be added to EATOM!!)
 
 
 POSCAR: OUTCAR.0003.-1.out 1.0e-02
  positions in cartesian coordinates
  No initial velocities read in
 exchange correlation table for  LEXCH =        8
   RHO(1)=    0.500       N(1)  =     2000
   RHO(2)=  100.500       N(2)  =     4000
 


--------------------------------------------------------------------------------------------------------


 ion  position               nearest neighbor table
   1  0.666  0.330  0.478-   2 1.48   2 1.50   2 1.51
   2  0.334  0.670  0.522-   1 1.48   1 1.50   1 1.51
 
  LATTYP: Found a hexagonal cell.
 ALAT       =     2.2944985944
 C/A-ratio  =     6.9732010465
  
  Lattice vectors:
  
 A1 = (   2.2944985944,   0.0000000000,   0.0000000000)
 A2 = (  -1.1472492972,   1.9870940717,   0.0000000000)
 A3 = (   0.0000000000,   0.0000000000,  16.0000000000)


Analysis of symmetry for initial positions (statically):
=====================================================================
 Subroutine PRICEL returns:
 Original cell was already a primitive cell.
 

 Routine SETGRP: Setting up the symmetry group for a 
 hexagonal supercell.


 Subroutine GETGRP returns: Found  2 space group operations
 (whereof  2 operations were pure point group operations)
 out of a pool of 24 trial point group operations.


The static configuration has the point symmetry S_2 .


Analysis of symmetry for dynamics (positions and initial velocities):
=====================================================================
 Subroutine PRICEL returns:
 Original cell was already a primitive cell.
 

 Routine SETGRP: Setting up the symmetry group for a 
 hexagonal supercell.


 Subroutine GETGRP returns: Found  2 space group operations
 (whereof  2 operations were pure point group operations)
 out of a pool of 24 trial point group operations.


The dynamic configuration has the point symmetry S_2 .


 Subroutine INISYM returns: Found  2 space group operations
 (whereof  2 operations are pure point group operations),
 and found     1 'primitive' translations



 irot  :   1
 --------------------------------------------------------------------
 isymop:   1   0   0
           0   1   0
           0   0   1

 gtrans:     0.0000000     0.0000000     0.0000000

 ptrans:     0.0000000     0.0000000     0.0000000
 
 rotmap:
 (   1->   1)  (   2->   2) 


 irot  :   2
 --------------------------------------------------------------------
 isymop:  -1   0   0
           0  -1   0
           0   0  -1

 gtrans:     0.0000000     0.0000000     0.0000000

 ptrans:     0.0000000     0.0000000     0.0000000
 
 rotmap:
 (   1->   2)  (   2->   1) 

----------------------------------------------------------------------------------------

                                     Primitive cell                                     

  volume of cell :      72.9502

  direct lattice vectors                    reciprocal lattice vectors
     2.294498594  0.000000000  0.000000000     0.435825065  0.251623719  0.000000000
    -1.147249297  1.987094072  0.000000000     0.000000000  0.503247438  0.000000000
     0.000000000  0.000000000 16.000000000     0.000000000  0.000000000  0.062500000

  length of vectors
     2.294498594  2.294498594 16.000000000     0.503247438  0.503247438  0.062500000

  position of ions in fractional coordinates (direct lattice)
     0.665571826  0.329853650  0.478221854
     0.334428174  0.670146350  0.521778146

  ion indices of the primitive-cell ions
   primitive index   ion index
                 1           1
                 2           2

----------------------------------------------------------------------------------------

 
 
 KPOINTS: kpoints                                 

Automatic generation of k-mesh.
 Grid dimensions read from file:
 generate k-points for:   20   20    1

 Generating k-lattice:

  Cartesian coordinates                     Fractional coordinates (reciprocal lattice)
     0.021791253  0.012581186  0.000000000     0.050000000  0.000000000  0.000000000
     0.000000000  0.025162372  0.000000000     0.000000000  0.050000000  0.000000000
     0.000000000  0.000000000  0.062500000     0.000000000  0.000000000  1.000000000

  Length of vectors
     0.025162372  0.025162372  0.062500000

  Shift w.r.t. Gamma in fractional coordinates (k-lattice)
     0.000000000  0.000000000  0.000000000

 
 Subroutine IBZKPT returns following result:
 ===========================================
 
 Found    202 irreducible k-points:
 
 Following reciprocal coordinates:
            Coordinates               Weight
  0.000000  0.000000  0.000000      1.000000
  0.050000  0.000000  0.000000      2.000000
  0.000000  0.050000  0.000000      2.000000
 -0.050000  0.050000  0.000000      2.000000
  0.100000  0.000000  0.000000      2.000000
  0.000000  0.100000  0.000000      2.000000
 -0.100000  0.100000  0.000000      2.000000
  0.150000  0.000000  0.000000      2.000000
  0.000000  0.150000  0.000000      2.000000
 -0.150000  0.150000  0.000000      2.000000
  0.200000  0.000000  0.000000      2.000000
  0.000000  0.200000  0.000000      2.000000
 -0.200000  0.200000  0.000000      2.000000
  0.250000  0.000000  0.000000      2.000000
  0.000000  0.250000  0.000000      2.000000
 -0.250000  0.250000  0.000000      2.000000
  0.300000  0.000000  0.000000      2.000000
  0.000000  0.300000  0.000000      2.000000
 -0.300000  0.300000  0.000000      2.000000
  0.350000 -0.000000  0.000000      2.000000
  0.000000  0.350000  0.000000      2.000000
 -0.350000  0.350000  0.000000      2.000000
  0.400000  0.000000  0.000000      2.000000
  0.000000  0.400000  0.000000      2.000000
 -0.400000  0.400000  0.000000      2.000000
  0.450000  0.000000  0.000000      2.000000
  0.000000  0.450000  0.000000      2.000000
 -0.450000  0.450000  0.000000      2.000000
  0.500000  0.000000  0.000000      1.000000
  0.000000  0.500000  0.000000      1.000000
  0.500000  0.500000  0.000000      1.000000
  0.050000  0.050000  0.000000      2.000000
 -0.050000  0.100000  0.000000      2.000000
 -0.100000  0.050000  0.000000      2.000000
  0.100000  0.050000  0.000000      2.000000
 -0.050000  0.150000  0.000000      2.000000
 -0.150000  0.100000  0.000000      2.000000
 -0.100000  0.150000  0.000000      2.000000
  0.050000  0.100000  0.000000      2.000000
  0.150000 -0.050000  0.000000      2.000000
  0.150000  0.050000  0.000000      2.000000
 -0.050000  0.200000  0.000000      2.000000
 -0.200000  0.150000  0.000000      2.000000
 -0.150000  0.200000  0.000000      2.000000
  0.050000  0.150000  0.000000      2.000000
  0.200000 -0.050000  0.000000      2.000000
  0.200000  0.050000  0.000000      2.000000
 -0.050000  0.250000  0.000000      2.000000
 -0.250000  0.200000  0.000000      2.000000
 -0.200000  0.250000  0.000000      2.000000
  0.050000  0.200000  0.000000      2.000000
  0.250000 -0.050000  0.000000      2.000000
  0.250000  0.050000  0.000000      2.000000
 -0.050000  0.300000  0.000000      2.000000
 -0.300000  0.250000  0.000000      2.000000
 -0.250000  0.300000  0.000000      2.000000
  0.050000  0.250000  0.000000      2.000000
  0.300000 -0.050000  0.000000      2.000000
  0.300000  0.050000  0.000000      2.000000
 -0.050000  0.350000  0.000000      2.000000
 -0.350000  0.300000  0.000000      2.000000
 -0.300000  0.350000  0.000000      2.000000
  0.050000  0.300000  0.000000      2.000000
  0.350000 -0.050000  0.000000      2.000000
  0.350000  0.050000  0.000000      2.000000
 -0.050000  0.400000  0.000000      2.000000
 -0.400000  0.350000  0.000000      2.000000
 -0.350000  0.400000  0.000000      2.000000
  0.050000  0.350000  0.000000      2.000000
  0.400000 -0.050000  0.000000      2.000000
  0.400000  0.050000  0.000000      2.000000
 -0.050000  0.450000  0.000000      2.000000
 -0.450000  0.400000  0.000000      2.000000
 -0.400000  0.450000  0.000000      2.000000
  0.050000  0.400000  0.000000      2.000000
  0.450000 -0.050000  0.000000      2.000000
  0.450000  0.050000  0.000000      2.000000
 -0.050000  0.500000  0.000000      2.000000
  0.500000  0.450000  0.000000      2.000000
 -0.450000  0.500000  0.000000      2.000000
  0.050000  0.450000  0.000000      2.000000
  0.500000 -0.050000  0.000000      2.000000
  0.100000  0.100000  0.000000      2.000000
 -0.100000  0.200000  0.000000      2.000000
 -0.200000  0.100000  0.000000      2.000000
  0.150000  0.100000  0.000000      2.000000
 -0.100000  0.250000  0.000000      2.000000
 -0.250000  0.150000  0.000000      2.000000
 -0.150000  0.250000  0.000000      2.000000
  0.100000  0.150000  0.000000      2.000000
  0.250000 -0.100000  0.000000      2.000000
  0.200000  0.100000  0.000000      2.000000
 -0.100000  0.300000  0.000000      2.000000
 -0.300000  0.200000  0.000000      2.000000
 -0.200000  0.300000  0.000000      2.000000
  0.100000  0.200000  0.000000      2.000000
  0.300000 -0.100000  0.000000      2.000000
  0.250000  0.100000  0.000000      2.000000
 -0.100000  0.350000  0.000000      2.000000
 -0.350000  0.250000  0.000000      2.000000
 -0.250000  0.350000  0.000000      2.000000
  0.100000  0.250000  0.000000      2.000000
  0.350000 -0.100000  0.000000      2.000000
  0.300000  0.100000  0.000000      2.000000
 -0.100000  0.400000  0.000000      2.000000
 -0.400000  0.300000  0.000000      2.000000
 -0.300000  0.400000  0.000000      2.000000
  0.100000  0.300000  0.000000      2.000000
  0.400000 -0.100000  0.000000      2.000000
  0.350000  0.100000  0.000000      2.000000
 -0.100000  0.450000  0.000000      2.000000
 -0.450000  0.350000  0.000000      2.000000
 -0.350000  0.450000  0.000000      2.000000
  0.100000  0.350000  0.000000      2.000000
  0.450000 -0.100000  0.000000      2.000000
  0.400000  0.100000  0.000000      2.000000
 -0.100000  0.500000  0.000000      2.000000
  0.500000  0.400000  0.000000      2.000000
 -0.400000  0.500000  0.000000      2.000000
  0.100000  0.400000  0.000000      2.000000
  0.500000 -0.100000  0.000000      2.000000
  0.450000  0.100000  0.000000      2.000000
 -0.100000 -0.450000  0.000000      2.000000
  0.450000  0.450000  0.000000      2.000000
  0.150000  0.150000  0.000000      2.000000
 -0.150000  0.300000  0.000000      2.000000
 -0.300000  0.150000  0.000000      2.000000
  0.200000  0.150000  0.000000      2.000000
 -0.150000  0.350000  0.000000      2.000000
 -0.350000  0.200000  0.000000      2.000000
 -0.200000  0.350000  0.000000      2.000000
  0.150000  0.200000  0.000000      2.000000
  0.350000 -0.150000  0.000000      2.000000
  0.250000  0.150000  0.000000      2.000000
 -0.150000  0.400000  0.000000      2.000000
 -0.400000  0.250000  0.000000      2.000000
 -0.250000  0.400000  0.000000      2.000000
  0.150000  0.250000  0.000000      2.000000
  0.400000 -0.150000  0.000000      2.000000
  0.300000  0.150000  0.000000      2.000000
 -0.150000  0.450000  0.000000      2.000000
 -0.450000  0.300000  0.000000      2.000000
 -0.300000  0.450000  0.000000      2.000000
  0.150000  0.300000  0.000000      2.000000
  0.450000 -0.150000  0.000000      2.000000
  0.350000  0.150000  0.000000      2.000000
 -0.150000  0.500000  0.000000      2.000000
  0.500000  0.350000  0.000000      2.000000
 -0.350000  0.500000  0.000000      2.000000
  0.150000  0.350000  0.000000      2.000000
  0.500000 -0.150000  0.000000      2.000000
  0.400000  0.150000  0.000000      2.000000
 -0.150000 -0.450000  0.000000      2.000000
  0.450000  0.400000  0.000000      2.000000
 -0.400000 -0.450000  0.000000      2.000000
  0.150000  0.400000  0.000000      2.000000
 -0.450000 -0.150000  0.000000      2.000000
  0.200000  0.200000  0.000000      2.000000
 -0.200000  0.400000  0.000000      2.000000
 -0.400000  0.200000  0.000000      2.000000
  0.250000  0.200000  0.000000      2.000000
 -0.200000  0.450000  0.000000      2.000000
 -0.450000  0.250000  0.000000      2.000000
 -0.250000  0.450000  0.000000      2.000000
  0.200000  0.250000  0.000000      2.000000
  0.450000 -0.200000  0.000000      2.000000
  0.300000  0.200000  0.000000      2.000000
 -0.200000  0.500000  0.000000      2.000000
  0.500000  0.300000  0.000000      2.000000
 -0.300000  0.500000  0.000000      2.000000
  0.200000  0.300000  0.000000      2.000000
  0.500000 -0.200000  0.000000      2.000000
  0.350000  0.200000  0.000000      2.000000
 -0.200000 -0.450000  0.000000      2.000000
  0.450000  0.350000  0.000000      2.000000
 -0.350000 -0.450000  0.000000      2.000000
  0.200000  0.350000  0.000000      2.000000
 -0.450000 -0.200000  0.000000      2.000000
  0.400000  0.200000  0.000000      2.000000
 -0.200000 -0.400000  0.000000      2.000000
  0.400000  0.400000  0.000000      2.000000
  0.250000  0.250000  0.000000      2.000000
 -0.250000  0.500000  0.000000      2.000000
  0.500000  0.250000  0.000000      2.000000
  0.300000  0.250000  0.000000      2.000000
 -0.250000 -0.450000  0.000000      2.000000
  0.450000  0.300000  0.000000      2.000000
 -0.300000 -0.450000  0.000000      2.000000
  0.250000  0.300000  0.000000      2.000000
 -0.450000 -0.250000  0.000000      2.000000
  0.350000  0.250000  0.000000      2.000000
 -0.250000 -0.400000  0.000000      2.000000
  0.400000  0.350000  0.000000      2.000000
 -0.350000 -0.400000  0.000000      2.000000
  0.250000  0.350000  0.000000      2.000000
 -0.400000 -0.250000  0.000000      2.000000
  0.300000  0.300000  0.000000      2.000000
 -0.300000 -0.400000  0.000000      2.000000
  0.400000  0.300000  0.000000      2.000000
  0.350000  0.300000  0.000000      2.000000
 -0.300000 -0.350000  0.000000      2.000000
  0.350000  0.350000  0.000000      2.000000
 
 Following cartesian coordinates:
            Coordinates               Weight
  0.000000  0.000000  0.000000      1.000000
  0.021791  0.012581  0.000000      2.000000
  0.000000  0.025162  0.000000      2.000000
 -0.021791  0.012581  0.000000      2.000000
  0.043583  0.025162  0.000000      2.000000
  0.000000  0.050325  0.000000      2.000000
 -0.043583  0.025162  0.000000      2.000000
  0.065374  0.037744  0.000000      2.000000
  0.000000  0.075487  0.000000      2.000000
 -0.065374  0.037744  0.000000      2.000000
  0.087165  0.050325  0.000000      2.000000
  0.000000  0.100649  0.000000      2.000000
 -0.087165  0.050325  0.000000      2.000000
  0.108956  0.062906  0.000000      2.000000
  0.000000  0.125812  0.000000      2.000000
 -0.108956  0.062906  0.000000      2.000000
  0.130748  0.075487  0.000000      2.000000
  0.000000  0.150974  0.000000      2.000000
 -0.130748  0.075487  0.000000      2.000000
  0.152539  0.088068  0.000000      2.000000
  0.000000  0.176137  0.000000      2.000000
 -0.152539  0.088068  0.000000      2.000000
  0.174330  0.100649  0.000000      2.000000
  0.000000  0.201299  0.000000      2.000000
 -0.174330  0.100649  0.000000      2.000000
  0.196121  0.113231  0.000000      2.000000
  0.000000  0.226461  0.000000      2.000000
 -0.196121  0.113231  0.000000      2.000000
  0.217913  0.125812  0.000000      1.000000
  0.000000  0.251624  0.000000      1.000000
  0.217913  0.377436  0.000000      1.000000
  0.021791  0.037744  0.000000      2.000000
 -0.021791  0.037744  0.000000      2.000000
 -0.043583  0.000000  0.000000      2.000000
  0.043583  0.050325  0.000000      2.000000
 -0.021791  0.062906  0.000000      2.000000
 -0.065374  0.012581  0.000000      2.000000
 -0.043583  0.050325  0.000000      2.000000
  0.021791  0.062906  0.000000      2.000000
  0.065374  0.012581  0.000000      2.000000
  0.065374  0.062906  0.000000      2.000000
 -0.021791  0.088068  0.000000      2.000000
 -0.087165  0.025162  0.000000      2.000000
 -0.065374  0.062906  0.000000      2.000000
  0.021791  0.088068  0.000000      2.000000
  0.087165  0.025162  0.000000      2.000000
  0.087165  0.075487  0.000000      2.000000
 -0.021791  0.113231  0.000000      2.000000
 -0.108956  0.037744  0.000000      2.000000
 -0.087165  0.075487  0.000000      2.000000
  0.021791  0.113231  0.000000      2.000000
  0.108956  0.037744  0.000000      2.000000
  0.108956  0.088068  0.000000      2.000000
 -0.021791  0.138393  0.000000      2.000000
 -0.130748  0.050325  0.000000      2.000000
 -0.108956  0.088068  0.000000      2.000000
  0.021791  0.138393  0.000000      2.000000
  0.130748  0.050325  0.000000      2.000000
  0.130748  0.100649  0.000000      2.000000
 -0.021791  0.163555  0.000000      2.000000
 -0.152539  0.062906  0.000000      2.000000
 -0.130748  0.100649  0.000000      2.000000
  0.021791  0.163555  0.000000      2.000000
  0.152539  0.062906  0.000000      2.000000
  0.152539  0.113231  0.000000      2.000000
 -0.021791  0.188718  0.000000      2.000000
 -0.174330  0.075487  0.000000      2.000000
 -0.152539  0.113231  0.000000      2.000000
  0.021791  0.188718  0.000000      2.000000
  0.174330  0.075487  0.000000      2.000000
  0.174330  0.125812  0.000000      2.000000
 -0.021791  0.213880  0.000000      2.000000
 -0.196121  0.088068  0.000000      2.000000
 -0.174330  0.125812  0.000000      2.000000
  0.021791  0.213880  0.000000      2.000000
  0.196121  0.088068  0.000000      2.000000
  0.196121  0.138393  0.000000      2.000000
 -0.021791  0.239043  0.000000      2.000000
  0.217913  0.352273  0.000000      2.000000
 -0.196121  0.138393  0.000000      2.000000
  0.021791  0.239043  0.000000      2.000000
  0.217913  0.100649  0.000000      2.000000
  0.043583  0.075487  0.000000      2.000000
 -0.043583  0.075487  0.000000      2.000000
 -0.087165  0.000000  0.000000      2.000000
  0.065374  0.088068  0.000000      2.000000
 -0.043583  0.100649  0.000000      2.000000
 -0.108956  0.012581  0.000000      2.000000
 -0.065374  0.088068  0.000000      2.000000
  0.043583  0.100649  0.000000      2.000000
  0.108956  0.012581  0.000000      2.000000
  0.087165  0.100649  0.000000      2.000000
 -0.043583  0.125812  0.000000      2.000000
 -0.130748  0.025162  0.000000      2.000000
 -0.087165  0.100649  0.000000      2.000000
  0.043583  0.125812  0.000000      2.000000
  0.130748  0.025162  0.000000      2.000000
  0.108956  0.113231  0.000000      2.000000
 -0.043583  0.150974  0.000000      2.000000
 -0.152539  0.037744  0.000000      2.000000
 -0.108956  0.113231  0.000000      2.000000
  0.043583  0.150974  0.000000      2.000000
  0.152539  0.037744  0.000000      2.000000
  0.130748  0.125812  0.000000      2.000000
 -0.043583  0.176137  0.000000      2.000000
 -0.174330  0.050325  0.000000      2.000000
 -0.130748  0.125812  0.000000      2.000000
  0.043583  0.176137  0.000000      2.000000
  0.174330  0.050325  0.000000      2.000000
  0.152539  0.138393  0.000000      2.000000
 -0.043583  0.201299  0.000000      2.000000
 -0.196121  0.062906  0.000000      2.000000
 -0.152539  0.138393  0.000000      2.000000
  0.043583  0.201299  0.000000      2.000000
  0.196121  0.062906  0.000000      2.000000
  0.174330  0.150974  0.000000      2.000000
 -0.043583  0.226461  0.000000      2.000000
  0.217913  0.327111  0.000000      2.000000
 -0.174330  0.150974  0.000000      2.000000
  0.043583  0.226461  0.000000      2.000000
  0.217913  0.075487  0.000000      2.000000
  0.196121  0.163555  0.000000      2.000000
 -0.043583 -0.251624  0.000000      2.000000
  0.196121  0.339692  0.000000      2.000000
  0.065374  0.113231  0.000000      2.000000
 -0.065374  0.113231  0.000000      2.000000
 -0.130748  0.000000  0.000000      2.000000
  0.087165  0.125812  0.000000      2.000000
 -0.065374  0.138393  0.000000      2.000000
 -0.152539  0.012581  0.000000      2.000000
 -0.087165  0.125812  0.000000      2.000000
  0.065374  0.138393  0.000000      2.000000
  0.152539  0.012581  0.000000      2.000000
  0.108956  0.138393  0.000000      2.000000
 -0.065374  0.163555  0.000000      2.000000
 -0.174330  0.025162  0.000000      2.000000
 -0.108956  0.138393  0.000000      2.000000
  0.065374  0.163555  0.000000      2.000000
  0.174330  0.025162  0.000000      2.000000
  0.130748  0.150974  0.000000      2.000000
 -0.065374  0.188718  0.000000      2.000000
 -0.196121  0.037744  0.000000      2.000000
 -0.130748  0.150974  0.000000      2.000000
  0.065374  0.188718  0.000000      2.000000
  0.196121  0.037744  0.000000      2.000000
  0.152539  0.163555  0.000000      2.000000
 -0.065374  0.213880  0.000000      2.000000
  0.217913  0.301948  0.000000      2.000000
 -0.152539  0.163555  0.000000      2.000000
  0.065374  0.213880  0.000000      2.000000
  0.217913  0.050325  0.000000      2.000000
  0.174330  0.176137  0.000000      2.000000
 -0.065374 -0.264205  0.000000      2.000000
  0.196121  0.314530  0.000000      2.000000
 -0.174330 -0.327111  0.000000      2.000000
  0.065374  0.239043  0.000000      2.000000
 -0.196121 -0.188718  0.000000      2.000000
  0.087165  0.150974  0.000000      2.000000
 -0.087165  0.150974  0.000000      2.000000
 -0.174330  0.000000  0.000000      2.000000
  0.108956  0.163555  0.000000      2.000000
 -0.087165  0.176137  0.000000      2.000000
 -0.196121  0.012581  0.000000      2.000000
 -0.108956  0.163555  0.000000      2.000000
  0.087165  0.176137  0.000000      2.000000
  0.196121  0.012581  0.000000      2.000000
  0.130748  0.176137  0.000000      2.000000
 -0.087165  0.201299  0.000000      2.000000
  0.217913  0.276786  0.000000      2.000000
 -0.130748  0.176137  0.000000      2.000000
  0.087165  0.201299  0.000000      2.000000
  0.217913  0.025162  0.000000      2.000000
  0.152539  0.188718  0.000000      2.000000
 -0.087165 -0.276786  0.000000      2.000000
  0.196121  0.289367  0.000000      2.000000
 -0.152539 -0.314530  0.000000      2.000000
  0.087165  0.226461  0.000000      2.000000
 -0.196121 -0.213880  0.000000      2.000000
  0.174330  0.201299  0.000000      2.000000
 -0.087165 -0.251624  0.000000      2.000000
  0.174330  0.301948  0.000000      2.000000
  0.108956  0.188718  0.000000      2.000000
 -0.108956  0.188718  0.000000      2.000000
  0.217913  0.251624  0.000000      2.000000
  0.130748  0.201299  0.000000      2.000000
 -0.108956 -0.289367  0.000000      2.000000
  0.196121  0.264205  0.000000      2.000000
 -0.130748 -0.301948  0.000000      2.000000
  0.108956  0.213880  0.000000      2.000000
 -0.196121 -0.239043  0.000000      2.000000
  0.152539  0.213880  0.000000      2.000000
 -0.108956 -0.264205  0.000000      2.000000
  0.174330  0.276786  0.000000      2.000000
 -0.152539 -0.289367  0.000000      2.000000
  0.108956  0.239043  0.000000      2.000000
 -0.174330 -0.226461  0.000000      2.000000
  0.130748  0.226461  0.000000      2.000000
 -0.130748 -0.276786  0.000000      2.000000
  0.174330  0.251624  0.000000      2.000000
  0.152539  0.239043  0.000000      2.000000
 -0.130748 -0.251624  0.000000      2.000000
  0.152539  0.264205  0.000000      2.000000
 
 
 Subroutine IBZKPT_HF returns following result:
 ==============================================
 
 Found    400 k-points in 1st BZ
 the following    400 k-points will be used (e.g. in the exchange kernel)
 Following reciprocal coordinates:   # in IRBZ
  0.000000  0.000000  0.000000    0.00250000   1 t-inv F
  0.050000  0.000000  0.000000    0.00250000   2 t-inv F
  0.000000  0.050000  0.000000    0.00250000   3 t-inv F
 -0.050000  0.050000  0.000000    0.00250000   4 t-inv F
  0.100000  0.000000  0.000000    0.00250000   5 t-inv F
  0.000000  0.100000  0.000000    0.00250000   6 t-inv F
 -0.100000  0.100000  0.000000    0.00250000   7 t-inv F
  0.150000  0.000000  0.000000    0.00250000   8 t-inv F
  0.000000  0.150000  0.000000    0.00250000   9 t-inv F
 -0.150000  0.150000  0.000000    0.00250000  10 t-inv F
  0.200000  0.000000  0.000000    0.00250000  11 t-inv F
  0.000000  0.200000  0.000000    0.00250000  12 t-inv F
 -0.200000  0.200000  0.000000    0.00250000  13 t-inv F
  0.250000  0.000000  0.000000    0.00250000  14 t-inv F
  0.000000  0.250000  0.000000    0.00250000  15 t-inv F
 -0.250000  0.250000  0.000000    0.00250000  16 t-inv F
  0.300000  0.000000  0.000000    0.00250000  17 t-inv F
  0.000000  0.300000  0.000000    0.00250000  18 t-inv F
 -0.300000  0.300000  0.000000    0.00250000  19 t-inv F
  0.350000 -0.000000  0.000000    0.00250000  20 t-inv F
  0.000000  0.350000  0.000000    0.00250000  21 t-inv F
 -0.350000  0.350000  0.000000    0.00250000  22 t-inv F
  0.400000  0.000000  0.000000    0.00250000  23 t-inv F
  0.000000  0.400000  0.000000    0.00250000  24 t-inv F
 -0.400000  0.400000  0.000000    0.00250000  25 t-inv F
  0.450000  0.000000  0.000000    0.00250000  26 t-inv F
  0.000000  0.450000  0.000000    0.00250000  27 t-inv F
 -0.450000  0.450000  0.000000    0.00250000  28 t-inv F
  0.500000  0.000000  0.000000    0.00250000  29 t-inv F
  0.000000  0.500000  0.000000    0.00250000  30 t-inv F
  0.500000  0.500000  0.000000    0.00250000  31 t-inv F
  0.050000  0.050000  0.000000    0.00250000  32 t-inv F
 -0.050000  0.100000  0.000000    0.00250000  33 t-inv F
 -0.100000  0.050000  0.000000    0.00250000  34 t-inv F
  0.100000  0.050000  0.000000    0.00250000  35 t-inv F
 -0.050000  0.150000  0.000000    0.00250000  36 t-inv F
 -0.150000  0.100000  0.000000    0.00250000  37 t-inv F
 -0.100000  0.150000  0.000000    0.00250000  38 t-inv F
  0.050000  0.100000  0.000000    0.00250000  39 t-inv F
  0.150000 -0.050000  0.000000    0.00250000  40 t-inv F
  0.150000  0.050000  0.000000    0.00250000  41 t-inv F
 -0.050000  0.200000  0.000000    0.00250000  42 t-inv F
 -0.200000  0.150000  0.000000    0.00250000  43 t-inv F
 -0.150000  0.200000  0.000000    0.00250000  44 t-inv F
  0.050000  0.150000  0.000000    0.00250000  45 t-inv F
  0.200000 -0.050000  0.000000    0.00250000  46 t-inv F
  0.200000  0.050000  0.000000    0.00250000  47 t-inv F
 -0.050000  0.250000  0.000000    0.00250000  48 t-inv F
 -0.250000  0.200000  0.000000    0.00250000  49 t-inv F
 -0.200000  0.250000  0.000000    0.00250000  50 t-inv F
  0.050000  0.200000  0.000000    0.00250000  51 t-inv F
  0.250000 -0.050000  0.000000    0.00250000  52 t-inv F
  0.250000  0.050000  0.000000    0.00250000  53 t-inv F
 -0.050000  0.300000  0.000000    0.00250000  54 t-inv F
 -0.300000  0.250000  0.000000    0.00250000  55 t-inv F
 -0.250000  0.300000  0.000000    0.00250000  56 t-inv F
  0.050000  0.250000  0.000000    0.00250000  57 t-inv F
  0.300000 -0.050000  0.000000    0.00250000  58 t-inv F
  0.300000  0.050000  0.000000    0.00250000  59 t-inv F
 -0.050000  0.350000  0.000000    0.00250000  60 t-inv F
 -0.350000  0.300000  0.000000    0.00250000  61 t-inv F
 -0.300000  0.350000  0.000000    0.00250000  62 t-inv F
  0.050000  0.300000  0.000000    0.00250000  63 t-inv F
  0.350000 -0.050000  0.000000    0.00250000  64 t-inv F
  0.350000  0.050000  0.000000    0.00250000  65 t-inv F
 -0.050000  0.400000  0.000000    0.00250000  66 t-inv F
 -0.400000  0.350000  0.000000    0.00250000  67 t-inv F
 -0.350000  0.400000  0.000000    0.00250000  68 t-inv F
  0.050000  0.350000  0.000000    0.00250000  69 t-inv F
  0.400000 -0.050000  0.000000    0.00250000  70 t-inv F
  0.400000  0.050000  0.000000    0.00250000  71 t-inv F
 -0.050000  0.450000  0.000000    0.00250000  72 t-inv F
 -0.450000  0.400000  0.000000    0.00250000  73 t-inv F
 -0.400000  0.450000  0.000000    0.00250000  74 t-inv F
  0.050000  0.400000  0.000000    0.00250000  75 t-inv F
  0.450000 -0.050000  0.000000    0.00250000  76 t-inv F
  0.450000  0.050000  0.000000    0.00250000  77 t-inv F
 -0.050000  0.500000  0.000000    0.00250000  78 t-inv F
  0.500000  0.450000  0.000000    0.00250000  79 t-inv F
 -0.450000  0.500000  0.000000    0.00250000  80 t-inv F
  0.050000  0.450000  0.000000    0.00250000  81 t-inv F
  0.500000 -0.050000  0.000000    0.00250000  82 t-inv F
  0.100000  0.100000  0.000000    0.00250000  83 t-inv F
 -0.100000  0.200000  0.000000    0.00250000  84 t-inv F
 -0.200000  0.100000  0.000000    0.00250000  85 t-inv F
  0.150000  0.100000  0.000000    0.00250000  86 t-inv F
 -0.100000  0.250000  0.000000    0.00250000  87 t-inv F
 -0.250000  0.150000  0.000000    0.00250000  88 t-inv F
 -0.150000  0.250000  0.000000    0.00250000  89 t-inv F
  0.100000  0.150000  0.000000    0.00250000  90 t-inv F
  0.250000 -0.100000  0.000000    0.00250000  91 t-inv F
  0.200000  0.100000  0.000000    0.00250000  92 t-inv F
 -0.100000  0.300000  0.000000    0.00250000  93 t-inv F
 -0.300000  0.200000  0.000000    0.00250000  94 t-inv F
 -0.200000  0.300000  0.000000    0.00250000  95 t-inv F
  0.100000  0.200000  0.000000    0.00250000  96 t-inv F
  0.300000 -0.100000  0.000000    0.00250000  97 t-inv F
  0.250000  0.100000  0.000000    0.00250000  98 t-inv F
 -0.100000  0.350000  0.000000    0.00250000  99 t-inv F
 -0.350000  0.250000  0.000000    0.00250000 100 t-inv F
 -0.250000  0.350000  0.000000    0.00250000 101 t-inv F
  0.100000  0.250000  0.000000    0.00250000 102 t-inv F
  0.350000 -0.100000  0.000000    0.00250000 103 t-inv F
  0.300000  0.100000  0.000000    0.00250000 104 t-inv F
 -0.100000  0.400000  0.000000    0.00250000 105 t-inv F
 -0.400000  0.300000  0.000000    0.00250000 106 t-inv F
 -0.300000  0.400000  0.000000    0.00250000 107 t-inv F
  0.100000  0.300000  0.000000    0.00250000 108 t-inv F
  0.400000 -0.100000  0.000000    0.00250000 109 t-inv F
  0.350000  0.100000  0.000000    0.00250000 110 t-inv F
 -0.100000  0.450000  0.000000    0.00250000 111 t-inv F
 -0.450000  0.350000  0.000000    0.00250000 112 t-inv F
 -0.350000  0.450000  0.000000    0.00250000 113 t-inv F
  0.100000  0.350000  0.000000    0.00250000 114 t-inv F
  0.450000 -0.100000  0.000000    0.00250000 115 t-inv F
  0.400000  0.100000  0.000000    0.00250000 116 t-inv F
 -0.100000  0.500000  0.000000    0.00250000 117 t-inv F
  0.500000  0.400000  0.000000    0.00250000 118 t-inv F
 -0.400000  0.500000  0.000000    0.00250000 119 t-inv F
  0.100000  0.400000  0.000000    0.00250000 120 t-inv F
  0.500000 -0.100000  0.000000    0.00250000 121 t-inv F
  0.450000  0.100000  0.000000    0.00250000 122 t-inv F
 -0.100000 -0.450000  0.000000    0.00250000 123 t-inv F
  0.450000  0.450000  0.000000    0.00250000 124 t-inv F
  0.150000  0.150000  0.000000    0.00250000 125 t-inv F
 -0.150000  0.300000  0.000000    0.00250000 126 t-inv F
 -0.300000  0.150000  0.000000    0.00250000 127 t-inv F
  0.200000  0.150000  0.000000    0.00250000 128 t-inv F
 -0.150000  0.350000  0.000000    0.00250000 129 t-inv F
 -0.350000  0.200000  0.000000    0.00250000 130 t-inv F
 -0.200000  0.350000  0.000000    0.00250000 131 t-inv F
  0.150000  0.200000  0.000000    0.00250000 132 t-inv F
  0.350000 -0.150000  0.000000    0.00250000 133 t-inv F
  0.250000  0.150000  0.000000    0.00250000 134 t-inv F
 -0.150000  0.400000  0.000000    0.00250000 135 t-inv F
 -0.400000  0.250000  0.000000    0.00250000 136 t-inv F
 -0.250000  0.400000  0.000000    0.00250000 137 t-inv F
  0.150000  0.250000  0.000000    0.00250000 138 t-inv F
  0.400000 -0.150000  0.000000    0.00250000 139 t-inv F
  0.300000  0.150000  0.000000    0.00250000 140 t-inv F
 -0.150000  0.450000  0.000000    0.00250000 141 t-inv F
 -0.450000  0.300000  0.000000    0.00250000 142 t-inv F
 -0.300000  0.450000  0.000000    0.00250000 143 t-inv F
  0.150000  0.300000  0.000000    0.00250000 144 t-inv F
  0.450000 -0.150000  0.000000    0.00250000 145 t-inv F
  0.350000  0.150000  0.000000    0.00250000 146 t-inv F
 -0.150000  0.500000  0.000000    0.00250000 147 t-inv F
  0.500000  0.350000  0.000000    0.00250000 148 t-inv F
 -0.350000  0.500000  0.000000    0.00250000 149 t-inv F
  0.150000  0.350000  0.000000    0.00250000 150 t-inv F
  0.500000 -0.150000  0.000000    0.00250000 151 t-inv F
  0.400000  0.150000  0.000000    0.00250000 152 t-inv F
 -0.150000 -0.450000  0.000000    0.00250000 153 t-inv F
  0.450000  0.400000  0.000000    0.00250000 154 t-inv F
 -0.400000 -0.450000  0.000000    0.00250000 155 t-inv F
  0.150000  0.400000  0.000000    0.00250000 156 t-inv F
 -0.450000 -0.150000  0.000000    0.00250000 157 t-inv F
  0.200000  0.200000  0.000000    0.00250000 158 t-inv F
 -0.200000  0.400000  0.000000    0.00250000 159 t-inv F
 -0.400000  0.200000  0.000000    0.00250000 160 t-inv F
  0.250000  0.200000  0.000000    0.00250000 161 t-inv F
 -0.200000  0.450000  0.000000    0.00250000 162 t-inv F
 -0.450000  0.250000  0.000000    0.00250000 163 t-inv F
 -0.250000  0.450000  0.000000    0.00250000 164 t-inv F
  0.200000  0.250000  0.000000    0.00250000 165 t-inv F
  0.450000 -0.200000  0.000000    0.00250000 166 t-inv F
  0.300000  0.200000  0.000000    0.00250000 167 t-inv F
 -0.200000  0.500000  0.000000    0.00250000 168 t-inv F
  0.500000  0.300000  0.000000    0.00250000 169 t-inv F
 -0.300000  0.500000  0.000000    0.00250000 170 t-inv F
  0.200000  0.300000  0.000000    0.00250000 171 t-inv F
  0.500000 -0.200000  0.000000    0.00250000 172 t-inv F
  0.350000  0.200000  0.000000    0.00250000 173 t-inv F
 -0.200000 -0.450000  0.000000    0.00250000 174 t-inv F
  0.450000  0.350000  0.000000    0.00250000 175 t-inv F
 -0.350000 -0.450000  0.000000    0.00250000 176 t-inv F
  0.200000  0.350000  0.000000    0.00250000 177 t-inv F
 -0.450000 -0.200000  0.000000    0.00250000 178 t-inv F
  0.400000  0.200000  0.000000    0.00250000 179 t-inv F
 -0.200000 -0.400000  0.000000    0.00250000 180 t-inv F
  0.400000  0.400000  0.000000    0.00250000 181 t-inv F
  0.250000  0.250000  0.000000    0.00250000 182 t-inv F
 -0.250000  0.500000  0.000000    0.00250000 183 t-inv F
  0.500000  0.250000  0.000000    0.00250000 184 t-inv F
  0.300000  0.250000  0.000000    0.00250000 185 t-inv F
 -0.250000 -0.450000  0.000000    0.00250000 186 t-inv F
  0.450000  0.300000  0.000000    0.00250000 187 t-inv F
 -0.300000 -0.450000  0.000000    0.00250000 188 t-inv F
  0.250000  0.300000  0.000000    0.00250000 189 t-inv F
 -0.450000 -0.250000  0.000000    0.00250000 190 t-inv F
  0.350000  0.250000  0.000000    0.00250000 191 t-inv F
 -0.250000 -0.400000  0.000000    0.00250000 192 t-inv F
  0.400000  0.350000  0.000000    0.00250000 193 t-inv F
 -0.350000 -0.400000  0.000000    0.00250000 194 t-inv F
  0.250000  0.350000  0.000000    0.00250000 195 t-inv F
 -0.400000 -0.250000  0.000000    0.00250000 196 t-inv F
  0.300000  0.300000  0.000000    0.00250000 197 t-inv F
 -0.300000 -0.400000  0.000000    0.00250000 198 t-inv F
  0.400000  0.300000  0.000000    0.00250000 199 t-inv F
  0.350000  0.300000  0.000000    0.00250000 200 t-inv F
 -0.300000 -0.350000  0.000000    0.00250000 201 t-inv F
  0.350000  0.350000  0.000000    0.00250000 202 t-inv F
 -0.050000  0.000000  0.000000    0.00250000   2 t-inv F
  0.000000 -0.050000  0.000000    0.00250000   3 t-inv F
  0.050000 -0.050000  0.000000    0.00250000   4 t-inv F
 -0.100000  0.000000  0.000000    0.00250000   5 t-inv F
  0.000000 -0.100000  0.000000    0.00250000   6 t-inv F
  0.100000 -0.100000  0.000000    0.00250000   7 t-inv F
 -0.150000  0.000000  0.000000    0.00250000   8 t-inv F
  0.000000 -0.150000  0.000000    0.00250000   9 t-inv F
  0.150000 -0.150000  0.000000    0.00250000  10 t-inv F
 -0.200000  0.000000  0.000000    0.00250000  11 t-inv F
  0.000000 -0.200000  0.000000    0.00250000  12 t-inv F
  0.200000 -0.200000  0.000000    0.00250000  13 t-inv F
 -0.250000  0.000000  0.000000    0.00250000  14 t-inv F
  0.000000 -0.250000  0.000000    0.00250000  15 t-inv F
  0.250000 -0.250000  0.000000    0.00250000  16 t-inv F
 -0.300000  0.000000  0.000000    0.00250000  17 t-inv F
  0.000000 -0.300000  0.000000    0.00250000  18 t-inv F
  0.300000 -0.300000  0.000000    0.00250000  19 t-inv F
 -0.350000  0.000000  0.000000    0.00250000  20 t-inv F
  0.000000 -0.350000  0.000000    0.00250000  21 t-inv F
  0.350000 -0.350000  0.000000    0.00250000  22 t-inv F
 -0.400000  0.000000  0.000000    0.00250000  23 t-inv F
  0.000000 -0.400000  0.000000    0.00250000  24 t-inv F
  0.400000 -0.400000  0.000000    0.00250000  25 t-inv F
 -0.450000  0.000000  0.000000    0.00250000  26 t-inv F
  0.000000 -0.450000  0.000000    0.00250000  27 t-inv F
  0.450000 -0.450000  0.000000    0.00250000  28 t-inv F
 -0.050000 -0.050000  0.000000    0.00250000  32 t-inv F
  0.050000 -0.100000  0.000000    0.00250000  33 t-inv F
  0.100000 -0.050000  0.000000    0.00250000  34 t-inv F
 -0.100000 -0.050000  0.000000    0.00250000  35 t-inv F
  0.050000 -0.150000  0.000000    0.00250000  36 t-inv F
  0.150000 -0.100000  0.000000    0.00250000  37 t-inv F
  0.100000 -0.150000  0.000000    0.00250000  38 t-inv F
 -0.050000 -0.100000  0.000000    0.00250000  39 t-inv F
 -0.150000  0.050000  0.000000    0.00250000  40 t-inv F
 -0.150000 -0.050000  0.000000    0.00250000  41 t-inv F
  0.050000 -0.200000  0.000000    0.00250000  42 t-inv F
  0.200000 -0.150000  0.000000    0.00250000  43 t-inv F
  0.150000 -0.200000  0.000000    0.00250000  44 t-inv F
 -0.050000 -0.150000  0.000000    0.00250000  45 t-inv F
 -0.200000  0.050000  0.000000    0.00250000  46 t-inv F
 -0.200000 -0.050000  0.000000    0.00250000  47 t-inv F
  0.050000 -0.250000  0.000000    0.00250000  48 t-inv F
  0.250000 -0.200000  0.000000    0.00250000  49 t-inv F
  0.200000 -0.250000  0.000000    0.00250000  50 t-inv F
 -0.050000 -0.200000  0.000000    0.00250000  51 t-inv F
 -0.250000  0.050000  0.000000    0.00250000  52 t-inv F
 -0.250000 -0.050000  0.000000    0.00250000  53 t-inv F
  0.050000 -0.300000  0.000000    0.00250000  54 t-inv F
  0.300000 -0.250000  0.000000    0.00250000  55 t-inv F
  0.250000 -0.300000  0.000000    0.00250000  56 t-inv F
 -0.050000 -0.250000  0.000000    0.00250000  57 t-inv F
 -0.300000  0.050000  0.000000    0.00250000  58 t-inv F
 -0.300000 -0.050000  0.000000    0.00250000  59 t-inv F
  0.050000 -0.350000  0.000000    0.00250000  60 t-inv F
  0.350000 -0.300000  0.000000    0.00250000  61 t-inv F
  0.300000 -0.350000  0.000000    0.00250000  62 t-inv F
 -0.050000 -0.300000  0.000000    0.00250000  63 t-inv F
 -0.350000  0.050000  0.000000    0.00250000  64 t-inv F
 -0.350000 -0.050000  0.000000    0.00250000  65 t-inv F
  0.050000 -0.400000  0.000000    0.00250000  66 t-inv F
  0.400000 -0.350000  0.000000    0.00250000  67 t-inv F
  0.350000 -0.400000  0.000000    0.00250000  68 t-inv F
 -0.050000 -0.350000  0.000000    0.00250000  69 t-inv F
 -0.400000  0.050000  0.000000    0.00250000  70 t-inv F
 -0.400000 -0.050000  0.000000    0.00250000  71 t-inv F
  0.050000 -0.450000  0.000000    0.00250000  72 t-inv F
  0.450000 -0.400000  0.000000    0.00250000  73 t-inv F
  0.400000 -0.450000  0.000000    0.00250000  74 t-inv F
 -0.050000 -0.400000  0.000000    0.00250000  75 t-inv F
 -0.450000  0.050000  0.000000    0.00250000  76 t-inv F
 -0.450000 -0.050000  0.000000    0.00250000  77 t-inv F
  0.050000 -0.500000  0.000000    0.00250000  78 t-inv F
 -0.500000 -0.450000  0.000000    0.00250000  79 t-inv F
  0.450000 -0.500000  0.000000    0.00250000  80 t-inv F
 -0.050000 -0.450000  0.000000    0.00250000  81 t-inv F
 -0.500000  0.050000  0.000000    0.00250000  82 t-inv F
 -0.100000 -0.100000  0.000000    0.00250000  83 t-inv F
  0.100000 -0.200000  0.000000    0.00250000  84 t-inv F
  0.200000 -0.100000  0.000000    0.00250000  85 t-inv F
 -0.150000 -0.100000  0.000000    0.00250000  86 t-inv F
  0.100000 -0.250000  0.000000    0.00250000  87 t-inv F
  0.250000 -0.150000  0.000000    0.00250000  88 t-inv F
  0.150000 -0.250000  0.000000    0.00250000  89 t-inv F
 -0.100000 -0.150000  0.000000    0.00250000  90 t-inv F
 -0.250000  0.100000  0.000000    0.00250000  91 t-inv F
 -0.200000 -0.100000  0.000000    0.00250000  92 t-inv F
  0.100000 -0.300000  0.000000    0.00250000  93 t-inv F
  0.300000 -0.200000  0.000000    0.00250000  94 t-inv F
  0.200000 -0.300000  0.000000    0.00250000  95 t-inv F
 -0.100000 -0.200000  0.000000    0.00250000  96 t-inv F
 -0.300000  0.100000  0.000000    0.00250000  97 t-inv F
 -0.250000 -0.100000  0.000000    0.00250000  98 t-inv F
  0.100000 -0.350000  0.000000    0.00250000  99 t-inv F
  0.350000 -0.250000  0.000000    0.00250000 100 t-inv F
  0.250000 -0.350000  0.000000    0.00250000 101 t-inv F
 -0.100000 -0.250000  0.000000    0.00250000 102 t-inv F
 -0.350000  0.100000  0.000000    0.00250000 103 t-inv F
 -0.300000 -0.100000  0.000000    0.00250000 104 t-inv F
  0.100000 -0.400000  0.000000    0.00250000 105 t-inv F
  0.400000 -0.300000  0.000000    0.00250000 106 t-inv F
  0.300000 -0.400000  0.000000    0.00250000 107 t-inv F
 -0.100000 -0.300000  0.000000    0.00250000 108 t-inv F
 -0.400000  0.100000  0.000000    0.00250000 109 t-inv F
 -0.350000 -0.100000  0.000000    0.00250000 110 t-inv F
  0.100000 -0.450000  0.000000    0.00250000 111 t-inv F
  0.450000 -0.350000  0.000000    0.00250000 112 t-inv F
  0.350000 -0.450000  0.000000    0.00250000 113 t-inv F
 -0.100000 -0.350000  0.000000    0.00250000 114 t-inv F
 -0.450000  0.100000  0.000000    0.00250000 115 t-inv F
 -0.400000 -0.100000  0.000000    0.00250000 116 t-inv F
  0.100000 -0.500000  0.000000    0.00250000 117 t-inv F
 -0.500000 -0.400000  0.000000    0.00250000 118 t-inv F
  0.400000 -0.500000  0.000000    0.00250000 119 t-inv F
 -0.100000 -0.400000  0.000000    0.00250000 120 t-inv F
 -0.500000  0.100000  0.000000    0.00250000 121 t-inv F
 -0.450000 -0.100000  0.000000    0.00250000 122 t-inv F
  0.100000  0.450000  0.000000    0.00250000 123 t-inv F
 -0.450000 -0.450000  0.000000    0.00250000 124 t-inv F
 -0.150000 -0.150000  0.000000    0.00250000 125 t-inv F
  0.150000 -0.300000  0.000000    0.00250000 126 t-inv F
  0.300000 -0.150000  0.000000    0.00250000 127 t-inv F
 -0.200000 -0.150000  0.000000    0.00250000 128 t-inv F
  0.150000 -0.350000  0.000000    0.00250000 129 t-inv F
  0.350000 -0.200000  0.000000    0.00250000 130 t-inv F
  0.200000 -0.350000  0.000000    0.00250000 131 t-inv F
 -0.150000 -0.200000  0.000000    0.00250000 132 t-inv F
 -0.350000  0.150000  0.000000    0.00250000 133 t-inv F
 -0.250000 -0.150000  0.000000    0.00250000 134 t-inv F
  0.150000 -0.400000  0.000000    0.00250000 135 t-inv F
  0.400000 -0.250000  0.000000    0.00250000 136 t-inv F
  0.250000 -0.400000  0.000000    0.00250000 137 t-inv F
 -0.150000 -0.250000  0.000000    0.00250000 138 t-inv F
 -0.400000  0.150000  0.000000    0.00250000 139 t-inv F
 -0.300000 -0.150000  0.000000    0.00250000 140 t-inv F
  0.150000 -0.450000  0.000000    0.00250000 141 t-inv F
  0.450000 -0.300000  0.000000    0.00250000 142 t-inv F
  0.300000 -0.450000  0.000000    0.00250000 143 t-inv F
 -0.150000 -0.300000  0.000000    0.00250000 144 t-inv F
 -0.450000  0.150000  0.000000    0.00250000 145 t-inv F
 -0.350000 -0.150000  0.000000    0.00250000 146 t-inv F
  0.150000 -0.500000  0.000000    0.00250000 147 t-inv F
 -0.500000 -0.350000  0.000000    0.00250000 148 t-inv F
  0.350000 -0.500000  0.000000    0.00250000 149 t-inv F
 -0.150000 -0.350000  0.000000    0.00250000 150 t-inv F
 -0.500000  0.150000  0.000000    0.00250000 151 t-inv F
 -0.400000 -0.150000  0.000000    0.00250000 152 t-inv F
  0.150000  0.450000  0.000000    0.00250000 153 t-inv F
 -0.450000 -0.400000  0.000000    0.00250000 154 t-inv F
  0.400000  0.450000  0.000000    0.00250000 155 t-inv F
 -0.150000 -0.400000  0.000000    0.00250000 156 t-inv F
  0.450000  0.150000  0.000000    0.00250000 157 t-inv F
 -0.200000 -0.200000  0.000000    0.00250000 158 t-inv F
  0.200000 -0.400000  0.000000    0.00250000 159 t-inv F
  0.400000 -0.200000  0.000000    0.00250000 160 t-inv F
 -0.250000 -0.200000  0.000000    0.00250000 161 t-inv F
  0.200000 -0.450000  0.000000    0.00250000 162 t-inv F
  0.450000 -0.250000  0.000000    0.00250000 163 t-inv F
  0.250000 -0.450000  0.000000    0.00250000 164 t-inv F
 -0.200000 -0.250000  0.000000    0.00250000 165 t-inv F
 -0.450000  0.200000  0.000000    0.00250000 166 t-inv F
 -0.300000 -0.200000  0.000000    0.00250000 167 t-inv F
  0.200000 -0.500000  0.000000    0.00250000 168 t-inv F
 -0.500000 -0.300000  0.000000    0.00250000 169 t-inv F
  0.300000 -0.500000  0.000000    0.00250000 170 t-inv F
 -0.200000 -0.300000  0.000000    0.00250000 171 t-inv F
 -0.500000  0.200000  0.000000    0.00250000 172 t-inv F
 -0.350000 -0.200000  0.000000    0.00250000 173 t-inv F
  0.200000  0.450000  0.000000    0.00250000 174 t-inv F
 -0.450000 -0.350000  0.000000    0.00250000 175 t-inv F
  0.350000  0.450000  0.000000    0.00250000 176 t-inv F
 -0.200000 -0.350000  0.000000    0.00250000 177 t-inv F
  0.450000  0.200000  0.000000    0.00250000 178 t-inv F
 -0.400000 -0.200000  0.000000    0.00250000 179 t-inv F
  0.200000  0.400000  0.000000    0.00250000 180 t-inv F
 -0.400000 -0.400000  0.000000    0.00250000 181 t-inv F
 -0.250000 -0.250000  0.000000    0.00250000 182 t-inv F
  0.250000 -0.500000  0.000000    0.00250000 183 t-inv F
 -0.500000 -0.250000  0.000000    0.00250000 184 t-inv F
 -0.300000 -0.250000  0.000000    0.00250000 185 t-inv F
  0.250000  0.450000  0.000000    0.00250000 186 t-inv F
 -0.450000 -0.300000  0.000000    0.00250000 187 t-inv F
  0.300000  0.450000  0.000000    0.00250000 188 t-inv F
 -0.250000 -0.300000  0.000000    0.00250000 189 t-inv F
  0.450000  0.250000  0.000000    0.00250000 190 t-inv F
 -0.350000 -0.250000  0.000000    0.00250000 191 t-inv F
  0.250000  0.400000  0.000000    0.00250000 192 t-inv F
 -0.400000 -0.350000  0.000000    0.00250000 193 t-inv F
  0.350000  0.400000  0.000000    0.00250000 194 t-inv F
 -0.250000 -0.350000  0.000000    0.00250000 195 t-inv F
  0.400000  0.250000  0.000000    0.00250000 196 t-inv F
 -0.300000 -0.300000  0.000000    0.00250000 197 t-inv F
  0.300000  0.400000  0.000000    0.00250000 198 t-inv F
 -0.400000 -0.300000  0.000000    0.00250000 199 t-inv F
 -0.350000 -0.300000  0.000000    0.00250000 200 t-inv F
  0.300000  0.350000  0.000000    0.00250000 201 t-inv F
 -0.350000 -0.350000  0.000000    0.00250000 202 t-inv F


--------------------------------------------------------------------------------------------------------




 Dimension of arrays:
   k-points           NKPTS =    202   k-points in BZ     NKDIM =    202   number of bands    NBANDS=     16
   number of dos      NEDOS =   6001   number of ions     NIONS =      2
   non local maximal  LDIM  =      4   non local SUM 2l+1 LMDIM =      8
   total plane-waves  NPLWV =  30720
   max r-space proj   IRMAX =      1   max aug-charges    IRDMAX=  24124
   dimension x,y,z NGX =    16 NGY =   16 NGZ =  120
   dimension x,y,z NGXF=    32 NGYF=   32 NGZF=  240
   support grid    NGXF=    64 NGYF=   64 NGZF=  480
   ions per type =               2
   NGX,Y,Z   is equivalent  to a cutoff of  11.59, 11.59, 12.47 a.u.
   NGXF,Y,Z  is equivalent  to a cutoff of  23.19, 23.19, 24.94 a.u.

 SYSTEM =  unknown system                          
 POSCAR =  OUTCAR.0003.-1.out 1.0e-02              

 Startparameter for this run:
   NWRITE =      3    write-flag & timer
   PREC   = accura    normal or accurate (medium, high low for compatibility)
   ISTART =      0    job   : 0-new  1-cont  2-samecut
   ICHARG =      2    charge: 1-file 2-atom 10-const
   ISPIN  =      1    spin polarized calculation?
   LNONCOLLINEAR =      F non collinear calculations
   LSORBIT =      F    spin-orbit coupling
   INIWAV =      1    electr: 0-lowe 1-rand  2-diag
   LASPH  =      T    aspherical Exc in radial PAW
 Electronic Relaxation 1
   ENCUT  =  473.5 eV  34.80 Ry    5.90 a.u.   4.07  4.07 28.39*2*pi/ulx,y,z
   ENINI  =  473.5     initial cutoff
   ENAUG  =  904.6 eV  augmentation charge cutoff
   NELM   =    200;   NELMIN=  6; NELMDL=-12     # of ELM steps 
   EDIFF  = 0.1E-05   stopping-criterion for ELM
   LREAL  =      F    real-space projection
   NLSPLINE    = F    spline interpolate recip. space projectors
   LCOMPAT=      F    compatible to vasp.4.4
   GGA_COMPAT  = T    GGA compatible to vasp.4.4-vasp.4.6
   LMAXPAW     = -100 max onsite density
   LMAXMIX     =    2 max onsite mixed and CHGCAR
   VOSKOWN=      0    Vosko Wilk Nusair interpolation
   ROPT   =    0.00000
 Ionic relaxation
   EDIFFG = 0.1E-04   stopping-criterion for IOM
   NSW    =      0    number of steps for IOM
   NBLOCK =      1;   KBLOCK =      1    inner block; outer block 
   IBRION =     -1    ionic relax: 0-MD 1-quasi-New 2-CG
   NFREE  =      0    steps in history (QN), initial steepest desc. (CG)
   ISIF   =      2    stress and relaxation
   IWAVPR =     10    prediction:  0-non 1-charg 2-wave 3-comb
   ISYM   =      2    0-nonsym 1-usesym 2-fastsym
   LCORR  =      T    Harris-Foulkes like correction to forces

   POTIM  = 0.5000    time-step for ionic-motion
   TEIN   =    0.0    initial temperature
   TEBEG  =    0.0;   TEEND  =   0.0 temperature during run
   SMASS  =  -3.00    Nose mass-parameter (am)
   estimated Nose-frequenzy (Omega)   =  0.10E-29 period in steps = 0.13E+47 mass=  -0.120E-27a.u.
   SCALEE = 1.0000    scale energy and forces
   NPACO  =    256;   APACO  = 10.0  distance and # of slots for P.C.
   PSTRESS=    0.0 pullay stress

  Mass of Ions in am
   POMASS =  14.00
  Ionic Valenz
   ZVAL   =   5.00
  Atomic Wigner-Seitz radii
   RWIGS  =  -1.00
  virtual crystal weights 
   VCA    =   1.00
   NELECT =      10.0000    total number of electrons
   NUPDOWN=      -1.0000    fix difference up-down

 DOS related values:
   EMIN   =  10.00;   EMAX   =-10.00  energy-range for DOS
   EFERMI =   0.00;   METHOD = LEGACY      
   ISMEAR =     0;   SIGMA  =   0.01  broadening in eV -4-tet -1-fermi 0-gaus

 Electronic relaxation 2 (details)
   IALGO  =     38    algorithm
   LDIAG  =      T    sub-space diagonalisation (order eigenvalues)
   LSUBROT=      F    optimize rotation matrix (better conditioning)
   TURBO    =      0    0=normal 1=particle mesh
   IRESTART =      0    0=no restart 2=restart with 2 vectors
   NREBOOT  =      0    no. of reboots
   NMIN     =      0    reboot dimension
   EREF     =   0.00    reference energy to select bands
   IMIX   =      4    mixing-type and parameters
     AMIX     =   0.10;   BMIX     =  0.00
     AMIX_MAG =   0.40;   BMIX_MAG =  0.00
     AMIN     =   0.10
     WC   =   100.;   INIMIX=   1;  MIXPRE=   1;  MAXMIX= -45

 Intra band minimization:
   WEIMIN = 0.0000     energy-eigenvalue tresh-hold
   EBREAK =  0.16E-07  absolut break condition
   DEPER  =   0.30     relativ break condition  

   TIME   =   0.40     timestep for ELM

  volume/ion in A,a.u.               =      36.48       246.15
  Fermi-wavevector in a.u.,A,eV,Ry     =   0.844111  1.595138  9.694463  0.712523
  Thomas-Fermi vector in A             =   1.959086
 
 Write flags
   LWAVE        =      F    write WAVECAR
   LDOWNSAMPLE  =      F    k-point downsampling of WAVECAR
   LCHARG       =      F    write CHGCAR
   LVTOT        =      F    write LOCPOT, total local potential
   LVHAR        =      F    write LOCPOT, Hartree potential only
   LELF         =      F    write electronic localiz. function (ELF)
   LORBIT       =     10    0 simple, 1 ext, 2 COOP (PROOUT), +10 PAW based schemes


 Dipole corrections
   LMONO  =      F    monopole corrections only (constant potential shift)
   LDIPOL =      F    correct potential (dipole corrections)
   IDIPOL =      0    1-x, 2-y, 3-z, 4-all directions 
   EPSILON=  1.0000000 bulk dielectric constant

 Exchange correlation treatment:
   GGA     =    --    GGA type
   LEXCH   =     8    internal setting for exchange type
   LIBXC   =     F    Libxc                    
   VOSKOWN =     0    Vosko Wilk Nusair interpolation
   LHFCALC =     F    Hartree Fock is set to
   LHFONE  =     F    Hartree Fock one center treatment
   AEXX    =    0.0000 exact exchange contribution

 Linear response parameters
   LEPSILON=     T    determine dielectric tensor
   LRPA    =     F    only Hartree local field effects (RPA)
   LNABLA  =     F    use nabla operator in PAW spheres
   LVEL    =     F    velocity operator in full k-point grid
   CSHIFT  =0.1000    complex shift for real part using Kramers Kronig
   OMEGAMAX=  -1.0    maximum frequency
   DEG_THRESHOLD= 0.2000000E-02 threshold for treating states as degnerate
   RTIME   =   -0.100 relaxation time in fs
  (WPLASMAI=    0.000 imaginary part of plasma frequency in eV, 0.658/RTIME)
   DFIELD  = 0.0000000 0.0000000 0.0000000 field for delta impulse in time
 
  Optional k-point grid parameters
   LKPOINTS_OPT  =     F    use optional k-point grid
   KPOINTS_OPT_MODE=     1    mode for optional k-point grid
 
 Orbital magnetization related:
   ORBITALMAG=     F  switch on orbital magnetization
   LCHIMAG   =     F  perturbation theory with respect to B field
   DQ        =  0.001000  dq finite difference perturbation B field
   LLRAUG    =     F  two centre corrections for induced B field
   LBONE     =     F  B-component reconstruction in AE one-centre
   LVGVCALC  =     T  calculate vGv susceptibility
   LVGVAPPL  =     F  apply vGv susceptibility instead of pGv for G=0

 Random number generation:
   RANDOM_GENERATOR = DEFAULT
   PCG_SEED         = not used


--------------------------------------------------------------------------------------------------------


 Static calculation
 charge density and potential will be updated during run
 non-spin polarized calculation
 Variant of blocked Davidson
 Davidson routine will perform the subspace rotation
 perform sub-space diagonalisation
    after iterative eigenvector-optimisation
 modified Broyden-mixing scheme, WC =      100.0
 initial mixing is a Kerker type mixing with AMIX =  0.1000 and BMIX =      0.0001
 Hartree-type preconditioning will be used
 using additional bands           11
 reciprocal scheme for non local part
 calculate Harris-corrections to forces 
   (improved forces if not selfconsistent)
 use gradient corrections 
 use of overlap-Matrix (Vanderbilt PP)
 Gauss-broadening in eV      SIGMA  =   0.01


--------------------------------------------------------------------------------------------------------


  energy-cutoff  :      473.51
  volume of cell :       72.95
      direct lattice vectors                 reciprocal lattice vectors
     2.294498594  0.000000000  0.000000000     0.435825065  0.251623719  0.000000000
    -1.147249297  1.987094072  0.000000000     0.000000000  0.503247438  0.000000000
     0.000000000  0.000000000 16.000000000     0.000000000  0.000000000  0.062500000

  length of vectors
     2.294498594  2.294498594 16.000000000     0.503247438  0.503247438  0.062500000


 
 k-points in units of 2pi/SCALE and weight: kpoints                                 
   0.00000000  0.00000000  0.00000000       0.003
   0.02179125  0.01258119  0.00000000       0.005
   0.00000000  0.02516237  0.00000000       0.005
  -0.02179125  0.01258119  0.00000000       0.005
   0.04358251  0.02516237  0.00000000       0.005
   0.00000000  0.05032474  0.00000000       0.005
  -0.04358251  0.02516237  0.00000000       0.005
   0.06537376  0.03774356  0.00000000       0.005
   0.00000000  0.07548712  0.00000000       0.005
  -0.06537376  0.03774356  0.00000000       0.005
   0.08716501  0.05032474  0.00000000       0.005
   0.00000000  0.10064949  0.00000000       0.005
  -0.08716501  0.05032474  0.00000000       0.005
   0.10895627  0.06290593  0.00000000       0.005
   0.00000000  0.12581186  0.00000000       0.005
  -0.10895627  0.06290593  0.00000000       0.005
   0.13074752  0.07548712  0.00000000       0.005
   0.00000000  0.15097423  0.00000000       0.005
  -0.13074752  0.07548712  0.00000000       0.005
   0.15253877  0.08806830  0.00000000       0.005
   0.00000000  0.17613660  0.00000000       0.005
  -0.15253877  0.08806830  0.00000000       0.005
   0.17433003  0.10064949  0.00000000       0.005
   0.00000000  0.20129898  0.00000000       0.005
  -0.17433003  0.10064949  0.00000000       0.005
   0.19612128  0.11323067  0.00000000       0.005
   0.00000000  0.22646135  0.00000000       0.005
  -0.19612128  0.11323067  0.00000000       0.005
   0.21791253  0.12581186  0.00000000       0.003
   0.00000000  0.25162372  0.00000000       0.003
   0.21791253  0.37743558  0.00000000       0.003
   0.02179125  0.03774356  0.00000000       0.005
  -0.02179125  0.03774356  0.00000000       0.005
  -0.04358251  0.00000000  0.00000000       0.005
   0.04358251  0.05032474  0.00000000       0.005
  -0.02179125  0.06290593  0.00000000       0.005
  -0.06537376  0.01258119  0.00000000       0.005
  -0.04358251  0.05032474  0.00000000       0.005
   0.02179125  0.06290593  0.00000000       0.005
   0.06537376  0.01258119  0.00000000       0.005
   0.06537376  0.06290593  0.00000000       0.005
  -0.02179125  0.08806830  0.00000000       0.005
  -0.08716501  0.02516237  0.00000000       0.005
  -0.06537376  0.06290593  0.00000000       0.005
   0.02179125  0.08806830  0.00000000       0.005
   0.08716501  0.02516237  0.00000000       0.005
   0.08716501  0.07548712  0.00000000       0.005
  -0.02179125  0.11323067  0.00000000       0.005
  -0.10895627  0.03774356  0.00000000       0.005
  -0.08716501  0.07548712  0.00000000       0.005
   0.02179125  0.11323067  0.00000000       0.005
   0.10895627  0.03774356  0.00000000       0.005
   0.10895627  0.08806830  0.00000000       0.005
  -0.02179125  0.13839305  0.00000000       0.005
  -0.13074752  0.05032474  0.00000000       0.005
  -0.10895627  0.08806830  0.00000000       0.005
   0.02179125  0.13839305  0.00000000       0.005
   0.13074752  0.05032474  0.00000000       0.005
   0.13074752  0.10064949  0.00000000       0.005
  -0.02179125  0.16355542  0.00000000       0.005
  -0.15253877  0.06290593  0.00000000       0.005
  -0.13074752  0.10064949  0.00000000       0.005
   0.02179125  0.16355542  0.00000000       0.005
   0.15253877  0.06290593  0.00000000       0.005
   0.15253877  0.11323067  0.00000000       0.005
  -0.02179125  0.18871779  0.00000000       0.005
  -0.17433003  0.07548712  0.00000000       0.005
  -0.15253877  0.11323067  0.00000000       0.005
   0.02179125  0.18871779  0.00000000       0.005
   0.17433003  0.07548712  0.00000000       0.005
   0.17433003  0.12581186  0.00000000       0.005
  -0.02179125  0.21388016  0.00000000       0.005
  -0.19612128  0.08806830  0.00000000       0.005
  -0.17433003  0.12581186  0.00000000       0.005
   0.02179125  0.21388016  0.00000000       0.005
   0.19612128  0.08806830  0.00000000       0.005
   0.19612128  0.13839305  0.00000000       0.005
  -0.02179125  0.23904253  0.00000000       0.005
   0.21791253  0.35227321  0.00000000       0.005
  -0.19612128  0.13839305  0.00000000       0.005
   0.02179125  0.23904253  0.00000000       0.005
   0.21791253  0.10064949  0.00000000       0.005
   0.04358251  0.07548712  0.00000000       0.005
  -0.04358251  0.07548712  0.00000000       0.005
  -0.08716501  0.00000000  0.00000000       0.005
   0.06537376  0.08806830  0.00000000       0.005
  -0.04358251  0.10064949  0.00000000       0.005
  -0.10895627  0.01258119  0.00000000       0.005
  -0.06537376  0.08806830  0.00000000       0.005
   0.04358251  0.10064949  0.00000000       0.005
   0.10895627  0.01258119  0.00000000       0.005
   0.08716501  0.10064949  0.00000000       0.005
  -0.04358251  0.12581186  0.00000000       0.005
  -0.13074752  0.02516237  0.00000000       0.005
  -0.08716501  0.10064949  0.00000000       0.005
   0.04358251  0.12581186  0.00000000       0.005
   0.13074752  0.02516237  0.00000000       0.005
   0.10895627  0.11323067  0.00000000       0.005
  -0.04358251  0.15097423  0.00000000       0.005
  -0.15253877  0.03774356  0.00000000       0.005
  -0.10895627  0.11323067  0.00000000       0.005
   0.04358251  0.15097423  0.00000000       0.005
   0.15253877  0.03774356  0.00000000       0.005
   0.13074752  0.12581186  0.00000000       0.005
  -0.04358251  0.17613660  0.00000000       0.005
  -0.17433003  0.05032474  0.00000000       0.005
  -0.13074752  0.12581186  0.00000000       0.005
   0.04358251  0.17613660  0.00000000       0.005
   0.17433003  0.05032474  0.00000000       0.005
   0.15253877  0.13839305  0.00000000       0.005
  -0.04358251  0.20129898  0.00000000       0.005
  -0.19612128  0.06290593  0.00000000       0.005
  -0.15253877  0.13839305  0.00000000       0.005
   0.04358251  0.20129898  0.00000000       0.005
   0.19612128  0.06290593  0.00000000       0.005
   0.17433003  0.15097423  0.00000000       0.005
  -0.04358251  0.22646135  0.00000000       0.005
   0.21791253  0.32711083  0.00000000       0.005
  -0.17433003  0.15097423  0.00000000       0.005
   0.04358251  0.22646135  0.00000000       0.005
   0.21791253  0.07548712  0.00000000       0.005
   0.19612128  0.16355542  0.00000000       0.005
  -0.04358251 -0.25162372  0.00000000       0.005
   0.19612128  0.33969202  0.00000000       0.005
   0.06537376  0.11323067  0.00000000       0.005
  -0.06537376  0.11323067  0.00000000       0.005
  -0.13074752  0.00000000  0.00000000       0.005
   0.08716501  0.12581186  0.00000000       0.005
  -0.06537376  0.13839305  0.00000000       0.005
  -0.15253877  0.01258119  0.00000000       0.005
  -0.08716501  0.12581186  0.00000000       0.005
   0.06537376  0.13839305  0.00000000       0.005
   0.15253877  0.01258119  0.00000000       0.005
   0.10895627  0.13839305  0.00000000       0.005
  -0.06537376  0.16355542  0.00000000       0.005
  -0.17433003  0.02516237  0.00000000       0.005
  -0.10895627  0.13839305  0.00000000       0.005
   0.06537376  0.16355542  0.00000000       0.005
   0.17433003  0.02516237  0.00000000       0.005
   0.13074752  0.15097423  0.00000000       0.005
  -0.06537376  0.18871779  0.00000000       0.005
  -0.19612128  0.03774356  0.00000000       0.005
  -0.13074752  0.15097423  0.00000000       0.005
   0.06537376  0.18871779  0.00000000       0.005
   0.19612128  0.03774356  0.00000000       0.005
   0.15253877  0.16355542  0.00000000       0.005
  -0.06537376  0.21388016  0.00000000       0.005
   0.21791253  0.30194846  0.00000000       0.005
  -0.15253877  0.16355542  0.00000000       0.005
   0.06537376  0.21388016  0.00000000       0.005
   0.21791253  0.05032474  0.00000000       0.005
   0.17433003  0.17613660  0.00000000       0.005
  -0.06537376 -0.26420490  0.00000000       0.005
   0.19612128  0.31452965  0.00000000       0.005
  -0.17433003 -0.32711083  0.00000000       0.005
   0.06537376  0.23904253  0.00000000       0.005
  -0.19612128 -0.18871779  0.00000000       0.005
   0.08716501  0.15097423  0.00000000       0.005
  -0.08716501  0.15097423  0.00000000       0.005
  -0.17433003  0.00000000  0.00000000       0.005
   0.10895627  0.16355542  0.00000000       0.005
  -0.08716501  0.17613660  0.00000000       0.005
  -0.19612128  0.01258119  0.00000000       0.005
  -0.10895627  0.16355542  0.00000000       0.005
   0.08716501  0.17613660  0.00000000       0.005
   0.19612128  0.01258119  0.00000000       0.005
   0.13074752  0.17613660  0.00000000       0.005
  -0.08716501  0.20129898  0.00000000       0.005
   0.21791253  0.27678609  0.00000000       0.005
  -0.13074752  0.17613660  0.00000000       0.005
   0.08716501  0.20129898  0.00000000       0.005
   0.21791253  0.02516237  0.00000000       0.005
   0.15253877  0.18871779  0.00000000       0.005
  -0.08716501 -0.27678609  0.00000000       0.005
   0.19612128  0.28936728  0.00000000       0.005
  -0.15253877 -0.31452965  0.00000000       0.005
   0.08716501  0.22646135  0.00000000       0.005
  -0.19612128 -0.21388016  0.00000000       0.005
   0.17433003  0.20129898  0.00000000       0.005
  -0.08716501 -0.25162372  0.00000000       0.005
   0.17433003  0.30194846  0.00000000       0.005
   0.10895627  0.18871779  0.00000000       0.005
  -0.10895627  0.18871779  0.00000000       0.005
   0.21791253  0.25162372  0.00000000       0.005
   0.13074752  0.20129898  0.00000000       0.005
  -0.10895627 -0.28936728  0.00000000       0.005
   0.19612128  0.26420490  0.00000000       0.005
  -0.13074752 -0.30194846  0.00000000       0.005
   0.10895627  0.21388016  0.00000000       0.005
  -0.19612128 -0.23904253  0.00000000       0.005
   0.15253877  0.21388016  0.00000000       0.005
  -0.10895627 -0.26420490  0.00000000       0.005
   0.17433003  0.27678609  0.00000000       0.005
  -0.15253877 -0.28936728  0.00000000       0.005
   0.10895627  0.23904253  0.00000000       0.005
  -0.17433003 -0.22646135  0.00000000       0.005
   0.13074752  0.22646135  0.00000000       0.005
  -0.13074752 -0.27678609  0.00000000       0.005
   0.17433003  0.25162372  0.00000000       0.005
   0.15253877  0.23904253  0.00000000       0.005
  -0.13074752 -0.25162372  0.00000000       0.005
   0.15253877  0.26420490  0.00000000       0.005
 
 k-points in reciprocal lattice and weights: kpoints                                 
   0.00000000  0.00000000  0.00000000       0.003
   0.05000000  0.00000000  0.00000000       0.005
   0.00000000  0.05000000  0.00000000       0.005
  -0.05000000  0.05000000  0.00000000       0.005
   0.10000000  0.00000000  0.00000000       0.005
   0.00000000  0.10000000  0.00000000       0.005
  -0.10000000  0.10000000  0.00000000       0.005
   0.15000000  0.00000000  0.00000000       0.005
   0.00000000  0.15000000  0.00000000       0.005
  -0.15000000  0.15000000  0.00000000       0.005
   0.20000000  0.00000000  0.00000000       0.005
   0.00000000  0.20000000  0.00000000       0.005
  -0.20000000  0.20000000  0.00000000       0.005
   0.25000000  0.00000000  0.00000000       0.005
   0.00000000  0.25000000  0.00000000       0.005
  -0.25000000  0.25000000  0.00000000       0.005
   0.30000000  0.00000000  0.00000000       0.005
   0.00000000  0.30000000  0.00000000       0.005
  -0.30000000  0.30000000  0.00000000       0.005
   0.35000000 -0.00000000  0.00000000       0.005
   0.00000000  0.35000000  0.00000000       0.005
  -0.35000000  0.35000000  0.00000000       0.005
   0.40000000  0.00000000  0.00000000       0.005
   0.00000000  0.40000000  0.00000000       0.005
  -0.40000000  0.40000000  0.00000000       0.005
   0.45000000  0.00000000  0.00000000       0.005
   0.00000000  0.45000000  0.00000000       0.005
  -0.45000000  0.45000000  0.00000000       0.005
   0.50000000  0.00000000  0.00000000       0.003
   0.00000000  0.50000000  0.00000000       0.003
   0.50000000  0.50000000  0.00000000       0.003
   0.05000000  0.05000000  0.00000000       0.005
  -0.05000000  0.10000000  0.00000000       0.005
  -0.10000000  0.05000000  0.00000000       0.005
   0.10000000  0.05000000  0.00000000       0.005
  -0.05000000  0.15000000  0.00000000       0.005
  -0.15000000  0.10000000  0.00000000       0.005
  -0.10000000  0.15000000  0.00000000       0.005
   0.05000000  0.10000000  0.00000000       0.005
   0.15000000 -0.05000000  0.00000000       0.005
   0.15000000  0.05000000  0.00000000       0.005
  -0.05000000  0.20000000  0.00000000       0.005
  -0.20000000  0.15000000  0.00000000       0.005
  -0.15000000  0.20000000  0.00000000       0.005
   0.05000000  0.15000000  0.00000000       0.005
   0.20000000 -0.05000000  0.00000000       0.005
   0.20000000  0.05000000  0.00000000       0.005
  -0.05000000  0.25000000  0.00000000       0.005
  -0.25000000  0.20000000  0.00000000       0.005
  -0.20000000  0.25000000  0.00000000       0.005
   0.05000000  0.20000000  0.00000000       0.005
   0.25000000 -0.05000000  0.00000000       0.005
   0.25000000  0.05000000  0.00000000       0.005
  -0.05000000  0.30000000  0.00000000       0.005
  -0.30000000  0.25000000  0.00000000       0.005
  -0.25000000  0.30000000  0.00000000       0.005
   0.05000000  0.25000000  0.00000000       0.005
   0.30000000 -0.05000000  0.00000000       0.005
   0.30000000  0.05000000  0.00000000       0.005
  -0.05000000  0.35000000  0.00000000       0.005
  -0.35000000  0.30000000  0.00000000       0.005
  -0.30000000  0.35000000  0.00000000       0.005
   0.05000000  0.30000000  0.00000000       0.005
   0.35000000 -0.05000000  0.00000000       0.005
   0.35000000  0.05000000  0.00000000       0.005
  -0.05000000  0.40000000  0.00000000       0.005
  -0.40000000  0.35000000  0.00000000       0.005
  -0.35000000  0.40000000  0.00000000       0.005
   0.05000000  0.35000000  0.00000000       0.005
   0.40000000 -0.05000000  0.00000000       0.005
   0.40000000  0.05000000  0.00000000       0.005
  -0.05000000  0.45000000  0.00000000       0.005
  -0.45000000  0.40000000  0.00000000       0.005
  -0.40000000  0.45000000  0.00000000       0.005
   0.05000000  0.40000000  0.00000000       0.005
   0.45000000 -0.05000000  0.00000000       0.005
   0.45000000  0.05000000  0.00000000       0.005
  -0.05000000  0.50000000  0.00000000       0.005
   0.50000000  0.45000000  0.00000000       0.005
  -0.45000000  0.50000000  0.00000000       0.005
   0.05000000  0.45000000  0.00000000       0.005
   0.50000000 -0.05000000  0.00000000       0.005
   0.10000000  0.10000000  0.00000000       0.005
  -0.10000000  0.20000000  0.00000000       0.005
  -0.20000000  0.10000000  0.00000000       0.005
   0.15000000  0.10000000  0.00000000       0.005
  -0.10000000  0.25000000  0.00000000       0.005
  -0.25000000  0.15000000  0.00000000       0.005
  -0.15000000  0.25000000  0.00000000       0.005
   0.10000000  0.15000000  0.00000000       0.005
   0.25000000 -0.10000000  0.00000000       0.005
   0.20000000  0.10000000  0.00000000       0.005
  -0.10000000  0.30000000  0.00000000       0.005
  -0.30000000  0.20000000  0.00000000       0.005
  -0.20000000  0.30000000  0.00000000       0.005
   0.10000000  0.20000000  0.00000000       0.005
   0.30000000 -0.10000000  0.00000000       0.005
   0.25000000  0.10000000  0.00000000       0.005
  -0.10000000  0.35000000  0.00000000       0.005
  -0.35000000  0.25000000  0.00000000       0.005
  -0.25000000  0.35000000  0.00000000       0.005
   0.10000000  0.25000000  0.00000000       0.005
   0.35000000 -0.10000000  0.00000000       0.005
   0.30000000  0.10000000  0.00000000       0.005
  -0.10000000  0.40000000  0.00000000       0.005
  -0.40000000  0.30000000  0.00000000       0.005
  -0.30000000  0.40000000  0.00000000       0.005
   0.10000000  0.30000000  0.00000000       0.005
   0.40000000 -0.10000000  0.00000000       0.005
   0.35000000  0.10000000  0.00000000       0.005
  -0.10000000  0.45000000  0.00000000       0.005
  -0.45000000  0.35000000  0.00000000       0.005
  -0.35000000  0.45000000  0.00000000       0.005
   0.10000000  0.35000000  0.00000000       0.005
   0.45000000 -0.10000000  0.00000000       0.005
   0.40000000  0.10000000  0.00000000       0.005
  -0.10000000  0.50000000  0.00000000       0.005
   0.50000000  0.40000000  0.00000000       0.005
  -0.40000000  0.50000000  0.00000000       0.005
   0.10000000  0.40000000  0.00000000       0.005
   0.50000000 -0.10000000  0.00000000       0.005
   0.45000000  0.10000000  0.00000000       0.005
  -0.10000000 -0.45000000  0.00000000       0.005
   0.45000000  0.45000000  0.00000000       0.005
   0.15000000  0.15000000  0.00000000       0.005
  -0.15000000  0.30000000  0.00000000       0.005
  -0.30000000  0.15000000  0.00000000       0.005
   0.20000000  0.15000000  0.00000000       0.005
  -0.15000000  0.35000000  0.00000000       0.005
  -0.35000000  0.20000000  0.00000000       0.005
  -0.20000000  0.35000000  0.00000000       0.005
   0.15000000  0.20000000  0.00000000       0.005
   0.35000000 -0.15000000  0.00000000       0.005
   0.25000000  0.15000000  0.00000000       0.005
  -0.15000000  0.40000000  0.00000000       0.005
  -0.40000000  0.25000000  0.00000000       0.005
  -0.25000000  0.40000000  0.00000000       0.005
   0.15000000  0.25000000  0.00000000       0.005
   0.40000000 -0.15000000  0.00000000       0.005
   0.30000000  0.15000000  0.00000000       0.005
  -0.15000000  0.45000000  0.00000000       0.005
  -0.45000000  0.30000000  0.00000000       0.005
  -0.30000000  0.45000000  0.00000000       0.005
   0.15000000  0.30000000  0.00000000       0.005
   0.45000000 -0.15000000  0.00000000       0.005
   0.35000000  0.15000000  0.00000000       0.005
  -0.15000000  0.50000000  0.00000000       0.005
   0.50000000  0.35000000  0.00000000       0.005
  -0.35000000  0.50000000  0.00000000       0.005
   0.15000000  0.35000000  0.00000000       0.005
   0.50000000 -0.15000000  0.00000000       0.005
   0.40000000  0.15000000  0.00000000       0.005
  -0.15000000 -0.45000000  0.00000000       0.005
   0.45000000  0.40000000  0.00000000       0.005
  -0.40000000 -0.45000000  0.00000000       0.005
   0.15000000  0.40000000  0.00000000       0.005
  -0.45000000 -0.15000000  0.00000000       0.005
[...]
 -0.150000  0.100000  0.000000      2.000000
 -0.100000  0.150000  0.000000      2.000000
  0.050000  0.100000  0.000000      2.000000
  0.150000 -0.050000  0.000000      2.000000
  0.150000  0.050000  0.000000      2.000000
 -0.050000  0.200000  0.000000      2.000000
 -0.200000  0.150000  0.000000      2.000000
 -0.150000  0.200000  0.000000      2.000000
  0.050000  0.150000  0.000000      2.000000
  0.200000 -0.050000  0.000000      2.000000
  0.200000  0.050000  0.000000      2.000000
 -0.050000  0.250000  0.000000      2.000000
 -0.250000  0.200000  0.000000      2.000000
 -0.200000  0.250000  0.000000      2.000000
  0.050000  0.200000  0.000000      2.000000
  0.250000 -0.050000  0.000000      2.000000
  0.250000  0.050000  0.000000      2.000000
 -0.050000  0.300000  0.000000      2.000000
 -0.300000  0.250000  0.000000      2.000000
 -0.250000  0.300000  0.000000      2.000000
  0.050000  0.250000  0.000000      2.000000
  0.300000 -0.050000  0.000000      2.000000
  0.300000  0.050000  0.000000      2.000000
 -0.050000  0.350000  0.000000      2.000000
 -0.350000  0.300000  0.000000      2.000000
 -0.300000  0.350000  0.000000      2.000000
  0.050000  0.300000  0.000000      2.000000
  0.350000 -0.050000  0.000000      2.000000
  0.350000  0.050000  0.000000      2.000000
 -0.050000  0.400000  0.000000      2.000000
 -0.400000  0.350000  0.000000      2.000000
 -0.350000  0.400000  0.000000      2.000000
  0.050000  0.350000  0.000000      2.000000
  0.400000 -0.050000  0.000000      2.000000
  0.400000  0.050000  0.000000      2.000000
 -0.050000  0.450000  0.000000      2.000000
 -0.450000  0.400000  0.000000      2.000000
 -0.400000  0.450000  0.000000      2.000000
  0.050000  0.400000  0.000000      2.000000
  0.450000 -0.050000  0.000000      2.000000
  0.450000  0.050000  0.000000      2.000000
 -0.050000  0.500000  0.000000      2.000000
  0.500000  0.450000  0.000000      2.000000
 -0.450000  0.500000  0.000000      2.000000
  0.050000  0.450000  0.000000      2.000000
  0.500000 -0.050000  0.000000      2.000000
  0.100000  0.100000  0.000000      2.000000
 -0.100000  0.200000  0.000000      2.000000
 -0.200000  0.100000  0.000000      2.000000
  0.150000  0.100000  0.000000      2.000000
 -0.100000  0.250000  0.000000      2.000000
 -0.250000  0.150000  0.000000      2.000000
 -0.150000  0.250000  0.000000      2.000000
  0.100000  0.150000  0.000000      2.000000
  0.250000 -0.100000  0.000000      2.000000
  0.200000  0.100000  0.000000      2.000000
 -0.100000  0.300000  0.000000      2.000000
 -0.300000  0.200000  0.000000      2.000000
 -0.200000  0.300000  0.000000      2.000000
  0.100000  0.200000  0.000000      2.000000
  0.300000 -0.100000  0.000000      2.000000
  0.250000  0.100000  0.000000      2.000000
 -0.100000  0.350000  0.000000      2.000000
 -0.350000  0.250000  0.000000      2.000000
 -0.250000  0.350000  0.000000      2.000000
  0.100000  0.250000  0.000000      2.000000
  0.350000 -0.100000  0.000000      2.000000
  0.300000  0.100000  0.000000      2.000000
 -0.100000  0.400000  0.000000      2.000000
 -0.400000  0.300000  0.000000      2.000000
 -0.300000  0.400000  0.000000      2.000000
  0.100000  0.300000  0.000000      2.000000
  0.400000 -0.100000  0.000000      2.000000
  0.350000  0.100000  0.000000      2.000000
 -0.100000  0.450000  0.000000      2.000000
 -0.450000  0.350000  0.000000      2.000000
 -0.350000  0.450000  0.000000      2.000000
  0.100000  0.350000  0.000000      2.000000
  0.450000 -0.100000  0.000000      2.000000
  0.400000  0.100000  0.000000      2.000000
 -0.100000  0.500000  0.000000      2.000000
  0.500000  0.400000  0.000000      2.000000
 -0.400000  0.500000  0.000000      2.000000
  0.100000  0.400000  0.000000      2.000000
  0.500000 -0.100000  0.000000      2.000000
  0.450000  0.100000  0.000000      2.000000
 -0.100000 -0.450000  0.000000      2.000000
  0.450000  0.450000  0.000000      2.000000
  0.150000  0.150000  0.000000      2.000000
 -0.150000  0.300000  0.000000      2.000000
 -0.300000  0.150000  0.000000      2.000000
  0.200000  0.150000  0.000000      2.000000
 -0.150000  0.350000  0.000000      2.000000
 -0.350000  0.200000  0.000000      2.000000
 -0.200000  0.350000  0.000000      2.000000
  0.150000  0.200000  0.000000      2.000000
  0.350000 -0.150000  0.000000      2.000000
  0.250000  0.150000  0.000000      2.000000
 -0.150000  0.400000  0.000000      2.000000
 -0.400000  0.250000  0.000000      2.000000
 -0.250000  0.400000  0.000000      2.000000
  0.150000  0.250000  0.000000      2.000000
  0.400000 -0.150000  0.000000      2.000000
  0.300000  0.150000  0.000000      2.000000
 -0.150000  0.450000  0.000000      2.000000
 -0.450000  0.300000  0.000000      2.000000
 -0.300000  0.450000  0.000000      2.000000
  0.150000  0.300000  0.000000      2.000000
  0.450000 -0.150000  0.000000      2.000000
  0.350000  0.150000  0.000000      2.000000
 -0.150000  0.500000  0.000000      2.000000
  0.500000  0.350000  0.000000      2.000000
 -0.350000  0.500000  0.000000      2.000000
  0.150000  0.350000  0.000000      2.000000
  0.500000 -0.150000  0.000000      2.000000
  0.400000  0.150000  0.000000      2.000000
 -0.150000 -0.450000  0.000000      2.000000
  0.450000  0.400000  0.000000      2.000000
 -0.400000 -0.450000  0.000000      2.000000
  0.150000  0.400000  0.000000      2.000000
 -0.450000 -0.150000  0.000000      2.000000
  0.200000  0.200000  0.000000      2.000000
 -0.200000  0.400000  0.000000      2.000000
 -0.400000  0.200000  0.000000      2.000000
  0.250000  0.200000  0.000000      2.000000
 -0.200000  0.450000  0.000000      2.000000
 -0.450000  0.250000  0.000000      2.000000
 -0.250000  0.450000  0.000000      2.000000
  0.200000  0.250000  0.000000      2.000000
  0.450000 -0.200000  0.000000      2.000000
  0.300000  0.200000  0.000000      2.000000
 -0.200000  0.500000  0.000000      2.000000
  0.500000  0.300000  0.000000      2.000000
 -0.300000  0.500000  0.000000      2.000000
  0.200000  0.300000  0.000000      2.000000
  0.500000 -0.200000  0.000000      2.000000
  0.350000  0.200000  0.000000      2.000000
 -0.200000 -0.450000  0.000000      2.000000
  0.450000  0.350000  0.000000      2.000000
 -0.350000 -0.450000  0.000000      2.000000
  0.200000  0.350000  0.000000      2.000000
 -0.450000 -0.200000  0.000000      2.000000
  0.400000  0.200000  0.000000      2.000000
 -0.200000 -0.400000  0.000000      2.000000
  0.400000  0.400000  0.000000      2.000000
  0.250000  0.250000  0.000000      2.000000
 -0.250000  0.500000  0.000000      2.000000
  0.500000  0.250000  0.000000      2.000000
  0.300000  0.250000  0.000000      2.000000
 -0.250000 -0.450000  0.000000      2.000000
  0.450000  0.300000  0.000000      2.000000
 -0.300000 -0.450000  0.000000      2.000000
  0.250000  0.300000  0.000000      2.000000
 -0.450000 -0.250000  0.000000      2.000000
  0.350000  0.250000  0.000000      2.000000
 -0.250000 -0.400000  0.000000      2.000000
  0.400000  0.350000  0.000000      2.000000
 -0.350000 -0.400000  0.000000      2.000000
  0.250000  0.350000  0.000000      2.000000
 -0.400000 -0.250000  0.000000      2.000000
  0.300000  0.300000  0.000000      2.000000
 -0.300000 -0.400000  0.000000      2.000000
  0.400000  0.300000  0.000000      2.000000
  0.350000  0.300000  0.000000      2.000000
 -0.300000 -0.350000  0.000000      2.000000
  0.350000  0.350000  0.000000      2.000000
 
 Following cartesian coordinates:
            Coordinates               Weight
  0.000000  0.000000  0.000000      1.000000
  0.021791  0.012581  0.000000      2.000000
  0.000000  0.025162  0.000000      2.000000
 -0.021791  0.012581  0.000000      2.000000
  0.043583  0.025162  0.000000      2.000000
  0.000000  0.050325  0.000000      2.000000
 -0.043583  0.025162  0.000000      2.000000
  0.065374  0.037744  0.000000      2.000000
  0.000000  0.075487  0.000000      2.000000
 -0.065374  0.037744  0.000000      2.000000
  0.087165  0.050325  0.000000      2.000000
  0.000000  0.100649  0.000000      2.000000
 -0.087165  0.050325  0.000000      2.000000
  0.108956  0.062906  0.000000      2.000000
  0.000000  0.125812  0.000000      2.000000
 -0.108956  0.062906  0.000000      2.000000
  0.130748  0.075487  0.000000      2.000000
  0.000000  0.150974  0.000000      2.000000
 -0.130748  0.075487  0.000000      2.000000
  0.152539  0.088068  0.000000      2.000000
  0.000000  0.176137  0.000000      2.000000
 -0.152539  0.088068  0.000000      2.000000
  0.174330  0.100649  0.000000      2.000000
  0.000000  0.201299  0.000000      2.000000
 -0.174330  0.100649  0.000000      2.000000
  0.196121  0.113231  0.000000      2.000000
  0.000000  0.226461  0.000000      2.000000
 -0.196121  0.113231  0.000000      2.000000
  0.217913  0.125812  0.000000      1.000000
  0.000000  0.251624  0.000000      1.000000
  0.217913  0.377436  0.000000      1.000000
  0.021791  0.037744  0.000000      2.000000
 -0.021791  0.037744  0.000000      2.000000
 -0.043583  0.000000  0.000000      2.000000
  0.043583  0.050325  0.000000      2.000000
 -0.021791  0.062906  0.000000      2.000000
 -0.065374  0.012581  0.000000      2.000000
 -0.043583  0.050325  0.000000      2.000000
  0.021791  0.062906  0.000000      2.000000
  0.065374  0.012581  0.000000      2.000000
  0.065374  0.062906  0.000000      2.000000
 -0.021791  0.088068  0.000000      2.000000
 -0.087165  0.025162  0.000000      2.000000
 -0.065374  0.062906  0.000000      2.000000
  0.021791  0.088068  0.000000      2.000000
  0.087165  0.025162  0.000000      2.000000
  0.087165  0.075487  0.000000      2.000000
 -0.021791  0.113231  0.000000      2.000000
 -0.108956  0.037744  0.000000      2.000000
 -0.087165  0.075487  0.000000      2.000000
  0.021791  0.113231  0.000000      2.000000
  0.108956  0.037744  0.000000      2.000000
  0.108956  0.088068  0.000000      2.000000
 -0.021791  0.138393  0.000000      2.000000
 -0.130748  0.050325  0.000000      2.000000
 -0.108956  0.088068  0.000000      2.000000
  0.021791  0.138393  0.000000      2.000000
  0.130748  0.050325  0.000000      2.000000
  0.130748  0.100649  0.000000      2.000000
 -0.021791  0.163555  0.000000      2.000000
 -0.152539  0.062906  0.000000      2.000000
 -0.130748  0.100649  0.000000      2.000000
  0.021791  0.163555  0.000000      2.000000
  0.152539  0.062906  0.000000      2.000000
  0.152539  0.113231  0.000000      2.000000
 -0.021791  0.188718  0.000000      2.000000
 -0.174330  0.075487  0.000000      2.000000
 -0.152539  0.113231  0.000000      2.000000
  0.021791  0.188718  0.000000      2.000000
  0.174330  0.075487  0.000000      2.000000
  0.174330  0.125812  0.000000      2.000000
 -0.021791  0.213880  0.000000      2.000000
 -0.196121  0.088068  0.000000      2.000000
 -0.174330  0.125812  0.000000      2.000000
  0.021791  0.213880  0.000000      2.000000
  0.196121  0.088068  0.000000      2.000000
  0.196121  0.138393  0.000000      2.000000
 -0.021791  0.239043  0.000000      2.000000
  0.217913  0.352273  0.000000      2.000000
 -0.196121  0.138393  0.000000      2.000000
  0.021791  0.239043  0.000000      2.000000
  0.217913  0.100649  0.000000      2.000000
  0.043583  0.075487  0.000000      2.000000
 -0.043583  0.075487  0.000000      2.000000
 -0.087165  0.000000  0.000000      2.000000
  0.065374  0.088068  0.000000      2.000000
 -0.043583  0.100649  0.000000      2.000000
 -0.108956  0.012581  0.000000      2.000000
 -0.065374  0.088068  0.000000      2.000000
  0.043583  0.100649  0.000000      2.000000
  0.108956  0.012581  0.000000      2.000000
  0.087165  0.100649  0.000000      2.000000
 -0.043583  0.125812  0.000000      2.000000
 -0.130748  0.025162  0.000000      2.000000
 -0.087165  0.100649  0.000000      2.000000
  0.043583  0.125812  0.000000      2.000000
  0.130748  0.025162  0.000000      2.000000
  0.108956  0.113231  0.000000      2.000000
 -0.043583  0.150974  0.000000      2.000000
 -0.152539  0.037744  0.000000      2.000000
 -0.108956  0.113231  0.000000      2.000000
  0.043583  0.150974  0.000000      2.000000
  0.152539  0.037744  0.000000      2.000000
  0.130748  0.125812  0.000000      2.000000
 -0.043583  0.176137  0.000000      2.000000
 -0.174330  0.050325  0.000000      2.000000
 -0.130748  0.125812  0.000000      2.000000
  0.043583  0.176137  0.000000      2.000000
  0.174330  0.050325  0.000000      2.000000
  0.152539  0.138393  0.000000      2.000000
 -0.043583  0.201299  0.000000      2.000000
 -0.196121  0.062906  0.000000      2.000000
 -0.152539  0.138393  0.000000      2.000000
  0.043583  0.201299  0.000000      2.000000
  0.196121  0.062906  0.000000      2.000000
  0.174330  0.150974  0.000000      2.000000
 -0.043583  0.226461  0.000000      2.000000
  0.217913  0.327111  0.000000      2.000000
 -0.174330  0.150974  0.000000      2.000000
  0.043583  0.226461  0.000000      2.000000
  0.217913  0.075487  0.000000      2.000000
  0.196121  0.163555  0.000000      2.000000
 -0.043583 -0.251624  0.000000      2.000000
  0.196121  0.339692  0.000000      2.000000
  0.065374  0.113231  0.000000      2.000000
 -0.065374  0.113231  0.000000      2.000000
 -0.130748  0.000000  0.000000      2.000000
  0.087165  0.125812  0.000000      2.000000
 -0.065374  0.138393  0.000000      2.000000
 -0.152539  0.012581  0.000000      2.000000
 -0.087165  0.125812  0.000000      2.000000
  0.065374  0.138393  0.000000      2.000000
  0.152539  0.012581  0.000000      2.000000
  0.108956  0.138393  0.000000      2.000000
 -0.065374  0.163555  0.000000      2.000000
 -0.174330  0.025162  0.000000      2.000000
 -0.108956  0.138393  0.000000      2.000000
  0.065374  0.163555  0.000000      2.000000
  0.174330  0.025162  0.000000      2.000000
  0.130748  0.150974  0.000000      2.000000
 -0.065374  0.188718  0.000000      2.000000
 -0.196121  0.037744  0.000000      2.000000
 -0.130748  0.150974  0.000000      2.000000
  0.065374  0.188718  0.000000      2.000000
  0.196121  0.037744  0.000000      2.000000
  0.152539  0.163555  0.000000      2.000000
 -0.065374  0.213880  0.000000      2.000000
  0.217913  0.301948  0.000000      2.000000
 -0.152539  0.163555  0.000000      2.000000
  0.065374  0.213880  0.000000      2.000000
  0.217913  0.050325  0.000000      2.000000
  0.174330  0.176137  0.000000      2.000000
 -0.065374 -0.264205  0.000000      2.000000
  0.196121  0.314530  0.000000      2.000000
 -0.174330 -0.327111  0.000000      2.000000
  0.065374  0.239043  0.000000      2.000000
 -0.196121 -0.188718  0.000000      2.000000
  0.087165  0.150974  0.000000      2.000000
 -0.087165  0.150974  0.000000      2.000000
 -0.174330  0.000000  0.000000      2.000000
  0.108956  0.163555  0.000000      2.000000
 -0.087165  0.176137  0.000000      2.000000
 -0.196121  0.012581  0.000000      2.000000
 -0.108956  0.163555  0.000000      2.000000
  0.087165  0.176137  0.000000      2.000000
  0.196121  0.012581  0.000000      2.000000
  0.130748  0.176137  0.000000      2.000000
 -0.087165  0.201299  0.000000      2.000000
  0.217913  0.276786  0.000000      2.000000
 -0.130748  0.176137  0.000000      2.000000
  0.087165  0.201299  0.000000      2.000000
  0.217913  0.025162  0.000000      2.000000
  0.152539  0.188718  0.000000      2.000000
 -0.087165 -0.276786  0.000000      2.000000
  0.196121  0.289367  0.000000      2.000000
 -0.152539 -0.314530  0.000000      2.000000
  0.087165  0.226461  0.000000      2.000000
 -0.196121 -0.213880  0.000000      2.000000
  0.174330  0.201299  0.000000      2.000000
 -0.087165 -0.251624  0.000000      2.000000
  0.174330  0.301948  0.000000      2.000000
  0.108956  0.188718  0.000000      2.000000
 -0.108956  0.188718  0.000000      2.000000
  0.217913  0.251624  0.000000      2.000000
  0.130748  0.201299  0.000000      2.000000
 -0.108956 -0.289367  0.000000      2.000000
  0.196121  0.264205  0.000000      2.000000
 -0.130748 -0.301948  0.000000      2.000000
  0.108956  0.213880  0.000000      2.000000
 -0.196121 -0.239043  0.000000      2.000000
  0.152539  0.213880  0.000000      2.000000
 -0.108956 -0.264205  0.000000      2.000000
  0.174330  0.276786  0.000000      2.000000
 -0.152539 -0.289367  0.000000      2.000000
  0.108956  0.239043  0.000000      2.000000
 -0.174330 -0.226461  0.000000      2.000000
  0.130748  0.226461  0.000000      2.000000
 -0.130748 -0.276786  0.000000      2.000000
  0.174330  0.251624  0.000000      2.000000
  0.152539  0.239043  0.000000      2.000000
 -0.130748 -0.251624  0.000000      2.000000
  0.152539  0.264205  0.000000      2.000000
 


--------------------------------------------------------------------------------------------------------




 MACROSCOPIC STATIC DIELECTRIC TENSOR (including local field effects in DFT)
 ------------------------------------------------------
           2.028587    -0.003123    -0.000378
          -0.003123     2.001533     0.001742
          -0.000365     0.001736     1.171291
 ------------------------------------------------------


 PIEZOELECTRIC TENSOR (including local field effects)  for field in x, y, z        (e  Angst)
          XX          YY          ZZ          XY          YZ          ZX
  --------------------------------------------------------------------------------
  x     0.00000     0.00000     0.00000     0.00000     0.00000     0.00000
  y     0.00000     0.00000     0.00000     0.00000     0.00000     0.00000
  z     0.00000     0.00000     0.00000     0.00000     0.00000     0.00000

 PIEZOELECTRIC TENSOR (including local field effects)  for field in x, y, z        (C/m^2)
          XX          YY          ZZ          XY          YZ          ZX
  --------------------------------------------------------------------------------
  x     0.00000     0.00000     0.00000     0.00000     0.00000     0.00000
  y     0.00000     0.00000     0.00000     0.00000     0.00000     0.00000
  z     0.00000     0.00000     0.00000     0.00000     0.00000     0.00000
 
 BORN EFFECTIVE CHARGES (including local field effects) (in |e|, cummulative output)
 ---------------------------------------------------------------------------------
 ion    1
    1     0.00000     0.00000     0.00000
    2     0.00000     0.00000     0.00000
    3     0.00000     0.00000     0.00000
 ion    2
    1     0.00000     0.00000     0.00000
    2     0.00000     0.00000     0.00000
    3     0.00000     0.00000     0.00000


--------------------------------------------------------------------------------------------------------


     LOOP+:  cpu time    132.5548: real time    136.9561
    4ORBIT:  cpu time      0.0000: real time      0.0000



 total charge

# of ion       s       p       d       tot
------------------------------------------
    1        1.278   2.296   0.000   3.574
    2        1.278   2.296   0.000   3.574
--------------------------------------------------
tot          2.555   4.593   0.000   7.148
 

 total amount of memory used by VASP MPI-rank0    62639. kBytes
=======================================================================

   base      :      30000. kBytes
   nonl-proj :      22602. kBytes
   fftplans  :       2369. kBytes
   grid      :       1974. kBytes
   one-center:          6. kBytes
   wavefun   :       5688. kBytes
 
  
  
 General timing and accounting informations for this job:
 ========================================================
  
                  Total CPU time used (sec):      133.708
                            User time (sec):      133.324
                          System time (sec):        0.384
                         Elapsed time (sec):      139.239
  
                   Maximum memory used (kb):      230308.
                   Average memory used (kb):          N/A
  
                          Minor page faults:        52821
                          Major page faults:         2946
                 Voluntary context switches:          640
