 vasp.6.4.2 20Jul23 (build Nov 14 2023 12:59:38) complex                        
  
 executed on             LinuxIFC date 2023.12.29  16:08:52
 running   16 mpi-ranks, on    1 nodes
 distrk:  each k-point on   16 cores,    1 groups
 distr:  one band on NCORE=   1 cores,   16 groups


--------------------------------------------------------------------------------------------------------


 INCAR:
   ENCUT = 473.514750
   ALGO = Normal
   NELM = 200
   NELMIN = 6
   NELMDL = -12
   EDIFF = 1.0E-6
   AMIX = 0.1
   BMIX = 0.0001
   PREC = Accurate
   IVDW = 0
   ISPIN = 1
   ADDGRID = .TRUE.
   LASPH = .TRUE.
   LREAL = .FALSE.
   LEPSILON = .TRUE.
   ISMEAR = 0
   SIGMA = 0.01
   LORBIT = 10
   NEDOS = 6001
   NWRITE = 3
   LWAVE = .FALSE.
   LCHARG = .FALSE.
   ICHARG = 2
   LELF = .FALSE.
   LVTOT = .FALSE.
   LPLANE = .TRUE.

 POTCAR:    PAW_PBE N_GW 10Apr2007                
 -----------------------------------------------------------------------------
|                                                                             |
|           W    W    AA    RRRRR   N    N  II  N    N   GGGG   !!!           |
|           W    W   A  A   R    R  NN   N  II  NN   N  G    G  !!!           |
|           W    W  A    A  R    R  N N  N  II  N N  N  G       !!!           |
|           W WW W  AAAAAA  RRRRR   N  N N  II  N  N N  G  GGG   !            |
|           WW  WW  A    A  R   R   N   NN  II  N   NN  G    G                |
|           W    W  A    A  R    R  N    N  II  N    N   GGGG   !!!           |
|                                                                             |
|     For optimal performance we recommend to set                             |
|       NCORE = 2 up to number-of-cores-per-socket                            |
|     NCORE specifies how many cores store one orbital (NPAR=cpu/NCORE).      |
|     This setting can greatly improve the performance of VASP for DFT.       |
|     The default, NCORE=1 might be grossly inefficient on modern             |
|     multi-core architectures or massively parallel machines. Do your        |
|     own testing! More info at https://www.vasp.at/wiki/index.php/NCORE      |
|     Unfortunately you need to use the default for GW and RPA                |
|     calculations (for HF NCORE is supported but not extensively tested      |
|     yet).                                                                   |
|                                                                             |
 -----------------------------------------------------------------------------

 POTCAR:    PAW_PBE N_GW 10Apr2007                
   SHA256 =  fd1d2aa6ab9491c135f685514eb348746c96945cd88f417c2825c3c063d62dd8 N_GW/POTCAR           
   COPYR  = (c) Copyright 10Apr2007 Georg Kresse                                                    
   COPYR  = This file is part of the software VASP. Any use, copying, and all other rights are regul
   COPYR  = If you do not have a valid VASP license, you may not use, copy or distribute this file. 
   VRHFIN =N: s2p3                                                                                  
   LEXCH  = PE                                                                                      
   EATOM  =   264.5486 eV,   19.4438 Ry                                                             
                                                                                                    
   TITEL  = PAW_PBE N_GW 10Apr2007                                                                  
   LULTRA =        F    use ultrasoft PP ?                                                          
   IUNSCR =        0    unscreen: 0-lin 1-nonlin 2-no                                               
   RPACOR =    0.000    partial core radius                                                         
   POMASS =   14.001; ZVAL   =    5.000    mass and valenz                                          
   RCORE  =    1.500    outmost cutoff radius                                                       
   RWIGS  =    1.400; RWIGS  =    0.741    wigner-seitz radius (au A)                               
   ENMAX  =  420.902; ENMIN  =  315.677 eV                                                          
   ICORE  =        2    local potential                                                             
   LCOR   =        T    correct aug charges                                                         
   LPAW   =        T    paw PP                                                                      
   EAUG   =  904.640                                                                                
   DEXC   =    0.000                                                                                
   RMAX   =    1.529    core radius for proj-oper                                                   
   RAUG   =    1.300    factor for augmentation sphere                                              
   RDEP   =    1.514    radius for radial grids                                                     
   RDEPT  =    1.100    core radius for aug-charge                                                  
                                                                                                    
   Atomic configuration                                                                             
    4 entries                                                                                       
     n  l   j            E        occ.                                                              
     1  0  0.50      -384.7179   2.0000                                                             
     2  0  0.50       -18.5828   2.0000                                                             
     2  1  0.50        -7.0898   3.0000                                                             
     3  2  1.50        -8.1635   0.0000                                                             
   Description                                                                                      
     l       E           TYP  RCUT    TYP  RCUT                                                     
     0    -18.5828120     23  1.300                                                                 
     0     81.6349560     23  1.300                                                                 
     1     -7.0897854     23  1.500                                                                 
     1     81.6349560     23  1.500                                                                 
     2     -8.1634956      7  1.500                                                                 
  local pseudopotential read in
  kinetic energy density of atom read in
  atomic valenz-charges read in
  non local Contribution for L=           0  read in
    real space projection operators read in
  non local Contribution for L=           0  read in
    real space projection operators read in
  non local Contribution for L=           1  read in
    real space projection operators read in
  non local Contribution for L=           1  read in
    real space projection operators read in
    PAW grid and wavefunctions read in
 
   number of l-projection  operators is LMAX  =           4
   number of lm-projection operators is LMMAX =           8
 
  PAW_PBE N_GW 10Apr2007                :
 energy of atom  1       EATOM= -264.5486
 kinetic energy error for atom=    0.0147 (will be added to EATOM!!)
 
 
 POSCAR: OUTCAR.0001.-1.out 1.0e-02
  positions in cartesian coordinates
  No initial velocities read in
 exchange correlation table for  LEXCH =        8
   RHO(1)=    0.500       N(1)  =     2000
   RHO(2)=  100.500       N(2)  =     4000
 


--------------------------------------------------------------------------------------------------------


 ion  position               nearest neighbor table
   1  0.667  0.333  0.479-   2 1.49   2 1.49   2 1.49
   2  0.333  0.667  0.521-   1 1.49   1 1.49   1 1.49
 
  LATTYP: Found a hexagonal cell.
 ALAT       =     2.2944985944
 C/A-ratio  =     6.9732010465
  
  Lattice vectors:
  
 A1 = (   2.2944985944,   0.0000000000,   0.0000000000)
 A2 = (  -1.1472492972,   1.9870940717,   0.0000000000)
 A3 = (   0.0000000000,   0.0000000000,  16.0000000000)


Analysis of symmetry for initial positions (statically):
=====================================================================
 Subroutine PRICEL returns:
 Original cell was already a primitive cell.
 

 Routine SETGRP: Setting up the symmetry group for a 
 hexagonal supercell.


 Subroutine GETGRP returns: Found 12 space group operations
 (whereof 12 operations were pure point group operations)
 out of a pool of 24 trial point group operations.


The static configuration has the point symmetry D_3d.


Analysis of symmetry for dynamics (positions and initial velocities):
=====================================================================
 Subroutine PRICEL returns:
 Original cell was already a primitive cell.
 

 Routine SETGRP: Setting up the symmetry group for a 
 hexagonal supercell.


 Subroutine GETGRP returns: Found 12 space group operations
 (whereof 12 operations were pure point group operations)
 out of a pool of 24 trial point group operations.


The dynamic configuration has the point symmetry D_3d.


 Subroutine INISYM returns: Found 12 space group operations
 (whereof 12 operations are pure point group operations),
 and found     1 'primitive' translations



 irot  :   1
 --------------------------------------------------------------------
 isymop:   1   0   0
           0   1   0
           0   0   1

 gtrans:     0.0000000     0.0000000     0.0000000

 ptrans:     0.0000000     0.0000000     0.0000000
 
 rotmap:
 (   1->   1)  (   2->   2) 


 irot  :   2
 --------------------------------------------------------------------
 isymop:  -1   0   0
           0  -1   0
           0   0  -1

 gtrans:     0.0000000     0.0000000     0.0000000

 ptrans:     0.0000000     0.0000000     0.0000000
 
 rotmap:
 (   1->   2)  (   2->   1) 


 irot  :   3
 --------------------------------------------------------------------
 isymop:   0  -1   0
           1  -1   0
           0   0   1

 gtrans:     0.0000000     0.0000000     0.0000000

 ptrans:     0.0000000     0.0000000     0.0000000
 
 rotmap:
 (   1->   1)  (   2->   2) 


 irot  :   4
 --------------------------------------------------------------------
 isymop:   0   1   0
          -1   1   0
           0   0  -1

 gtrans:     0.0000000     0.0000000     0.0000000

 ptrans:     0.0000000     0.0000000     0.0000000
 
 rotmap:
 (   1->   2)  (   2->   1) 


 irot  :   5
 --------------------------------------------------------------------
 isymop:  -1   1   0
          -1   0   0
           0   0   1

 gtrans:     0.0000000     0.0000000     0.0000000

 ptrans:     0.0000000     0.0000000     0.0000000
 
 rotmap:
 (   1->   1)  (   2->   2) 


 irot  :   6
 --------------------------------------------------------------------
 isymop:   1  -1   0
           1   0   0
           0   0  -1

 gtrans:     0.0000000     0.0000000     0.0000000

 ptrans:     0.0000000     0.0000000     0.0000000
 
 rotmap:
 (   1->   2)  (   2->   1) 


 irot  :   7
 --------------------------------------------------------------------
 isymop:   1  -1   0
           0  -1   0
           0   0  -1

 gtrans:     0.0000000     0.0000000     0.0000000

 ptrans:     0.0000000     0.0000000     0.0000000
 
 rotmap:
 (   1->   2)  (   2->   1) 


 irot  :   8
 --------------------------------------------------------------------
 isymop:  -1   1   0
           0   1   0
           0   0   1

 gtrans:     0.0000000     0.0000000     0.0000000

 ptrans:     0.0000000     0.0000000     0.0000000
 
 rotmap:
 (   1->   1)  (   2->   2) 


 irot  :   9
 --------------------------------------------------------------------
 isymop:  -1   0   0
          -1   1   0
           0   0  -1

 gtrans:     0.0000000     0.0000000     0.0000000

 ptrans:     0.0000000     0.0000000     0.0000000
 
 rotmap:
 (   1->   2)  (   2->   1) 


 irot  :  10
 --------------------------------------------------------------------
 isymop:   1   0   0
           1  -1   0
           0   0   1

 gtrans:     0.0000000     0.0000000     0.0000000

 ptrans:     0.0000000     0.0000000     0.0000000
 
 rotmap:
 (   1->   1)  (   2->   2) 


 irot  :  11
 --------------------------------------------------------------------
 isymop:   0   1   0
           1   0   0
           0   0  -1

 gtrans:     0.0000000     0.0000000     0.0000000

 ptrans:     0.0000000     0.0000000     0.0000000
 
 rotmap:
 (   1->   2)  (   2->   1) 


 irot  :  12
 --------------------------------------------------------------------
 isymop:   0  -1   0
          -1   0   0
           0   0   1

 gtrans:     0.0000000     0.0000000     0.0000000

 ptrans:     0.0000000     0.0000000     0.0000000
 
 rotmap:
 (   1->   1)  (   2->   2) 

----------------------------------------------------------------------------------------

                                     Primitive cell                                     

  volume of cell :      72.9502

  direct lattice vectors                    reciprocal lattice vectors
     2.294498594  0.000000000  0.000000000     0.435825065  0.251623719  0.000000000
    -1.147249297  1.987094072  0.000000000     0.000000000  0.503247438  0.000000000
     0.000000000  0.000000000 16.000000000     0.000000000  0.000000000  0.062500000

  length of vectors
     2.294498594  2.294498594 16.000000000     0.503247438  0.503247438  0.062500000

  position of ions in fractional coordinates (direct lattice)
     0.666666667  0.333333333  0.478663796
     0.333333333  0.666666667  0.521336204

  ion indices of the primitive-cell ions
   primitive index   ion index
                 1           1
                 2           2

----------------------------------------------------------------------------------------

 
 
 KPOINTS: kpoints                                 

Automatic generation of k-mesh.
 Grid dimensions read from file:
 generate k-points for:   20   20    1

 Generating k-lattice:

  Cartesian coordinates                     Fractional coordinates (reciprocal lattice)
     0.021791253  0.012581186  0.000000000     0.050000000  0.000000000  0.000000000
     0.000000000  0.025162372  0.000000000     0.000000000  0.050000000  0.000000000
     0.000000000  0.000000000  0.062500000     0.000000000  0.000000000  1.000000000

  Length of vectors
     0.025162372  0.025162372  0.062500000

  Shift w.r.t. Gamma in fractional coordinates (k-lattice)
     0.000000000  0.000000000  0.000000000

 
 Subroutine IBZKPT returns following result:
 ===========================================
 
 Found     44 irreducible k-points:
 
 Following reciprocal coordinates:
            Coordinates               Weight
  0.000000  0.000000  0.000000      1.000000
  0.050000  0.000000  0.000000      6.000000
  0.100000  0.000000  0.000000      6.000000
  0.150000  0.000000  0.000000      6.000000
  0.200000  0.000000  0.000000      6.000000
  0.250000  0.000000  0.000000      6.000000
  0.300000  0.000000  0.000000      6.000000
  0.350000 -0.000000  0.000000      6.000000
  0.400000  0.000000  0.000000      6.000000
  0.450000  0.000000  0.000000      6.000000
  0.500000  0.000000  0.000000      3.000000
  0.050000  0.050000  0.000000      6.000000
  0.100000  0.050000  0.000000     12.000000
  0.150000  0.050000  0.000000     12.000000
  0.200000  0.050000  0.000000     12.000000
  0.250000  0.050000  0.000000     12.000000
  0.300000  0.050000  0.000000     12.000000
  0.350000  0.050000  0.000000     12.000000
  0.400000  0.050000  0.000000     12.000000
  0.450000  0.050000  0.000000     12.000000
  0.100000  0.100000  0.000000      6.000000
  0.150000  0.100000  0.000000     12.000000
  0.200000  0.100000  0.000000     12.000000
  0.250000  0.100000  0.000000     12.000000
  0.300000  0.100000  0.000000     12.000000
  0.350000  0.100000  0.000000     12.000000
  0.400000  0.100000  0.000000     12.000000
  0.450000  0.100000  0.000000      6.000000
  0.150000  0.150000  0.000000      6.000000
  0.200000  0.150000  0.000000     12.000000
  0.250000  0.150000  0.000000     12.000000
  0.300000  0.150000  0.000000     12.000000
  0.350000  0.150000  0.000000     12.000000
  0.400000  0.150000  0.000000     12.000000
  0.200000  0.200000  0.000000      6.000000
  0.250000  0.200000  0.000000     12.000000
  0.300000  0.200000  0.000000     12.000000
  0.350000  0.200000  0.000000     12.000000
  0.400000  0.200000  0.000000      6.000000
  0.250000  0.250000  0.000000      6.000000
  0.300000  0.250000  0.000000     12.000000
  0.350000  0.250000  0.000000     12.000000
  0.300000  0.300000  0.000000      6.000000
  0.350000  0.300000  0.000000      6.000000
 
 Following cartesian coordinates:
            Coordinates               Weight
  0.000000  0.000000  0.000000      1.000000
  0.021791  0.012581  0.000000      6.000000
  0.043583  0.025162  0.000000      6.000000
  0.065374  0.037744  0.000000      6.000000
  0.087165  0.050325  0.000000      6.000000
  0.108956  0.062906  0.000000      6.000000
  0.130748  0.075487  0.000000      6.000000
  0.152539  0.088068  0.000000      6.000000
  0.174330  0.100649  0.000000      6.000000
  0.196121  0.113231  0.000000      6.000000
  0.217913  0.125812  0.000000      3.000000
  0.021791  0.037744  0.000000      6.000000
  0.043583  0.050325  0.000000     12.000000
  0.065374  0.062906  0.000000     12.000000
  0.087165  0.075487  0.000000     12.000000
  0.108956  0.088068  0.000000     12.000000
  0.130748  0.100649  0.000000     12.000000
  0.152539  0.113231  0.000000     12.000000
  0.174330  0.125812  0.000000     12.000000
  0.196121  0.138393  0.000000     12.000000
  0.043583  0.075487  0.000000      6.000000
  0.065374  0.088068  0.000000     12.000000
  0.087165  0.100649  0.000000     12.000000
  0.108956  0.113231  0.000000     12.000000
  0.130748  0.125812  0.000000     12.000000
  0.152539  0.138393  0.000000     12.000000
  0.174330  0.150974  0.000000     12.000000
  0.196121  0.163555  0.000000      6.000000
  0.065374  0.113231  0.000000      6.000000
  0.087165  0.125812  0.000000     12.000000
  0.108956  0.138393  0.000000     12.000000
  0.130748  0.150974  0.000000     12.000000
  0.152539  0.163555  0.000000     12.000000
  0.174330  0.176137  0.000000     12.000000
  0.087165  0.150974  0.000000      6.000000
  0.108956  0.163555  0.000000     12.000000
  0.130748  0.176137  0.000000     12.000000
  0.152539  0.188718  0.000000     12.000000
  0.174330  0.201299  0.000000      6.000000
  0.108956  0.188718  0.000000      6.000000
  0.130748  0.201299  0.000000     12.000000
  0.152539  0.213880  0.000000     12.000000
  0.130748  0.226461  0.000000      6.000000
  0.152539  0.239043  0.000000      6.000000
 
 
 Subroutine IBZKPT_HF returns following result:
 ==============================================
 
 Found    400 k-points in 1st BZ
 the following    400 k-points will be used (e.g. in the exchange kernel)
 Following reciprocal coordinates:   # in IRBZ
  0.000000  0.000000  0.000000    0.00250000   1 t-inv F
  0.050000  0.000000  0.000000    0.00250000   2 t-inv F
  0.100000  0.000000  0.000000    0.00250000   3 t-inv F
  0.150000  0.000000  0.000000    0.00250000   4 t-inv F
  0.200000  0.000000  0.000000    0.00250000   5 t-inv F
  0.250000  0.000000  0.000000    0.00250000   6 t-inv F
  0.300000  0.000000  0.000000    0.00250000   7 t-inv F
  0.350000 -0.000000  0.000000    0.00250000   8 t-inv F
  0.400000  0.000000  0.000000    0.00250000   9 t-inv F
  0.450000  0.000000  0.000000    0.00250000  10 t-inv F
  0.500000  0.000000  0.000000    0.00250000  11 t-inv F
  0.050000  0.050000  0.000000    0.00250000  12 t-inv F
  0.100000  0.050000  0.000000    0.00250000  13 t-inv F
  0.150000  0.050000  0.000000    0.00250000  14 t-inv F
  0.200000  0.050000  0.000000    0.00250000  15 t-inv F
  0.250000  0.050000  0.000000    0.00250000  16 t-inv F
  0.300000  0.050000  0.000000    0.00250000  17 t-inv F
  0.350000  0.050000  0.000000    0.00250000  18 t-inv F
  0.400000  0.050000  0.000000    0.00250000  19 t-inv F
  0.450000  0.050000  0.000000    0.00250000  20 t-inv F
  0.100000  0.100000  0.000000    0.00250000  21 t-inv F
  0.150000  0.100000  0.000000    0.00250000  22 t-inv F
  0.200000  0.100000  0.000000    0.00250000  23 t-inv F
  0.250000  0.100000  0.000000    0.00250000  24 t-inv F
  0.300000  0.100000  0.000000    0.00250000  25 t-inv F
  0.350000  0.100000  0.000000    0.00250000  26 t-inv F
  0.400000  0.100000  0.000000    0.00250000  27 t-inv F
  0.450000  0.100000  0.000000    0.00250000  28 t-inv F
  0.150000  0.150000  0.000000    0.00250000  29 t-inv F
  0.200000  0.150000  0.000000    0.00250000  30 t-inv F
  0.250000  0.150000  0.000000    0.00250000  31 t-inv F
  0.300000  0.150000  0.000000    0.00250000  32 t-inv F
  0.350000  0.150000  0.000000    0.00250000  33 t-inv F
  0.400000  0.150000  0.000000    0.00250000  34 t-inv F
  0.200000  0.200000  0.000000    0.00250000  35 t-inv F
  0.250000  0.200000  0.000000    0.00250000  36 t-inv F
  0.300000  0.200000  0.000000    0.00250000  37 t-inv F
  0.350000  0.200000  0.000000    0.00250000  38 t-inv F
  0.400000  0.200000  0.000000    0.00250000  39 t-inv F
  0.250000  0.250000  0.000000    0.00250000  40 t-inv F
  0.300000  0.250000  0.000000    0.00250000  41 t-inv F
  0.350000  0.250000  0.000000    0.00250000  42 t-inv F
  0.300000  0.300000  0.000000    0.00250000  43 t-inv F
  0.350000  0.300000  0.000000    0.00250000  44 t-inv F
 -0.050000  0.000000  0.000000    0.00250000   2 t-inv F
 -0.050000  0.050000  0.000000    0.00250000   2 t-inv F
  0.050000 -0.050000  0.000000    0.00250000   2 t-inv F
  0.000000 -0.050000  0.000000    0.00250000   2 t-inv F
  0.000000  0.050000  0.000000    0.00250000   2 t-inv F
 -0.100000  0.000000  0.000000    0.00250000   3 t-inv F
 -0.100000  0.100000  0.000000    0.00250000   3 t-inv F
  0.100000 -0.100000  0.000000    0.00250000   3 t-inv F
  0.000000 -0.100000  0.000000    0.00250000   3 t-inv F
  0.000000  0.100000  0.000000    0.00250000   3 t-inv F
 -0.150000  0.000000  0.000000    0.00250000   4 t-inv F
 -0.150000  0.150000  0.000000    0.00250000   4 t-inv F
  0.150000 -0.150000  0.000000    0.00250000   4 t-inv F
  0.000000 -0.150000  0.000000    0.00250000   4 t-inv F
  0.000000  0.150000  0.000000    0.00250000   4 t-inv F
 -0.200000  0.000000  0.000000    0.00250000   5 t-inv F
 -0.200000  0.200000  0.000000    0.00250000   5 t-inv F
  0.200000 -0.200000  0.000000    0.00250000   5 t-inv F
  0.000000 -0.200000  0.000000    0.00250000   5 t-inv F
  0.000000  0.200000  0.000000    0.00250000   5 t-inv F
 -0.250000  0.000000  0.000000    0.00250000   6 t-inv F
 -0.250000  0.250000  0.000000    0.00250000   6 t-inv F
  0.250000 -0.250000  0.000000    0.00250000   6 t-inv F
  0.000000 -0.250000  0.000000    0.00250000   6 t-inv F
  0.000000  0.250000  0.000000    0.00250000   6 t-inv F
 -0.300000  0.000000  0.000000    0.00250000   7 t-inv F
 -0.300000  0.300000  0.000000    0.00250000   7 t-inv F
  0.300000 -0.300000  0.000000    0.00250000   7 t-inv F
  0.000000 -0.300000  0.000000    0.00250000   7 t-inv F
  0.000000  0.300000  0.000000    0.00250000   7 t-inv F
 -0.350000  0.000000  0.000000    0.00250000   8 t-inv F
 -0.350000  0.350000  0.000000    0.00250000   8 t-inv F
  0.350000 -0.350000  0.000000    0.00250000   8 t-inv F
 -0.000000 -0.350000  0.000000    0.00250000   8 t-inv F
  0.000000  0.350000  0.000000    0.00250000   8 t-inv F
 -0.400000  0.000000  0.000000    0.00250000   9 t-inv F
 -0.400000  0.400000  0.000000    0.00250000   9 t-inv F
  0.400000 -0.400000  0.000000    0.00250000   9 t-inv F
  0.000000 -0.400000  0.000000    0.00250000   9 t-inv F
  0.000000  0.400000  0.000000    0.00250000   9 t-inv F
 -0.450000  0.000000  0.000000    0.00250000  10 t-inv F
 -0.450000  0.450000  0.000000    0.00250000  10 t-inv F
  0.450000 -0.450000  0.000000    0.00250000  10 t-inv F
  0.000000 -0.450000  0.000000    0.00250000  10 t-inv F
  0.000000  0.450000  0.000000    0.00250000  10 t-inv F
 -0.500000  0.500000  0.000000    0.00250000  11 t-inv F
  0.000000 -0.500000  0.000000    0.00250000  11 t-inv F
 -0.050000 -0.050000  0.000000    0.00250000  12 t-inv F
 -0.100000  0.050000  0.000000    0.00250000  12 t-inv F
  0.100000 -0.050000  0.000000    0.00250000  12 t-inv F
  0.050000 -0.100000  0.000000    0.00250000  12 t-inv F
 -0.050000  0.100000  0.000000    0.00250000  12 t-inv F
 -0.100000 -0.050000  0.000000    0.00250000  13 t-inv F
 -0.150000  0.100000  0.000000    0.00250000  13 t-inv F
  0.150000 -0.100000  0.000000    0.00250000  13 t-inv F
  0.050000 -0.150000  0.000000    0.00250000  13 t-inv F
 -0.050000  0.150000  0.000000    0.00250000  13 t-inv F
  0.100000 -0.150000  0.000000    0.00250000  13 t-inv F
 -0.100000  0.150000  0.000000    0.00250000  13 t-inv F
 -0.150000  0.050000  0.000000    0.00250000  13 t-inv F
  0.150000 -0.050000  0.000000    0.00250000  13 t-inv F
  0.050000  0.100000  0.000000    0.00250000  13 t-inv F
 -0.050000 -0.100000  0.000000    0.00250000  13 t-inv F
 -0.150000 -0.050000  0.000000    0.00250000  14 t-inv F
 -0.200000  0.150000  0.000000    0.00250000  14 t-inv F
  0.200000 -0.150000  0.000000    0.00250000  14 t-inv F
  0.050000 -0.200000  0.000000    0.00250000  14 t-inv F
 -0.050000  0.200000  0.000000    0.00250000  14 t-inv F
  0.150000 -0.200000  0.000000    0.00250000  14 t-inv F
 -0.150000  0.200000  0.000000    0.00250000  14 t-inv F
 -0.200000  0.050000  0.000000    0.00250000  14 t-inv F
  0.200000 -0.050000  0.000000    0.00250000  14 t-inv F
  0.050000  0.150000  0.000000    0.00250000  14 t-inv F
 -0.050000 -0.150000  0.000000    0.00250000  14 t-inv F
 -0.200000 -0.050000  0.000000    0.00250000  15 t-inv F
 -0.250000  0.200000  0.000000    0.00250000  15 t-inv F
  0.250000 -0.200000  0.000000    0.00250000  15 t-inv F
  0.050000 -0.250000  0.000000    0.00250000  15 t-inv F
 -0.050000  0.250000  0.000000    0.00250000  15 t-inv F
  0.200000 -0.250000  0.000000    0.00250000  15 t-inv F
 -0.200000  0.250000  0.000000    0.00250000  15 t-inv F
 -0.250000  0.050000  0.000000    0.00250000  15 t-inv F
  0.250000 -0.050000  0.000000    0.00250000  15 t-inv F
  0.050000  0.200000  0.000000    0.00250000  15 t-inv F
 -0.050000 -0.200000  0.000000    0.00250000  15 t-inv F
 -0.250000 -0.050000  0.000000    0.00250000  16 t-inv F
 -0.300000  0.250000  0.000000    0.00250000  16 t-inv F
  0.300000 -0.250000  0.000000    0.00250000  16 t-inv F
  0.050000 -0.300000  0.000000    0.00250000  16 t-inv F
 -0.050000  0.300000  0.000000    0.00250000  16 t-inv F
  0.250000 -0.300000  0.000000    0.00250000  16 t-inv F
 -0.250000  0.300000  0.000000    0.00250000  16 t-inv F
 -0.300000  0.050000  0.000000    0.00250000  16 t-inv F
  0.300000 -0.050000  0.000000    0.00250000  16 t-inv F
  0.050000  0.250000  0.000000    0.00250000  16 t-inv F
 -0.050000 -0.250000  0.000000    0.00250000  16 t-inv F
 -0.300000 -0.050000  0.000000    0.00250000  17 t-inv F
 -0.350000  0.300000  0.000000    0.00250000  17 t-inv F
  0.350000 -0.300000  0.000000    0.00250000  17 t-inv F
  0.050000 -0.350000  0.000000    0.00250000  17 t-inv F
 -0.050000  0.350000  0.000000    0.00250000  17 t-inv F
  0.300000 -0.350000  0.000000    0.00250000  17 t-inv F
 -0.300000  0.350000  0.000000    0.00250000  17 t-inv F
 -0.350000  0.050000  0.000000    0.00250000  17 t-inv F
  0.350000 -0.050000  0.000000    0.00250000  17 t-inv F
  0.050000  0.300000  0.000000    0.00250000  17 t-inv F
 -0.050000 -0.300000  0.000000    0.00250000  17 t-inv F
 -0.350000 -0.050000  0.000000    0.00250000  18 t-inv F
 -0.400000  0.350000  0.000000    0.00250000  18 t-inv F
  0.400000 -0.350000  0.000000    0.00250000  18 t-inv F
  0.050000 -0.400000  0.000000    0.00250000  18 t-inv F
 -0.050000  0.400000  0.000000    0.00250000  18 t-inv F
  0.350000 -0.400000  0.000000    0.00250000  18 t-inv F
 -0.350000  0.400000  0.000000    0.00250000  18 t-inv F
 -0.400000  0.050000  0.000000    0.00250000  18 t-inv F
  0.400000 -0.050000  0.000000    0.00250000  18 t-inv F
  0.050000  0.350000  0.000000    0.00250000  18 t-inv F
 -0.050000 -0.350000  0.000000    0.00250000  18 t-inv F
 -0.400000 -0.050000  0.000000    0.00250000  19 t-inv F
 -0.450000  0.400000  0.000000    0.00250000  19 t-inv F
  0.450000 -0.400000  0.000000    0.00250000  19 t-inv F
  0.050000 -0.450000  0.000000    0.00250000  19 t-inv F
 -0.050000  0.450000  0.000000    0.00250000  19 t-inv F
  0.400000 -0.450000  0.000000    0.00250000  19 t-inv F
 -0.400000  0.450000  0.000000    0.00250000  19 t-inv F
 -0.450000  0.050000  0.000000    0.00250000  19 t-inv F
  0.450000 -0.050000  0.000000    0.00250000  19 t-inv F
  0.050000  0.400000  0.000000    0.00250000  19 t-inv F
 -0.050000 -0.400000  0.000000    0.00250000  19 t-inv F
 -0.450000 -0.050000  0.000000    0.00250000  20 t-inv F
 -0.500000  0.450000  0.000000    0.00250000  20 t-inv F
  0.500000 -0.450000  0.000000    0.00250000  20 t-inv F
  0.050000 -0.500000  0.000000    0.00250000  20 t-inv F
 -0.050000  0.500000  0.000000    0.00250000  20 t-inv F
  0.450000 -0.500000  0.000000    0.00250000  20 t-inv F
 -0.450000  0.500000  0.000000    0.00250000  20 t-inv F
 -0.500000  0.050000  0.000000    0.00250000  20 t-inv F
  0.500000 -0.050000  0.000000    0.00250000  20 t-inv F
  0.050000  0.450000  0.000000    0.00250000  20 t-inv F
 -0.050000 -0.450000  0.000000    0.00250000  20 t-inv F
 -0.100000 -0.100000  0.000000    0.00250000  21 t-inv F
 -0.200000  0.100000  0.000000    0.00250000  21 t-inv F
  0.200000 -0.100000  0.000000    0.00250000  21 t-inv F
  0.100000 -0.200000  0.000000    0.00250000  21 t-inv F
 -0.100000  0.200000  0.000000    0.00250000  21 t-inv F
 -0.150000 -0.100000  0.000000    0.00250000  22 t-inv F
 -0.250000  0.150000  0.000000    0.00250000  22 t-inv F
  0.250000 -0.150000  0.000000    0.00250000  22 t-inv F
  0.100000 -0.250000  0.000000    0.00250000  22 t-inv F
 -0.100000  0.250000  0.000000    0.00250000  22 t-inv F
  0.150000 -0.250000  0.000000    0.00250000  22 t-inv F
 -0.150000  0.250000  0.000000    0.00250000  22 t-inv F
 -0.250000  0.100000  0.000000    0.00250000  22 t-inv F
  0.250000 -0.100000  0.000000    0.00250000  22 t-inv F
  0.100000  0.150000  0.000000    0.00250000  22 t-inv F
 -0.100000 -0.150000  0.000000    0.00250000  22 t-inv F
 -0.200000 -0.100000  0.000000    0.00250000  23 t-inv F
 -0.300000  0.200000  0.000000    0.00250000  23 t-inv F
  0.300000 -0.200000  0.000000    0.00250000  23 t-inv F
  0.100000 -0.300000  0.000000    0.00250000  23 t-inv F
 -0.100000  0.300000  0.000000    0.00250000  23 t-inv F
  0.200000 -0.300000  0.000000    0.00250000  23 t-inv F
 -0.200000  0.300000  0.000000    0.00250000  23 t-inv F
 -0.300000  0.100000  0.000000    0.00250000  23 t-inv F
  0.300000 -0.100000  0.000000    0.00250000  23 t-inv F
  0.100000  0.200000  0.000000    0.00250000  23 t-inv F
 -0.100000 -0.200000  0.000000    0.00250000  23 t-inv F
 -0.250000 -0.100000  0.000000    0.00250000  24 t-inv F
 -0.350000  0.250000  0.000000    0.00250000  24 t-inv F
  0.350000 -0.250000  0.000000    0.00250000  24 t-inv F
  0.100000 -0.350000  0.000000    0.00250000  24 t-inv F
 -0.100000  0.350000  0.000000    0.00250000  24 t-inv F
  0.250000 -0.350000  0.000000    0.00250000  24 t-inv F
 -0.250000  0.350000  0.000000    0.00250000  24 t-inv F
 -0.350000  0.100000  0.000000    0.00250000  24 t-inv F
  0.350000 -0.100000  0.000000    0.00250000  24 t-inv F
  0.100000  0.250000  0.000000    0.00250000  24 t-inv F
 -0.100000 -0.250000  0.000000    0.00250000  24 t-inv F
 -0.300000 -0.100000  0.000000    0.00250000  25 t-inv F
 -0.400000  0.300000  0.000000    0.00250000  25 t-inv F
  0.400000 -0.300000  0.000000    0.00250000  25 t-inv F
  0.100000 -0.400000  0.000000    0.00250000  25 t-inv F
 -0.100000  0.400000  0.000000    0.00250000  25 t-inv F
  0.300000 -0.400000  0.000000    0.00250000  25 t-inv F
 -0.300000  0.400000  0.000000    0.00250000  25 t-inv F
 -0.400000  0.100000  0.000000    0.00250000  25 t-inv F
  0.400000 -0.100000  0.000000    0.00250000  25 t-inv F
  0.100000  0.300000  0.000000    0.00250000  25 t-inv F
 -0.100000 -0.300000  0.000000    0.00250000  25 t-inv F
 -0.350000 -0.100000  0.000000    0.00250000  26 t-inv F
 -0.450000  0.350000  0.000000    0.00250000  26 t-inv F
  0.450000 -0.350000  0.000000    0.00250000  26 t-inv F
  0.100000 -0.450000  0.000000    0.00250000  26 t-inv F
 -0.100000  0.450000  0.000000    0.00250000  26 t-inv F
  0.350000 -0.450000  0.000000    0.00250000  26 t-inv F
 -0.350000  0.450000  0.000000    0.00250000  26 t-inv F
 -0.450000  0.100000  0.000000    0.00250000  26 t-inv F
  0.450000 -0.100000  0.000000    0.00250000  26 t-inv F
  0.100000  0.350000  0.000000    0.00250000  26 t-inv F
 -0.100000 -0.350000  0.000000    0.00250000  26 t-inv F
 -0.400000 -0.100000  0.000000    0.00250000  27 t-inv F
 -0.500000  0.400000  0.000000    0.00250000  27 t-inv F
  0.500000 -0.400000  0.000000    0.00250000  27 t-inv F
  0.100000 -0.500000  0.000000    0.00250000  27 t-inv F
 -0.100000  0.500000  0.000000    0.00250000  27 t-inv F
  0.400000 -0.500000  0.000000    0.00250000  27 t-inv F
 -0.400000  0.500000  0.000000    0.00250000  27 t-inv F
 -0.500000  0.100000  0.000000    0.00250000  27 t-inv F
  0.500000 -0.100000  0.000000    0.00250000  27 t-inv F
  0.100000  0.400000  0.000000    0.00250000  27 t-inv F
 -0.100000 -0.400000  0.000000    0.00250000  27 t-inv F
 -0.450000 -0.100000  0.000000    0.00250000  28 t-inv F
 -0.550000  0.450000  0.000000    0.00250000  28 t-inv F
  0.550000 -0.450000  0.000000    0.00250000  28 t-inv F
  0.100000 -0.550000  0.000000    0.00250000  28 t-inv F
 -0.100000  0.550000  0.000000    0.00250000  28 t-inv F
 -0.150000 -0.150000  0.000000    0.00250000  29 t-inv F
 -0.300000  0.150000  0.000000    0.00250000  29 t-inv F
  0.300000 -0.150000  0.000000    0.00250000  29 t-inv F
  0.150000 -0.300000  0.000000    0.00250000  29 t-inv F
 -0.150000  0.300000  0.000000    0.00250000  29 t-inv F
 -0.200000 -0.150000  0.000000    0.00250000  30 t-inv F
 -0.350000  0.200000  0.000000    0.00250000  30 t-inv F
  0.350000 -0.200000  0.000000    0.00250000  30 t-inv F
  0.150000 -0.350000  0.000000    0.00250000  30 t-inv F
 -0.150000  0.350000  0.000000    0.00250000  30 t-inv F
  0.200000 -0.350000  0.000000    0.00250000  30 t-inv F
 -0.200000  0.350000  0.000000    0.00250000  30 t-inv F
 -0.350000  0.150000  0.000000    0.00250000  30 t-inv F
  0.350000 -0.150000  0.000000    0.00250000  30 t-inv F
  0.150000  0.200000  0.000000    0.00250000  30 t-inv F
 -0.150000 -0.200000  0.000000    0.00250000  30 t-inv F
 -0.250000 -0.150000  0.000000    0.00250000  31 t-inv F
 -0.400000  0.250000  0.000000    0.00250000  31 t-inv F
  0.400000 -0.250000  0.000000    0.00250000  31 t-inv F
  0.150000 -0.400000  0.000000    0.00250000  31 t-inv F
 -0.150000  0.400000  0.000000    0.00250000  31 t-inv F
  0.250000 -0.400000  0.000000    0.00250000  31 t-inv F
 -0.250000  0.400000  0.000000    0.00250000  31 t-inv F
 -0.400000  0.150000  0.000000    0.00250000  31 t-inv F
  0.400000 -0.150000  0.000000    0.00250000  31 t-inv F
  0.150000  0.250000  0.000000    0.00250000  31 t-inv F
 -0.150000 -0.250000  0.000000    0.00250000  31 t-inv F
 -0.300000 -0.150000  0.000000    0.00250000  32 t-inv F
 -0.450000  0.300000  0.000000    0.00250000  32 t-inv F
  0.450000 -0.300000  0.000000    0.00250000  32 t-inv F
  0.150000 -0.450000  0.000000    0.00250000  32 t-inv F
 -0.150000  0.450000  0.000000    0.00250000  32 t-inv F
  0.300000 -0.450000  0.000000    0.00250000  32 t-inv F
 -0.300000  0.450000  0.000000    0.00250000  32 t-inv F
 -0.450000  0.150000  0.000000    0.00250000  32 t-inv F
  0.450000 -0.150000  0.000000    0.00250000  32 t-inv F
  0.150000  0.300000  0.000000    0.00250000  32 t-inv F
 -0.150000 -0.300000  0.000000    0.00250000  32 t-inv F
 -0.350000 -0.150000  0.000000    0.00250000  33 t-inv F
 -0.500000  0.350000  0.000000    0.00250000  33 t-inv F
  0.500000 -0.350000  0.000000    0.00250000  33 t-inv F
  0.150000 -0.500000  0.000000    0.00250000  33 t-inv F
 -0.150000  0.500000  0.000000    0.00250000  33 t-inv F
  0.350000 -0.500000  0.000000    0.00250000  33 t-inv F
 -0.350000  0.500000  0.000000    0.00250000  33 t-inv F
 -0.500000  0.150000  0.000000    0.00250000  33 t-inv F
  0.500000 -0.150000  0.000000    0.00250000  33 t-inv F
  0.150000  0.350000  0.000000    0.00250000  33 t-inv F
 -0.150000 -0.350000  0.000000    0.00250000  33 t-inv F
 -0.400000 -0.150000  0.000000    0.00250000  34 t-inv F
 -0.550000  0.400000  0.000000    0.00250000  34 t-inv F
  0.550000 -0.400000  0.000000    0.00250000  34 t-inv F
  0.150000 -0.550000  0.000000    0.00250000  34 t-inv F
 -0.150000  0.550000  0.000000    0.00250000  34 t-inv F
  0.400000 -0.550000  0.000000    0.00250000  34 t-inv F
 -0.400000  0.550000  0.000000    0.00250000  34 t-inv F
 -0.550000  0.150000  0.000000    0.00250000  34 t-inv F
  0.550000 -0.150000  0.000000    0.00250000  34 t-inv F
  0.150000  0.400000  0.000000    0.00250000  34 t-inv F
 -0.150000 -0.400000  0.000000    0.00250000  34 t-inv F
 -0.200000 -0.200000  0.000000    0.00250000  35 t-inv F
 -0.400000  0.200000  0.000000    0.00250000  35 t-inv F
  0.400000 -0.200000  0.000000    0.00250000  35 t-inv F
  0.200000 -0.400000  0.000000    0.00250000  35 t-inv F
 -0.200000  0.400000  0.000000    0.00250000  35 t-inv F
 -0.250000 -0.200000  0.000000    0.00250000  36 t-inv F
 -0.450000  0.250000  0.000000    0.00250000  36 t-inv F
  0.450000 -0.250000  0.000000    0.00250000  36 t-inv F
  0.200000 -0.450000  0.000000    0.00250000  36 t-inv F
 -0.200000  0.450000  0.000000    0.00250000  36 t-inv F
  0.250000 -0.450000  0.000000    0.00250000  36 t-inv F
 -0.250000  0.450000  0.000000    0.00250000  36 t-inv F
 -0.450000  0.200000  0.000000    0.00250000  36 t-inv F
  0.450000 -0.200000  0.000000    0.00250000  36 t-inv F
  0.200000  0.250000  0.000000    0.00250000  36 t-inv F
 -0.200000 -0.250000  0.000000    0.00250000  36 t-inv F
 -0.300000 -0.200000  0.000000    0.00250000  37 t-inv F
 -0.500000  0.300000  0.000000    0.00250000  37 t-inv F
  0.500000 -0.300000  0.000000    0.00250000  37 t-inv F
  0.200000 -0.500000  0.000000    0.00250000  37 t-inv F
 -0.200000  0.500000  0.000000    0.00250000  37 t-inv F
  0.300000 -0.500000  0.000000    0.00250000  37 t-inv F
 -0.300000  0.500000  0.000000    0.00250000  37 t-inv F
 -0.500000  0.200000  0.000000    0.00250000  37 t-inv F
  0.500000 -0.200000  0.000000    0.00250000  37 t-inv F
  0.200000  0.300000  0.000000    0.00250000  37 t-inv F
 -0.200000 -0.300000  0.000000    0.00250000  37 t-inv F
 -0.350000 -0.200000  0.000000    0.00250000  38 t-inv F
 -0.550000  0.350000  0.000000    0.00250000  38 t-inv F
  0.550000 -0.350000  0.000000    0.00250000  38 t-inv F
  0.200000 -0.550000  0.000000    0.00250000  38 t-inv F
 -0.200000  0.550000  0.000000    0.00250000  38 t-inv F
  0.350000 -0.550000  0.000000    0.00250000  38 t-inv F
 -0.350000  0.550000  0.000000    0.00250000  38 t-inv F
 -0.550000  0.200000  0.000000    0.00250000  38 t-inv F
  0.550000 -0.200000  0.000000    0.00250000  38 t-inv F
  0.200000  0.350000  0.000000    0.00250000  38 t-inv F
 -0.200000 -0.350000  0.000000    0.00250000  38 t-inv F
 -0.400000 -0.200000  0.000000    0.00250000  39 t-inv F
 -0.600000  0.400000  0.000000    0.00250000  39 t-inv F
  0.600000 -0.400000  0.000000    0.00250000  39 t-inv F
  0.200000 -0.600000  0.000000    0.00250000  39 t-inv F
 -0.200000  0.600000  0.000000    0.00250000  39 t-inv F
 -0.250000 -0.250000  0.000000    0.00250000  40 t-inv F
 -0.500000  0.250000  0.000000    0.00250000  40 t-inv F
  0.500000 -0.250000  0.000000    0.00250000  40 t-inv F
  0.250000 -0.500000  0.000000    0.00250000  40 t-inv F
 -0.250000  0.500000  0.000000    0.00250000  40 t-inv F
 -0.300000 -0.250000  0.000000    0.00250000  41 t-inv F
 -0.550000  0.300000  0.000000    0.00250000  41 t-inv F
  0.550000 -0.300000  0.000000    0.00250000  41 t-inv F
  0.250000 -0.550000  0.000000    0.00250000  41 t-inv F
 -0.250000  0.550000  0.000000    0.00250000  41 t-inv F
  0.300000 -0.550000  0.000000    0.00250000  41 t-inv F
 -0.300000  0.550000  0.000000    0.00250000  41 t-inv F
 -0.550000  0.250000  0.000000    0.00250000  41 t-inv F
  0.550000 -0.250000  0.000000    0.00250000  41 t-inv F
  0.250000  0.300000  0.000000    0.00250000  41 t-inv F
 -0.250000 -0.300000  0.000000    0.00250000  41 t-inv F
 -0.350000 -0.250000  0.000000    0.00250000  42 t-inv F
 -0.600000  0.350000  0.000000    0.00250000  42 t-inv F
  0.600000 -0.350000  0.000000    0.00250000  42 t-inv F
  0.250000 -0.600000  0.000000    0.00250000  42 t-inv F
 -0.250000  0.600000  0.000000    0.00250000  42 t-inv F
  0.350000 -0.600000  0.000000    0.00250000  42 t-inv F
 -0.350000  0.600000  0.000000    0.00250000  42 t-inv F
 -0.600000  0.250000  0.000000    0.00250000  42 t-inv F
  0.600000 -0.250000  0.000000    0.00250000  42 t-inv F
  0.250000  0.350000  0.000000    0.00250000  42 t-inv F
 -0.250000 -0.350000  0.000000    0.00250000  42 t-inv F
 -0.300000 -0.300000  0.000000    0.00250000  43 t-inv F
 -0.600000  0.300000  0.000000    0.00250000  43 t-inv F
  0.600000 -0.300000  0.000000    0.00250000  43 t-inv F
  0.300000 -0.600000  0.000000    0.00250000  43 t-inv F
 -0.300000  0.600000  0.000000    0.00250000  43 t-inv F
 -0.350000 -0.300000  0.000000    0.00250000  44 t-inv F
 -0.650000  0.350000  0.000000    0.00250000  44 t-inv F
  0.650000 -0.350000  0.000000    0.00250000  44 t-inv F
  0.300000 -0.650000  0.000000    0.00250000  44 t-inv F
 -0.300000  0.650000  0.000000    0.00250000  44 t-inv F


--------------------------------------------------------------------------------------------------------




 Dimension of arrays:
   k-points           NKPTS =     44   k-points in BZ     NKDIM =     44   number of bands    NBANDS=     16
   number of dos      NEDOS =   6001   number of ions     NIONS =      2
   non local maximal  LDIM  =      4   non local SUM 2l+1 LMDIM =      8
   total plane-waves  NPLWV =  30720
   max r-space proj   IRMAX =      1   max aug-charges    IRDMAX=  24124
   dimension x,y,z NGX =    16 NGY =   16 NGZ =  120
   dimension x,y,z NGXF=    32 NGYF=   32 NGZF=  240
   support grid    NGXF=    64 NGYF=   64 NGZF=  480
   ions per type =               2
   NGX,Y,Z   is equivalent  to a cutoff of  11.59, 11.59, 12.47 a.u.
   NGXF,Y,Z  is equivalent  to a cutoff of  23.19, 23.19, 24.94 a.u.

 SYSTEM =  unknown system                          
 POSCAR =  OUTCAR.0001.-1.out 1.0e-02              

 Startparameter for this run:
   NWRITE =      3    write-flag & timer
   PREC   = accura    normal or accurate (medium, high low for compatibility)
   ISTART =      0    job   : 0-new  1-cont  2-samecut
   ICHARG =      2    charge: 1-file 2-atom 10-const
   ISPIN  =      1    spin polarized calculation?
   LNONCOLLINEAR =      F non collinear calculations
   LSORBIT =      F    spin-orbit coupling
   INIWAV =      1    electr: 0-lowe 1-rand  2-diag
   LASPH  =      T    aspherical Exc in radial PAW
 Electronic Relaxation 1
   ENCUT  =  473.5 eV  34.80 Ry    5.90 a.u.   4.07  4.07 28.39*2*pi/ulx,y,z
   ENINI  =  473.5     initial cutoff
   ENAUG  =  904.6 eV  augmentation charge cutoff
   NELM   =    200;   NELMIN=  6; NELMDL=-12     # of ELM steps 
   EDIFF  = 0.1E-05   stopping-criterion for ELM
   LREAL  =      F    real-space projection
   NLSPLINE    = F    spline interpolate recip. space projectors
   LCOMPAT=      F    compatible to vasp.4.4
   GGA_COMPAT  = T    GGA compatible to vasp.4.4-vasp.4.6
   LMAXPAW     = -100 max onsite density
   LMAXMIX     =    2 max onsite mixed and CHGCAR
   VOSKOWN=      0    Vosko Wilk Nusair interpolation
   ROPT   =    0.00000
 Ionic relaxation
   EDIFFG = 0.1E-04   stopping-criterion for IOM
   NSW    =      0    number of steps for IOM
   NBLOCK =      1;   KBLOCK =      1    inner block; outer block 
   IBRION =     -1    ionic relax: 0-MD 1-quasi-New 2-CG
   NFREE  =      0    steps in history (QN), initial steepest desc. (CG)
   ISIF   =      2    stress and relaxation
   IWAVPR =     10    prediction:  0-non 1-charg 2-wave 3-comb
   ISYM   =      2    0-nonsym 1-usesym 2-fastsym
   LCORR  =      T    Harris-Foulkes like correction to forces

   POTIM  = 0.5000    time-step for ionic-motion
   TEIN   =    0.0    initial temperature
   TEBEG  =    0.0;   TEEND  =   0.0 temperature during run
   SMASS  =  -3.00    Nose mass-parameter (am)
   estimated Nose-frequenzy (Omega)   =  0.10E-29 period in steps = 0.13E+47 mass=  -0.120E-27a.u.
   SCALEE = 1.0000    scale energy and forces
   NPACO  =    256;   APACO  = 10.0  distance and # of slots for P.C.
   PSTRESS=    0.0 pullay stress

  Mass of Ions in am
   POMASS =  14.00
  Ionic Valenz
   ZVAL   =   5.00
  Atomic Wigner-Seitz radii
   RWIGS  =  -1.00
  virtual crystal weights 
   VCA    =   1.00
   NELECT =      10.0000    total number of electrons
   NUPDOWN=      -1.0000    fix difference up-down

 DOS related values:
   EMIN   =  10.00;   EMAX   =-10.00  energy-range for DOS
   EFERMI =   0.00;   METHOD = LEGACY      
   ISMEAR =     0;   SIGMA  =   0.01  broadening in eV -4-tet -1-fermi 0-gaus

 Electronic relaxation 2 (details)
   IALGO  =     38    algorithm
   LDIAG  =      T    sub-space diagonalisation (order eigenvalues)
   LSUBROT=      F    optimize rotation matrix (better conditioning)
   TURBO    =      0    0=normal 1=particle mesh
   IRESTART =      0    0=no restart 2=restart with 2 vectors
   NREBOOT  =      0    no. of reboots
   NMIN     =      0    reboot dimension
   EREF     =   0.00    reference energy to select bands
   IMIX   =      4    mixing-type and parameters
     AMIX     =   0.10;   BMIX     =  0.00
     AMIX_MAG =   0.40;   BMIX_MAG =  0.00
     AMIN     =   0.10
     WC   =   100.;   INIMIX=   1;  MIXPRE=   1;  MAXMIX= -45

 Intra band minimization:
   WEIMIN = 0.0000     energy-eigenvalue tresh-hold
   EBREAK =  0.16E-07  absolut break condition
   DEPER  =   0.30     relativ break condition  

   TIME   =   0.40     timestep for ELM

  volume/ion in A,a.u.               =      36.48       246.15
  Fermi-wavevector in a.u.,A,eV,Ry     =   0.844111  1.595138  9.694463  0.712523
  Thomas-Fermi vector in A             =   1.959086
 
 Write flags
   LWAVE        =      F    write WAVECAR
   LDOWNSAMPLE  =      F    k-point downsampling of WAVECAR
   LCHARG       =      F    write CHGCAR
   LVTOT        =      F    write LOCPOT, total local potential
   LVHAR        =      F    write LOCPOT, Hartree potential only
   LELF         =      F    write electronic localiz. function (ELF)
   LORBIT       =     10    0 simple, 1 ext, 2 COOP (PROOUT), +10 PAW based schemes


 Dipole corrections
   LMONO  =      F    monopole corrections only (constant potential shift)
   LDIPOL =      F    correct potential (dipole corrections)
   IDIPOL =      0    1-x, 2-y, 3-z, 4-all directions 
   EPSILON=  1.0000000 bulk dielectric constant

 Exchange correlation treatment:
   GGA     =    --    GGA type
   LEXCH   =     8    internal setting for exchange type
   LIBXC   =     F    Libxc                    
   VOSKOWN =     0    Vosko Wilk Nusair interpolation
   LHFCALC =     F    Hartree Fock is set to
   LHFONE  =     F    Hartree Fock one center treatment
   AEXX    =    0.0000 exact exchange contribution

 Linear response parameters
   LEPSILON=     T    determine dielectric tensor
   LRPA    =     F    only Hartree local field effects (RPA)
   LNABLA  =     F    use nabla operator in PAW spheres
   LVEL    =     F    velocity operator in full k-point grid
   CSHIFT  =0.1000    complex shift for real part using Kramers Kronig
   OMEGAMAX=  -1.0    maximum frequency
   DEG_THRESHOLD= 0.2000000E-02 threshold for treating states as degnerate
   RTIME   =   -0.100 relaxation time in fs
  (WPLASMAI=    0.000 imaginary part of plasma frequency in eV, 0.658/RTIME)
   DFIELD  = 0.0000000 0.0000000 0.0000000 field for delta impulse in time
 
  Optional k-point grid parameters
   LKPOINTS_OPT  =     F    use optional k-point grid
   KPOINTS_OPT_MODE=     1    mode for optional k-point grid
 
 Orbital magnetization related:
   ORBITALMAG=     F  switch on orbital magnetization
   LCHIMAG   =     F  perturbation theory with respect to B field
   DQ        =  0.001000  dq finite difference perturbation B field
   LLRAUG    =     F  two centre corrections for induced B field
   LBONE     =     F  B-component reconstruction in AE one-centre
   LVGVCALC  =     T  calculate vGv susceptibility
   LVGVAPPL  =     F  apply vGv susceptibility instead of pGv for G=0

 Random number generation:
   RANDOM_GENERATOR = DEFAULT
   PCG_SEED         = not used


--------------------------------------------------------------------------------------------------------


 Static calculation
 charge density and potential will be updated during run
 non-spin polarized calculation
 Variant of blocked Davidson
 Davidson routine will perform the subspace rotation
 perform sub-space diagonalisation
    after iterative eigenvector-optimisation
 modified Broyden-mixing scheme, WC =      100.0
 initial mixing is a Kerker type mixing with AMIX =  0.1000 and BMIX =      0.0001
 Hartree-type preconditioning will be used
 using additional bands           11
 reciprocal scheme for non local part
 calculate Harris-corrections to forces 
   (improved forces if not selfconsistent)
 use gradient corrections 
 use of overlap-Matrix (Vanderbilt PP)
 Gauss-broadening in eV      SIGMA  =   0.01


--------------------------------------------------------------------------------------------------------


  energy-cutoff  :      473.51
  volume of cell :       72.95
      direct lattice vectors                 reciprocal lattice vectors
     2.294498594  0.000000000  0.000000000     0.435825065  0.251623719  0.000000000
    -1.147249297  1.987094072  0.000000000     0.000000000  0.503247438  0.000000000
     0.000000000  0.000000000 16.000000000     0.000000000  0.000000000  0.062500000

  length of vectors
     2.294498594  2.294498594 16.000000000     0.503247438  0.503247438  0.062500000


 
 k-points in units of 2pi/SCALE and weight: kpoints                                 
   0.00000000  0.00000000  0.00000000       0.003
   0.02179125  0.01258119  0.00000000       0.015
   0.04358251  0.02516237  0.00000000       0.015
   0.06537376  0.03774356  0.00000000       0.015
   0.08716501  0.05032474  0.00000000       0.015
   0.10895627  0.06290593  0.00000000       0.015
   0.13074752  0.07548712  0.00000000       0.015
   0.15253877  0.08806830  0.00000000       0.015
   0.17433003  0.10064949  0.00000000       0.015
   0.19612128  0.11323067  0.00000000       0.015
   0.21791253  0.12581186  0.00000000       0.007
   0.02179125  0.03774356  0.00000000       0.015
   0.04358251  0.05032474  0.00000000       0.030
   0.06537376  0.06290593  0.00000000       0.030
   0.08716501  0.07548712  0.00000000       0.030
   0.10895627  0.08806830  0.00000000       0.030
   0.13074752  0.10064949  0.00000000       0.030
   0.15253877  0.11323067  0.00000000       0.030
   0.17433003  0.12581186  0.00000000       0.030
   0.19612128  0.13839305  0.00000000       0.030
   0.04358251  0.07548712  0.00000000       0.015
   0.06537376  0.08806830  0.00000000       0.030
   0.08716501  0.10064949  0.00000000       0.030
   0.10895627  0.11323067  0.00000000       0.030
   0.13074752  0.12581186  0.00000000       0.030
   0.15253877  0.13839305  0.00000000       0.030
   0.17433003  0.15097423  0.00000000       0.030
   0.19612128  0.16355542  0.00000000       0.015
   0.06537376  0.11323067  0.00000000       0.015
   0.08716501  0.12581186  0.00000000       0.030
   0.10895627  0.13839305  0.00000000       0.030
   0.13074752  0.15097423  0.00000000       0.030
   0.15253877  0.16355542  0.00000000       0.030
   0.17433003  0.17613660  0.00000000       0.030
   0.08716501  0.15097423  0.00000000       0.015
   0.10895627  0.16355542  0.00000000       0.030
   0.13074752  0.17613660  0.00000000       0.030
   0.15253877  0.18871779  0.00000000       0.030
   0.17433003  0.20129898  0.00000000       0.015
   0.10895627  0.18871779  0.00000000       0.015
   0.13074752  0.20129898  0.00000000       0.030
   0.15253877  0.21388016  0.00000000       0.030
   0.13074752  0.22646135  0.00000000       0.015
   0.15253877  0.23904253  0.00000000       0.015
 
 k-points in reciprocal lattice and weights: kpoints                                 
   0.00000000  0.00000000  0.00000000       0.003
   0.05000000  0.00000000  0.00000000       0.015
   0.10000000  0.00000000  0.00000000       0.015
   0.15000000  0.00000000  0.00000000       0.015
   0.20000000  0.00000000  0.00000000       0.015
   0.25000000  0.00000000  0.00000000       0.015
   0.30000000  0.00000000  0.00000000       0.015
   0.35000000 -0.00000000  0.00000000       0.015
   0.40000000  0.00000000  0.00000000       0.015
   0.45000000  0.00000000  0.00000000       0.015
   0.50000000  0.00000000  0.00000000       0.007
   0.05000000  0.05000000  0.00000000       0.015
   0.10000000  0.05000000  0.00000000       0.030
   0.15000000  0.05000000  0.00000000       0.030
   0.20000000  0.05000000  0.00000000       0.030
   0.25000000  0.05000000  0.00000000       0.030
   0.30000000  0.05000000  0.00000000       0.030
   0.35000000  0.05000000  0.00000000       0.030
   0.40000000  0.05000000  0.00000000       0.030
   0.45000000  0.05000000  0.00000000       0.030
   0.10000000  0.10000000  0.00000000       0.015
   0.15000000  0.10000000  0.00000000       0.030
   0.20000000  0.10000000  0.00000000       0.030
   0.25000000  0.10000000  0.00000000       0.030
   0.30000000  0.10000000  0.00000000       0.030
   0.35000000  0.10000000  0.00000000       0.030
   0.40000000  0.10000000  0.00000000       0.030
   0.45000000  0.10000000  0.00000000       0.015
   0.15000000  0.15000000  0.00000000       0.015
   0.20000000  0.15000000  0.00000000       0.030
   0.25000000  0.15000000  0.00000000       0.030
   0.30000000  0.15000000  0.00000000       0.030
   0.35000000  0.15000000  0.00000000       0.030
   0.40000000  0.15000000  0.00000000       0.030
   0.20000000  0.20000000  0.00000000       0.015
   0.25000000  0.20000000  0.00000000       0.030
   0.30000000  0.20000000  0.00000000       0.030
   0.35000000  0.20000000  0.00000000       0.030
   0.40000000  0.20000000  0.00000000       0.015
   0.25000000  0.25000000  0.00000000       0.015
   0.30000000  0.25000000  0.00000000       0.030
   0.35000000  0.25000000  0.00000000       0.030
   0.30000000  0.30000000  0.00000000       0.015
   0.35000000  0.30000000  0.00000000       0.015
 
 position of ions in fractional coordinates (direct lattice) 
   0.66666667  0.33333333  0.47866380
   0.33333333  0.66666667  0.52133620
 
 position of ions in cartesian coordinates  (Angst):
   1.14724930  0.66236469  7.65862073
   0.00000000  1.32472938  8.34137927
 


--------------------------------------------------------------------------------------------------------


 k-point   1 :   0.0000 0.0000 0.0000  plane waves:    1647
 k-point   2 :   0.0500 0.0000 0.0000  plane waves:    1653
 k-point   3 :   0.1000 0.0000 0.0000  plane waves:    1657
 k-point   4 :   0.1500 0.0000 0.0000  plane waves:    1675
 k-point   5 :   0.2000 0.0000 0.0000  plane waves:    1699
 k-point   6 :   0.2500 0.0000 0.0000  plane waves:    1701
 k-point   7 :   0.3000 0.0000 0.0000  plane waves:    1707
 k-point   8 :   0.3500-0.0000 0.0000  plane waves:    1713
 k-point   9 :   0.4000 0.0000 0.0000  plane waves:    1731
 k-point  10 :   0.4500 0.0000 0.0000  plane waves:    1719
 k-point  11 :   0.5000 0.0000 0.0000  plane waves:    1736
 k-point  12 :   0.0500 0.0500 0.0000  plane waves:    1646
 k-point  13 :   0.1000 0.0500 0.0000  plane waves:    1668
 k-point  14 :   0.1500 0.0500 0.0000  plane waves:    1688
 k-point  15 :   0.2000 0.0500 0.0000  plane waves:    1694
 k-point  16 :   0.2500 0.0500 0.0000  plane waves:    1702
 k-point  17 :   0.3000 0.0500 0.0000  plane waves:    1710
 k-point  18 :   0.3500 0.0500 0.0000  plane waves:    1715
 k-point  19 :   0.4000 0.0500 0.0000  plane waves:    1715
 k-point  20 :   0.4500 0.0500 0.0000  plane waves:    1714
 k-point  21 :   0.1000 0.1000 0.0000  plane waves:    1688
 k-point  22 :   0.1500 0.1000 0.0000  plane waves:    1696
 k-point  23 :   0.2000 0.1000 0.0000  plane waves:    1705
 k-point  24 :   0.2500 0.1000 0.0000  plane waves:    1707
 k-point  25 :   0.3000 0.1000 0.0000  plane waves:    1717
 k-point  26 :   0.3500 0.1000 0.0000  plane waves:    1717
 k-point  27 :   0.4000 0.1000 0.0000  plane waves:    1719
 k-point  28 :   0.4500 0.1000 0.0000  plane waves:    1728
 k-point  29 :   0.1500 0.1500 0.0000  plane waves:    1702
 k-point  30 :   0.2000 0.1500 0.0000  plane waves:    1707
 k-point  31 :   0.2500 0.1500 0.0000  plane waves:    1711
 k-point  32 :   0.3000 0.1500 0.0000  plane waves:    1717
 k-point  33 :   0.3500 0.1500 0.0000  plane waves:    1721
 k-point  34 :   0.4000 0.1500 0.0000  plane waves:    1717
 k-point  35 :   0.2000 0.2000 0.0000  plane waves:    1710
 k-point  36 :   0.2500 0.2000 0.0000  plane waves:    1715
 k-point  37 :   0.3000 0.2000 0.0000  plane waves:    1723
 k-point  38 :   0.3500 0.2000 0.0000  plane waves:    1725
 k-point  39 :   0.4000 0.2000 0.0000  plane waves:    1712
 k-point  40 :   0.2500 0.2500 0.0000  plane waves:    1712
 k-point  41 :   0.3000 0.2500 0.0000  plane waves:    1719
 k-point  42 :   0.3500 0.2500 0.0000  plane waves:    1719
 k-point  43 :   0.3000 0.3000 0.0000  plane waves:    1710
 k-point  44 :   0.3500 0.3000 0.0000  plane waves:    1710

 maximum and minimum number of plane-waves per node :      1736     1646

 maximum number of plane-waves:      1736
 maximum index in each direction: 
   IXMAX=    4   IYMAX=    4   IZMAX=   28
   IXMIN=   -4   IYMIN=   -4   IZMIN=  -28


 serial   3D FFT for wavefunctions
 parallel 3D FFT for charge:
    minimum data exchange during FFTs selected (reduces bandwidth)


 total amount of memory used by VASP MPI-rank0    40554. kBytes
=======================================================================

   base      :      30000. kBytes
   nonl-proj :       4966. kBytes
   fftplans  :       2369. kBytes
   grid      :       1974. kBytes
   one-center:          6. kBytes
   wavefun   :       1239. kBytes
 
     INWAV:  cpu time      0.0000: real time      0.0004
 Broyden mixing: mesh for mixing (old mesh)
   NGX =  9   NGY =  9   NGZ = 57
  (NGX  = 32   NGY  = 32   NGZ  =240)
  gives a total of   4617 points

 initial charge density was supplied:
 charge density of overlapping atoms calculated
 number of electron      10.0000000 magnetization 
 keeping initial charge density in first step


--------------------------------------------------------------------------------------------------------


 Maximum index for augmentation-charges         1465 (set IRDMAX)


--------------------------------------------------------------------------------------------------------


 First call to EWALD:  gamma=   0.424
 Maximum number of real-space cells 5x 5x 1
 Maximum number of reciprocal cells 2x 2x 9

    FEWALD:  cpu time      0.0014: real time      0.0014


--------------------------------------- Ionic step        1  -------------------------------------------




--------------------------------------- Iteration      1(   1)  ---------------------------------------


    POTLOK:  cpu time      0.0087: real time      0.0087
    SETDIJ:  cpu time      0.0624: real time      0.0624
     EDDAV:  cpu time      0.1868: real time      0.1869
       DOS:  cpu time      0.0012: real time      0.0012
    --------------------------------------------
      LOOP:  cpu time      0.2590: real time      0.2592

 eigenvalue-minimisations  :  1408
 total energy-change (2. order) : 0.6067469E+02  (-0.4699584E+03)
 number of electron      10.0000000 magnetization 
 augmentation part       10.0000000 magnetization 

 Free energy of the ion-electron system (eV)
  ---------------------------------------------------
  alpha Z        PSCENC =         5.96913924
  Ewald energy   TEWEN  =      1615.31427867
  -Hartree energ DENC   =     -2059.30277891
  -exchange      EXHF   =         0.00000000
  -V(xc)+E(xc)   XCENC  =        40.29223492
  PAW double counting   =       409.78799272     -412.24743296
  entropy T*S    EENTRO =        -0.00002161
  eigenvalues    EBANDS =       -68.20651606
  atomic energy  EATOM  =       529.06779047
  Solvation  Ediel_sol  =         0.00000000
  ---------------------------------------------------
  free energy    TOTEN  =        60.67468648 eV

  energy without entropy =       60.67470809  energy(sigma->0) =       60.67469729


--------------------------------------------------------------------------------------------------------




 average (electrostatic) potential at core
  the test charge radii are     0.5902
  (the norm of the test charge is              1.0000)
       1 -75.2939       2 -75.2939
 
 
 
 E-fermi :   5.1124     XC(G=0):  -3.1654     alpha+bet : -2.3745

 Fermi energy:         5.1124268245

 k-point     1 :       0.0000    0.0000    0.0000
  band No.  band energies     occupation 
      1     -27.6089      2.00000
      2     -13.3350      2.00000
      3      -1.8689      2.00000
      4       1.9752      2.00000
      5       2.3210      2.00000
      6       3.3206      2.00000
      7       4.1490      2.00000
      8       4.4594      2.00000
      9       7.1224      0.00000
     10       7.9016      0.00000
     11       9.2042      0.00000
     12      13.4867      0.00000
     13      14.2222      0.00000
     14      15.7064      0.00000
     15      18.7199      0.00000
     16      22.3912      0.00000

 k-point     2 :       0.0500    0.0000    0.0000
  band No.  band energies     occupation 
      1     -27.7226      2.00000
      2     -13.5814      2.00000
      3      -2.4779      2.00000
      4       1.1026      2.00000
      5       2.1240      2.00000
      6       2.4455      2.00000
      7       3.6813      2.00000
      8       4.4673      2.00000
      9       5.3914      0.00000
     10       7.5120      0.00000
     11       8.1235      0.00000
     12      11.3071      0.00000
     13      15.2243      0.00000
     14      17.3615      0.00000
     15      22.2194      0.00000
     16      25.2948      0.00000

 k-point     3 :       0.1000    0.0000    0.0000
  band No.  band energies     occupation 
      1     -27.4728      2.00000
      2     -13.1441      2.00000
      3      -5.8994      2.00000
      4      -1.2944      2.00000
      5       2.3499      2.00000
      6       2.7392      2.00000
      7       4.0615      2.00000
      8       4.6692      2.00000
      9       5.3675      0.00000
     10       7.5262      0.00000
     11       8.9597      0.00000
     12      12.5691      0.00000
     13      14.7712      0.00000
     14      17.0419      0.00000
     15      20.7271      0.00000
     16      22.2874      0.00000

 k-point     4 :       0.1500    0.0000    0.0000
  band No.  band energies     occupation 
      1     -27.2458      2.00000
      2     -11.0872      2.00000
      3      -3.6442      2.00000
      4       0.2869      2.00000
      5       2.8280      2.00000
      6       3.1906      2.00000
      7       4.1291      2.00000
      8       5.5069      0.00000
      9       5.8005      0.00000
     10       9.4421      0.00000
     11      11.2861      0.00000
     12      14.1901      0.00000
     13      16.1650      0.00000
     14      20.6855      0.00000
     15      23.5410      0.00000
     16      26.3864      0.00000

 k-point     5 :       0.2000    0.0000    0.0000
  band No.  band energies     occupation 
      1     -26.6334      2.00000
      2     -10.8651      2.00000
      3      -3.7144      2.00000
      4      -1.1338      2.00000
      5       0.6463      2.00000
      6       3.7884      2.00000
      7       4.0393      2.00000
      8       5.6112      0.00000
      9       6.5534      0.00000
     10       9.4355      0.00000
     11      10.1520      0.00000
     12      11.7730      0.00000
     13      14.2920      0.00000
     14      18.0392      0.00000
     15      21.5334      0.00000
     16      26.0958      0.00000

 k-point     6 :       0.2500    0.0000    0.0000
  band No.  band energies     occupation 
      1     -26.1384      2.00000
      2     -11.6223      2.00000
      3      -7.6268      2.00000
      4       1.5425      2.00000
      5       4.3221      2.00000
      6       4.8537      2.00000
      7       5.3679      0.00000
      8       6.7300      0.00000
      9       7.6179      0.00000
     10      10.6786      0.00000
     11      12.0772      0.00000
     12      16.9070      0.00000
     13      18.3777      0.00000
     14      20.1951      0.00000
     15      24.0802      0.00000
     16      26.2055      0.00000

 k-point     7 :       0.3000    0.0000    0.0000
  band No.  band energies     occupation 
      1     -24.6332      2.00000
      2      -9.2031      2.00000
      3      -8.0004      2.00000
      4       0.7238      2.00000
      5       5.1328      0.00400
      6       6.2395      0.00000
      7       6.4183      0.00000
      8       8.2668      0.00000
      9       9.4191      0.00000
     10      10.8701      0.00000
     11      14.0071      0.00000
     12      14.8104      0.00000
     13      17.8649      0.00000
     14      22.0603      0.00000
     15      24.0813      0.00000
     16      27.5258      0.00000

 k-point     8 :       0.3500   -0.0000    0.0000
  band No.  band energies     occupation 
      1     -23.3576      2.00000
      2     -11.0498      2.00000
      3      -5.9885      2.00000
      4       2.0566      2.00000
      5       6.7370      0.00000
      6       7.3982      0.00000
      7       8.1596      0.00000
      8       9.5791      0.00000
      9      11.3545      0.00000
     10      12.8886      0.00000
     11      15.9301      0.00000
     12      16.7296      0.00000
     13      19.5000      0.00000
     14      21.3626      0.00000
     15      24.4181      0.00000
     16      24.7022      0.00000

 k-point     9 :       0.4000    0.0000    0.0000
  band No.  band energies     occupation 
      1     -19.7672      2.00000
      2     -14.2028      2.00000
      3      -4.0228      2.00000
      4       0.3123      2.00000
      5       6.1798      0.00000
      6       8.7528      0.00000
      7       9.6218      0.00000
      8      10.6764      0.00000
      9      11.6347      0.00000
     10      14.6711      0.00000
     11      15.3444      0.00000
     12      16.8223      0.00000
     13      18.2531      0.00000
     14      19.8110      0.00000
     15      22.7470      0.00000
     16      24.9567      0.00000

 k-point    10 :       0.4500    0.0000    0.0000
  band No.  band energies     occupation 
      1     -18.9151      2.00000
      2     -11.7844      2.00000
      3      -3.0721      2.00000
      4       1.0543      2.00000
      5       2.5385      2.00000
      6      10.1867      0.00000
      7      11.1853      0.00000
      8      11.9856      0.00000
      9      12.5343      0.00000
     10      14.7283      0.00000
     11      15.2429      0.00000
     12      15.9305      0.00000
     13      17.0468      0.00000
     14      18.9680      0.00000
     15      20.8393      0.00000
     16      23.1403      0.00000

 k-point    11 :       0.5000    0.0000    0.0000
  band No.  band energies     occupation 
      1     -20.5558      2.00000
      2     -15.1825      2.00000
      3      -2.2370      2.00000
      4       1.0847      2.00000
      5       5.9781      0.00000
      6      10.7122      0.00000
      7      11.7783      0.00000
      8      13.1213      0.00000
      9      13.6036      0.00000
     10      13.8310      0.00000
     11      14.5507      0.00000
     12      15.6204      0.00000
     13      18.1080      0.00000
     14      20.3871      0.00000
     15      20.8679      0.00000
     16      22.0017      0.00000

 k-point    12 :       0.0500    0.0500    0.0000
  band No.  band energies     occupation 
      1     -27.5830      2.00000
      2     -13.1546      2.00000
      3      -1.4419      2.00000
      4       1.6009      2.00000
      5       2.3766      2.00000
      6       2.9607      2.00000
      7       4.1255      2.00000
      8       4.7943      2.00000
      9       6.4323      0.00000
     10       7.8439      0.00000
     11       8.2114      0.00000
     12      12.7874      0.00000
     13      13.4696      0.00000
     14      18.9173      0.00000
     15      22.5857      0.00000
     16      25.2142      0.00000

 k-point    13 :       0.1000    0.0500    0.0000
  band No.  band energies     occupation 
      1     -27.3411      2.00000
      2     -12.2643      2.00000
      3      -2.4920      2.00000
      4      -0.1438      2.00000
      5       2.6525      2.00000
      6       3.0592      2.00000
      7       4.1512      2.00000
      8       5.0125      2.00000
      9       5.4270      0.00000
     10       8.2768      0.00000
     11       9.0199      0.00000
     12      11.6764      0.00000
     13      13.6385      0.00000
     14      15.2842      0.00000
     15      18.0566      0.00000
     16      21.0022      0.00000

 k-point    14 :       0.1500    0.0500    0.0000
  band No.  band energies     occupation 
      1     -26.5310      2.00000
      2     -11.3002      2.00000
      3      -1.6888      2.00000
      4       0.2808      2.00000
      5       3.2748      2.00000
      6       3.9981      2.00000
      7       5.2406      0.00000
      8       5.9789      0.00000
      9       8.1260      0.00000
     10       9.4338      0.00000
     11      11.4018      0.00000
     12      14.0489      0.00000
     13      17.9958      0.00000
     14      20.2944      0.00000
     15      21.2014      0.00000
     16      26.4214      0.00000

 k-point    15 :       0.2000    0.0500    0.0000
  band No.  band energies     occupation 
      1     -26.0761      2.00000
      2     -11.0596      2.00000
      3      -4.7940      2.00000
      4      -0.2882      2.00000
      5       3.7735      2.00000
      6       4.1505      2.00000
      7       5.0321      2.00000
      8       6.6774      0.00000
      9       7.7543      0.00000
     10       9.1984      0.00000
     11      11.9250      0.00000
     12      13.0804      0.00000
     13      19.0680      0.00000
     14      20.7564      0.00000
     15      26.3823      0.00000
     16      27.6947      0.00000

 k-point    16 :       0.2500    0.0500    0.0000
  band No.  band energies     occupation 
      1     -25.4935      2.00000
      2     -10.2788      2.00000
      3      -7.8584      2.00000
      4       2.2660      2.00000
      5       4.4052      2.00000
      6       5.3543      0.00000
      7       5.9604      0.00000
      8       7.1790      0.00000
      9       8.1189      0.00000
     10      10.1866      0.00000
     11      12.3033      0.00000
     12      15.0877      0.00000
     13      17.6778      0.00000
     14      21.0729      0.00000
     15      23.5953      0.00000
     16      24.4400      0.00000

 k-point    17 :       0.3000    0.0500    0.0000
  band No.  band energies     occupation 
      1     -24.1499      2.00000
      2      -9.2277      2.00000
      3      -5.7418      2.00000
      4       1.2389      2.00000
      5       4.8158      2.00000
      6       6.6578      0.00000
      7       7.6076      0.00000
      8       8.7416      0.00000
      9       9.6575      0.00000
     10      10.9898      0.00000
     11      15.4262      0.00000
     12      16.6792      0.00000
     13      18.5009      0.00000
     14      20.9426      0.00000
     15      23.1666      0.00000
     16      25.1379      0.00000

 k-point    18 :       0.3500    0.0500    0.0000
  band No.  band energies     occupation 
      1     -22.8250      2.00000
      2      -9.2169      2.00000
      3      -6.0669      2.00000
      4       3.4898      2.00000
      5       7.6213      0.00000
      6       8.3029      0.00000
      7       8.7787      0.00000
      8      10.2015      0.00000
      9      11.7021      0.00000
     10      14.6347      0.00000
     11      16.6079      0.00000
     12      17.8165      0.00000
     13      20.8932      0.00000
     14      22.5122      0.00000
     15      24.3040      0.00000
     16      25.6590      0.00000

 k-point    19 :       0.4000    0.0500    0.0000
  band No.  band energies     occupation 
      1     -21.0513      2.00000
      2     -11.6716      2.00000
      3      -2.8901      2.00000
      4       2.7913      2.00000
      5       7.3625      0.00000
      6       9.3087      0.00000
      7      10.2431      0.00000
      8      11.1334      0.00000
      9      13.1298      0.00000
     10      14.5199      0.00000
     11      16.7242      0.00000
     12      17.4883      0.00000
     13      19.0998      0.00000
     14      20.0705      0.00000
     15      23.5125      0.00000
     16      25.6637      0.00000

 k-point    20 :       0.4500    0.0500    0.0000
  band No.  band energies     occupation 
      1     -19.3301      2.00000
      2     -13.7695      2.00000
      3      -4.2395      2.00000
      4      -1.6677      2.00000
      5       7.4448      0.00000
      6      11.2727      0.00000
      7      12.1150      0.00000
      8      12.5268      0.00000
      9      13.9610      0.00000
     10      14.9488      0.00000
     11      15.6248      0.00000
     12      16.6300      0.00000
     13      18.0001      0.00000
     14      19.5247      0.00000
     15      23.7107      0.00000
     16      25.9181      0.00000

 k-point    21 :       0.1000    0.1000    0.0000
  band No.  band energies     occupation 
      1     -26.4675      2.00000
      2     -12.4076      2.00000
      3      -1.8587      2.00000
      4      -0.3458      2.00000
      5       3.2235      2.00000
      6       3.5946      2.00000
      7       5.0980      1.95863
      8       5.5532      0.00000
      9       7.7646      0.00000
     10       9.3091      0.00000
     11      10.3773      0.00000
     12      13.2144      0.00000
     13      14.0510      0.00000
     14      17.1625      0.00000
     15      19.5261      0.00000
     16      26.9165      0.00000

 k-point    22 :       0.1500    0.1000    0.0000
  band No.  band energies     occupation 
      1     -26.0430      2.00000
      2     -10.4377      2.00000
      3      -2.9306      2.00000
      4       1.7219      2.00000
      5       3.7237      2.00000
      6       4.4265      2.00000
      7       5.0423      2.00000
      8       6.8292      0.00000
      9       7.5496      0.00000
     10      10.2273      0.00000
     11      12.6019      0.00000
     12      13.9993      0.00000
     13      16.1124      0.00000
     14      19.3647      0.00000
     15      23.6726      0.00000
     16      25.5116      0.00000

 k-point    23 :       0.2000    0.1000    0.0000
  band No.  band energies     occupation 
      1     -25.4800      2.00000
      2     -11.1314      2.00000
      3      -4.3879      2.00000
      4      -0.7800      2.00000
      5      -0.0111      2.00000
      6       4.8323      2.00000
      7       5.3268      0.00000
      8       6.4630      0.00000
      9       8.1760      0.00000
     10       9.4906      0.00000
     11      12.6049      0.00000
     12      15.3090      0.00000
     13      17.1964      0.00000
     14      18.3798      0.00000
     15      20.9639      0.00000
     16      22.8762      0.00000

 k-point    24 :       0.2500    0.1000    0.0000
  band No.  band energies     occupation 
      1     -24.3663      2.00000
      2      -9.2690      2.00000
      3      -2.6152      2.00000
      4       0.9958      2.00000
      5       4.8627      2.00000
      6       6.2332      0.00000
      7       6.7364      0.00000
      8       8.8783      0.00000
      9       9.4231      0.00000
     10      11.7502      0.00000
     11      14.8564      0.00000
     12      16.3480      0.00000
     13      18.9617      0.00000
     14      20.7696      0.00000
     15      25.0451      0.00000
     16      28.8037      0.00000

 k-point    25 :       0.3000    0.1000    0.0000
  band No.  band energies     occupation 
      1     -21.4273      2.00000
      2      -9.9368      2.00000
      3      -4.3046      2.00000
      4       4.3303      2.00000
      5       6.2469      0.00000
      6       8.1926      0.00000
      7       9.6660      0.00000
      8      10.3160      0.00000
      9      11.8629      0.00000
     10      13.6432      0.00000
     11      17.6554      0.00000
     12      18.4036      0.00000
     13      20.1101      0.00000
     14      22.5251      0.00000
     15      24.4290      0.00000
     16      25.6109      0.00000

 k-point    26 :       0.3500    0.1000    0.0000
  band No.  band energies     occupation 
      1     -20.5470      2.00000
      2     -13.6467      2.00000
      3      -1.2575      2.00000
      4      -0.5854      2.00000
      5       6.1969      0.00000
      6       9.0258      0.00000
      7      10.8126      0.00000
      8      11.7961      0.00000
      9      13.2416      0.00000
     10      14.7943      0.00000
     11      16.7319      0.00000
     12      17.5686      0.00000
     13      18.9898      0.00000
     14      20.5223      0.00000
     15      24.7029      0.00000
     16      27.6686      0.00000

 k-point    27 :       0.4000    0.1000    0.0000
  band No.  band energies     occupation 
      1     -18.9419      2.00000
      2     -15.2109      2.00000
      3      -4.0900      2.00000
      4       0.0866      2.00000
      5       6.6104      0.00000
      6       9.5044      0.00000
      7      11.3783      0.00000
      8      12.0325      0.00000
      9      12.5551      0.00000
     10      14.7767      0.00000
     11      16.5725      0.00000
     12      18.1724      0.00000
     13      19.8634      0.00000
     14      21.1331      0.00000
     15      22.6654      0.00000
     16      24.9746      0.00000

 k-point    28 :       0.4500    0.1000    0.0000
  band No.  band energies     occupation 
      1     -18.6362      2.00000
      2     -14.1671      2.00000
      3      -1.4015      2.00000
      4       1.7572      2.00000
      5       4.4557      2.00000
      6      11.4995      0.00000
      7      11.5490      0.00000
      8      12.8682      0.00000
      9      13.2349      0.00000
     10      14.8699      0.00000
     11      15.2788      0.00000
     12      16.2584      0.00000
     13      16.7471      0.00000
     14      18.1261      0.00000
     15      19.4546      0.00000
     16      21.8965      0.00000

 k-point    29 :       0.1500    0.1500    0.0000
  band No.  band energies     occupation 
      1     -25.4858      2.00000
      2     -10.2166      2.00000
      3      -1.1158      2.00000
      4       1.9076      2.00000
      5       3.4652      2.00000
      6       5.1271      0.03737
      7       5.4276      0.00000
      8       7.1637      0.00000
      9       7.8561      0.00000
     10      10.7140      0.00000
     11      12.0780      0.00000
     12      16.7149      0.00000
     13      19.4225      0.00000
[...]
    HAMIL1:  cpu time      0.0383: real time      0.0383
    LRDIAG:  cpu time      0.0126: real time      0.0126
    LRDIIS:  cpu time      0.2109: real time      0.2110
    LRDIAG:  cpu time      0.0113: real time      0.0113
    MIXING:  cpu time      0.0006: real time      0.0006
    --------------------------------------------
      LOOP:  cpu time      0.4522: real time      0.4524

 Broyden mixing:
  rms(total) = 0.64275E-03    rms(broyden)= 0.64275E-03
  rms(prec ) = 0.70241E-03
  weight for this iteration     100.00

 eigenvalues of (default mixing * dielectric matrix)
  average eigenvalue GAMMA=   3.1888
  9.6912  9.6912  5.0374  5.0374  2.2329  0.6816  1.0517  1.0517  0.9477  0.9477
  0.9477  0.9477

 Free energy of the ion-electron system (eV)
  ---------------------------------------------------
  -Hartree energ DENC   =        -0.02068635
  -V(xc)+E(xc)   XCENC  =         0.00011217
  PAW double counting   =         0.00191227       -0.00186432
  entropy T*S    EENTRO =         0.00000000
  eigenvalues    EBANDS =        -0.01639762
  ---------------------------------------------------
  free energy    TOTEN  =        -0.03692385 eV

  energy without entropy =       -0.03692385


------------------------ aborting loop because EDIFF is reached ----------------------------------------


 change of polarisation eV/A/(eV/A) component  3 :     0.000     0.001     0.069
 dielectric tensor                  component  3 :     0.001     0.002     1.171


--------------------------------------------------------------------------------------------------------


    FORLOC:  cpu time      0.0004: real time      0.0004
    FORNL :  cpu time      0.0268: real time      0.0269
    STRESS:  cpu time      0.2733: real time      0.2735
    OFIELD:  cpu time      0.0001: real time      0.0001
    FORLOC:  cpu time      0.0004: real time      0.0004
    FORNL :  cpu time      0.0269: real time      0.0270
    STRESS:  cpu time      0.2731: real time      0.2732
    OFIELD:  cpu time      0.0001: real time      0.0001
    FORNLD:  cpu time      0.1306: real time      0.1306

 PIEZOELECTRIC TENSOR FIELD DIRECTION 3  (e Angst)
 -----------------------------------------------------------------------------
    -0.00002 -0.00000  0.00000           ( -0.00000 -0.00000  0.00000)
     0.00000 -0.00002 -0.00000           (  0.00000 -0.00000  0.00000)
     0.00000 -0.00000  0.00001           (  0.00000  0.00000 -0.00000)

 PIEZOELECTRIC TENSOR FIELD DIRECTION 3  (C/m^2)
 -----------------------------------------------------------------------------
    -0.00000 -0.00000  0.00000
     0.00000 -0.00000 -0.00000
     0.00000 -0.00000  0.00000


      POSITION         DIRECTION 3           BORN EFFECTIVE CHARGE    (rigid.aug.   ionic)
 -----------------------------------------------------------------------------------------
      1.14725      0.66236      7.65862    -0.00000  0.00000  0.01227 ( -0.10377  5.00000)
      0.00000      1.32473      8.34138    -0.00000 -0.00000  0.01233 ( -0.10377  5.00000)
 -----------------------------------------------------------------------------------------
    total drift (improves with k-points):  -0.00000 -0.00000  0.02460




--------------------------------------------------------------------------------------------------------


  LATTYP: Found a hexagonal cell.
 ALAT       =     2.2944985944
 C/A-ratio  =     6.9732010465
  
  Lattice vectors:
  
 A1 = (   2.2944985944,   0.0000000000,   0.0000000000)
 A2 = (  -1.1472492972,   1.9870940717,   0.0000000000)
 A3 = (   0.0000000000,   0.0000000000,  16.0000000000)


Analysis of symmetry for initial positions (statically):
=====================================================================
 Subroutine PRICEL returns:
 Original cell was already a primitive cell.
 

 Routine SETGRP: Setting up the symmetry group for a 
 hexagonal supercell.


 Subroutine GETGRP returns: Found 12 space group operations
 (whereof 12 operations were pure point group operations)
 out of a pool of 24 trial point group operations.


The static configuration has the point symmetry D_3d.


Analysis of symmetry for dynamics (positions and initial velocities):
=====================================================================
 Subroutine PRICEL returns:
 Original cell was already a primitive cell.
 

 Routine SETGRP: Setting up the symmetry group for a 
 hexagonal supercell.


 Subroutine GETGRP returns: Found 12 space group operations
 (whereof 12 operations were pure point group operations)
 out of a pool of 24 trial point group operations.


The dynamic configuration has the point symmetry D_3d.


 Subroutine INISYM returns: Found 12 space group operations
 (whereof 12 operations are pure point group operations),
 and found     1 'primitive' translations

 
 KPOINTS: kpoints                                 

Automatic generation of k-mesh.
 Grid dimensions read from file:
 generate k-points for:   20   20    1

 Generating k-lattice:

  Cartesian coordinates                     Fractional coordinates (reciprocal lattice)
     0.021791253  0.012581186  0.000000000     0.050000000  0.000000000  0.000000000
     0.000000000  0.025162372  0.000000000     0.000000000  0.050000000  0.000000000
     0.000000000  0.000000000  0.062500000     0.000000000  0.000000000  1.000000000

  Length of vectors
     0.025162372  0.025162372  0.062500000

  Shift w.r.t. Gamma in fractional coordinates (k-lattice)
     0.000000000  0.000000000  0.000000000

 
 Subroutine IBZKPT returns following result:
 ===========================================
 
 Found     44 irreducible k-points:
 
 Following reciprocal coordinates:
            Coordinates               Weight
  0.000000  0.000000  0.000000      1.000000
  0.050000  0.000000  0.000000      6.000000
  0.100000  0.000000  0.000000      6.000000
  0.150000  0.000000  0.000000      6.000000
  0.200000  0.000000  0.000000      6.000000
  0.250000  0.000000  0.000000      6.000000
  0.300000  0.000000  0.000000      6.000000
  0.350000 -0.000000  0.000000      6.000000
  0.400000  0.000000  0.000000      6.000000
  0.450000  0.000000  0.000000      6.000000
  0.500000  0.000000  0.000000      3.000000
  0.050000  0.050000  0.000000      6.000000
  0.100000  0.050000  0.000000     12.000000
  0.150000  0.050000  0.000000     12.000000
  0.200000  0.050000  0.000000     12.000000
  0.250000  0.050000  0.000000     12.000000
  0.300000  0.050000  0.000000     12.000000
  0.350000  0.050000  0.000000     12.000000
  0.400000  0.050000  0.000000     12.000000
  0.450000  0.050000  0.000000     12.000000
  0.100000  0.100000  0.000000      6.000000
  0.150000  0.100000  0.000000     12.000000
  0.200000  0.100000  0.000000     12.000000
  0.250000  0.100000  0.000000     12.000000
  0.300000  0.100000  0.000000     12.000000
  0.350000  0.100000  0.000000     12.000000
  0.400000  0.100000  0.000000     12.000000
  0.450000  0.100000  0.000000      6.000000
  0.150000  0.150000  0.000000      6.000000
  0.200000  0.150000  0.000000     12.000000
  0.250000  0.150000  0.000000     12.000000
  0.300000  0.150000  0.000000     12.000000
  0.350000  0.150000  0.000000     12.000000
  0.400000  0.150000  0.000000     12.000000
  0.200000  0.200000  0.000000      6.000000
  0.250000  0.200000  0.000000     12.000000
  0.300000  0.200000  0.000000     12.000000
  0.350000  0.200000  0.000000     12.000000
  0.400000  0.200000  0.000000      6.000000
  0.250000  0.250000  0.000000      6.000000
  0.300000  0.250000  0.000000     12.000000
  0.350000  0.250000  0.000000     12.000000
  0.300000  0.300000  0.000000      6.000000
  0.350000  0.300000  0.000000      6.000000
 
 Following cartesian coordinates:
            Coordinates               Weight
  0.000000  0.000000  0.000000      1.000000
  0.021791  0.012581  0.000000      6.000000
  0.043583  0.025162  0.000000      6.000000
  0.065374  0.037744  0.000000      6.000000
  0.087165  0.050325  0.000000      6.000000
  0.108956  0.062906  0.000000      6.000000
  0.130748  0.075487  0.000000      6.000000
  0.152539  0.088068  0.000000      6.000000
  0.174330  0.100649  0.000000      6.000000
  0.196121  0.113231  0.000000      6.000000
  0.217913  0.125812  0.000000      3.000000
  0.021791  0.037744  0.000000      6.000000
  0.043583  0.050325  0.000000     12.000000
  0.065374  0.062906  0.000000     12.000000
  0.087165  0.075487  0.000000     12.000000
  0.108956  0.088068  0.000000     12.000000
  0.130748  0.100649  0.000000     12.000000
  0.152539  0.113231  0.000000     12.000000
  0.174330  0.125812  0.000000     12.000000
  0.196121  0.138393  0.000000     12.000000
  0.043583  0.075487  0.000000      6.000000
  0.065374  0.088068  0.000000     12.000000
  0.087165  0.100649  0.000000     12.000000
  0.108956  0.113231  0.000000     12.000000
  0.130748  0.125812  0.000000     12.000000
  0.152539  0.138393  0.000000     12.000000
  0.174330  0.150974  0.000000     12.000000
  0.196121  0.163555  0.000000      6.000000
  0.065374  0.113231  0.000000      6.000000
  0.087165  0.125812  0.000000     12.000000
  0.108956  0.138393  0.000000     12.000000
  0.130748  0.150974  0.000000     12.000000
  0.152539  0.163555  0.000000     12.000000
  0.174330  0.176137  0.000000     12.000000
  0.087165  0.150974  0.000000      6.000000
  0.108956  0.163555  0.000000     12.000000
  0.130748  0.176137  0.000000     12.000000
  0.152539  0.188718  0.000000     12.000000
  0.174330  0.201299  0.000000      6.000000
  0.108956  0.188718  0.000000      6.000000
  0.130748  0.201299  0.000000     12.000000
  0.152539  0.213880  0.000000     12.000000
  0.130748  0.226461  0.000000      6.000000
  0.152539  0.239043  0.000000      6.000000
 


 MACROSCOPIC STATIC DIELECTRIC TENSOR (including local field effects in DFT)
 ------------------------------------------------------
           1.994394     0.000000     0.000000
           0.000000     1.994394     0.000000
           0.000000    -0.000000     1.170852
 ------------------------------------------------------



--------------------------------------------------------------------------------------------------------


  LATTYP: Found a hexagonal cell.
 ALAT       =     2.2944985944
 C/A-ratio  =     6.9732010465
  
  Lattice vectors:
  
 A1 = (   2.2944985944,   0.0000000000,   0.0000000000)
 A2 = (  -1.1472492972,   1.9870940717,   0.0000000000)
 A3 = (   0.0000000000,   0.0000000000,  16.0000000000)


Analysis of symmetry for initial positions (statically):
=====================================================================
 Subroutine PRICEL returns:
 Original cell was already a primitive cell.
 

 Routine SETGRP: Setting up the symmetry group for a 
 hexagonal supercell.


 Subroutine GETGRP returns: Found 12 space group operations
 (whereof 12 operations were pure point group operations)
 out of a pool of 24 trial point group operations.


The static configuration has the point symmetry D_3d.


Analysis of symmetry for dynamics (positions and initial velocities):
=====================================================================
 Subroutine PRICEL returns:
 Original cell was already a primitive cell.
 

 Routine SETGRP: Setting up the symmetry group for a 
 hexagonal supercell.


 Subroutine GETGRP returns: Found 12 space group operations
 (whereof 12 operations were pure point group operations)
 out of a pool of 24 trial point group operations.


The dynamic configuration has the point symmetry D_3d.


 Subroutine INISYM returns: Found 12 space group operations
 (whereof 12 operations are pure point group operations),
 and found     1 'primitive' translations

 
 KPOINTS: kpoints                                 

Automatic generation of k-mesh.
 Grid dimensions read from file:
 generate k-points for:   20   20    1

 Generating k-lattice:

  Cartesian coordinates                     Fractional coordinates (reciprocal lattice)
     0.021791253  0.012581186  0.000000000     0.050000000  0.000000000  0.000000000
     0.000000000  0.025162372  0.000000000     0.000000000  0.050000000  0.000000000
     0.000000000  0.000000000  0.062500000     0.000000000  0.000000000  1.000000000

  Length of vectors
     0.025162372  0.025162372  0.062500000

  Shift w.r.t. Gamma in fractional coordinates (k-lattice)
     0.000000000  0.000000000  0.000000000

 
 Subroutine IBZKPT returns following result:
 ===========================================
 
 Found     44 irreducible k-points:
 
 Following reciprocal coordinates:
            Coordinates               Weight
  0.000000  0.000000  0.000000      1.000000
  0.050000  0.000000  0.000000      6.000000
  0.100000  0.000000  0.000000      6.000000
  0.150000  0.000000  0.000000      6.000000
  0.200000  0.000000  0.000000      6.000000
  0.250000  0.000000  0.000000      6.000000
  0.300000  0.000000  0.000000      6.000000
  0.350000 -0.000000  0.000000      6.000000
  0.400000  0.000000  0.000000      6.000000
  0.450000  0.000000  0.000000      6.000000
  0.500000  0.000000  0.000000      3.000000
  0.050000  0.050000  0.000000      6.000000
  0.100000  0.050000  0.000000     12.000000
  0.150000  0.050000  0.000000     12.000000
  0.200000  0.050000  0.000000     12.000000
  0.250000  0.050000  0.000000     12.000000
  0.300000  0.050000  0.000000     12.000000
  0.350000  0.050000  0.000000     12.000000
  0.400000  0.050000  0.000000     12.000000
  0.450000  0.050000  0.000000     12.000000
  0.100000  0.100000  0.000000      6.000000
  0.150000  0.100000  0.000000     12.000000
  0.200000  0.100000  0.000000     12.000000
  0.250000  0.100000  0.000000     12.000000
  0.300000  0.100000  0.000000     12.000000
  0.350000  0.100000  0.000000     12.000000
  0.400000  0.100000  0.000000     12.000000
  0.450000  0.100000  0.000000      6.000000
  0.150000  0.150000  0.000000      6.000000
  0.200000  0.150000  0.000000     12.000000
  0.250000  0.150000  0.000000     12.000000
  0.300000  0.150000  0.000000     12.000000
  0.350000  0.150000  0.000000     12.000000
  0.400000  0.150000  0.000000     12.000000
  0.200000  0.200000  0.000000      6.000000
  0.250000  0.200000  0.000000     12.000000
  0.300000  0.200000  0.000000     12.000000
  0.350000  0.200000  0.000000     12.000000
  0.400000  0.200000  0.000000      6.000000
  0.250000  0.250000  0.000000      6.000000
  0.300000  0.250000  0.000000     12.000000
  0.350000  0.250000  0.000000     12.000000
  0.300000  0.300000  0.000000      6.000000
  0.350000  0.300000  0.000000      6.000000
 
 Following cartesian coordinates:
            Coordinates               Weight
  0.000000  0.000000  0.000000      1.000000
  0.021791  0.012581  0.000000      6.000000
  0.043583  0.025162  0.000000      6.000000
  0.065374  0.037744  0.000000      6.000000
  0.087165  0.050325  0.000000      6.000000
  0.108956  0.062906  0.000000      6.000000
  0.130748  0.075487  0.000000      6.000000
  0.152539  0.088068  0.000000      6.000000
  0.174330  0.100649  0.000000      6.000000
  0.196121  0.113231  0.000000      6.000000
  0.217913  0.125812  0.000000      3.000000
  0.021791  0.037744  0.000000      6.000000
  0.043583  0.050325  0.000000     12.000000
  0.065374  0.062906  0.000000     12.000000
  0.087165  0.075487  0.000000     12.000000
  0.108956  0.088068  0.000000     12.000000
  0.130748  0.100649  0.000000     12.000000
  0.152539  0.113231  0.000000     12.000000
  0.174330  0.125812  0.000000     12.000000
  0.196121  0.138393  0.000000     12.000000
  0.043583  0.075487  0.000000      6.000000
  0.065374  0.088068  0.000000     12.000000
  0.087165  0.100649  0.000000     12.000000
  0.108956  0.113231  0.000000     12.000000
  0.130748  0.125812  0.000000     12.000000
  0.152539  0.138393  0.000000     12.000000
  0.174330  0.150974  0.000000     12.000000
  0.196121  0.163555  0.000000      6.000000
  0.065374  0.113231  0.000000      6.000000
  0.087165  0.125812  0.000000     12.000000
  0.108956  0.138393  0.000000     12.000000
  0.130748  0.150974  0.000000     12.000000
  0.152539  0.163555  0.000000     12.000000
  0.174330  0.176137  0.000000     12.000000
  0.087165  0.150974  0.000000      6.000000
  0.108956  0.163555  0.000000     12.000000
  0.130748  0.176137  0.000000     12.000000
  0.152539  0.188718  0.000000     12.000000
  0.174330  0.201299  0.000000      6.000000
  0.108956  0.188718  0.000000      6.000000
  0.130748  0.201299  0.000000     12.000000
  0.152539  0.213880  0.000000     12.000000
  0.130748  0.226461  0.000000      6.000000
  0.152539  0.239043  0.000000      6.000000
 


--------------------------------------------------------------------------------------------------------




 MACROSCOPIC STATIC DIELECTRIC TENSOR (including local field effects in DFT)
 ------------------------------------------------------
           1.994394     0.000000     0.000000
           0.000000     1.994394     0.000000
           0.000000    -0.000000     1.170852
 ------------------------------------------------------


 PIEZOELECTRIC TENSOR (including local field effects)  for field in x, y, z        (e  Angst)
          XX          YY          ZZ          XY          YZ          ZX
  --------------------------------------------------------------------------------
  x     0.00000     0.00000     0.00000     0.00000     0.00000     0.00000
  y     0.00000     0.00000     0.00000     0.00000     0.00000     0.00000
  z     0.00000     0.00000     0.00000     0.00000     0.00000     0.00000

 PIEZOELECTRIC TENSOR (including local field effects)  for field in x, y, z        (C/m^2)
          XX          YY          ZZ          XY          YZ          ZX
  --------------------------------------------------------------------------------
  x     0.00000     0.00000     0.00000     0.00000     0.00000     0.00000
  y     0.00000     0.00000     0.00000     0.00000     0.00000     0.00000
  z     0.00000     0.00000     0.00000     0.00000     0.00000     0.00000
 
 BORN EFFECTIVE CHARGES (including local field effects) (in |e|, cummulative output)
 ---------------------------------------------------------------------------------
 ion    1
    1     0.00000     0.00000     0.00000
    2     0.00000     0.00000     0.00000
    3     0.00000     0.00000     0.00000
 ion    2
    1     0.00000     0.00000     0.00000
    2     0.00000     0.00000     0.00000
    3     0.00000     0.00000     0.00000


--------------------------------------------------------------------------------------------------------


     LOOP+:  cpu time     49.7239: real time     53.4378
    4ORBIT:  cpu time      0.0000: real time      0.0000



 total charge

# of ion       s       p       d       tot
------------------------------------------
    1        1.272   2.311   0.000   3.583
    2        1.272   2.311   0.000   3.583
--------------------------------------------------
tot          2.545   4.621   0.000   7.166
 

 total amount of memory used by VASP MPI-rank0    40554. kBytes
=======================================================================

   base      :      30000. kBytes
   nonl-proj :       4966. kBytes
   fftplans  :       2369. kBytes
   grid      :       1974. kBytes
   one-center:          6. kBytes
   wavefun   :       1239. kBytes
 
  
  
 General timing and accounting informations for this job:
 ========================================================
  
                  Total CPU time used (sec):       50.319
                            User time (sec):       50.127
                          System time (sec):        0.192
                         Elapsed time (sec):       54.836
  
                   Maximum memory used (kb):      196104.
                   Average memory used (kb):          N/A
  
                          Minor page faults:        33769
                          Major page faults:         2943
                 Voluntary context switches:          542
