PROCAR new format
# of k-points:  202         # of bands:   16         # of ions:    2

 k-point     1 :    0.00000000 0.00000000 0.00000000     weight = 0.00250000

band     1 # energy  -30.03914986 # occ.  2.00000000
 
ion      s      p      d    tot
    1  0.319  0.026  0.000  0.344
    2  0.319  0.026  0.000  0.344
tot    0.638  0.051  0.000  0.689
 
band     2 # energy  -14.50271032 # occ.  2.00000000
 
ion      s      p      d    tot
    1  0.148  0.132  0.000  0.280
    2  0.148  0.132  0.000  0.280
tot    0.296  0.263  0.000  0.560
 
band     3 # energy   -8.56543660 # occ.  2.00000000
 
ion      s      p      d    tot
    1  0.000  0.425  0.000  0.425
    2  0.000  0.425  0.000  0.425
tot    0.000  0.850  0.000  0.850
 
band     4 # energy   -8.22087910 # occ.  2.00000000
 
ion      s      p      d    tot
    1  0.000  0.422  0.000  0.422
    2  0.000  0.422  0.000  0.422
tot    0.000  0.845  0.000  0.845
 
band     5 # energy   -5.63023362 # occ.  2.00000000
 
ion      s      p      d    tot
    1  0.003  0.276  0.000  0.279
    2  0.003  0.276  0.000  0.279
tot    0.006  0.553  0.000  0.558
 
band     6 # energy   -0.27483937 # occ.  0.00000000
 
ion      s      p      d    tot
    1  0.014  0.380  0.000  0.394
    2  0.014  0.380  0.000  0.394
tot    0.027  0.761  0.000  0.788
 
band     7 # energy    0.16418234 # occ.  0.00000000
 
ion      s      p      d    tot
    1  0.015  0.377  0.000  0.393
    2  0.015  0.377  0.000  0.393
tot    0.031  0.755  0.000  0.785
 
band     8 # energy    0.35388999 # occ.  0.00000000
 
ion      s      p      d    tot
    1  0.269  0.169  0.000  0.438
    2  0.269  0.169  0.000  0.438
tot    0.537  0.339  0.000  0.876
 
band     9 # energy    2.07775436 # occ.  0.00000000
 
ion      s      p      d    tot
    1  0.001  0.012  0.000  0.013
    2  0.001  0.012  0.000  0.013
tot    0.002  0.024  0.000  0.026
 
band    10 # energy    2.23101572 # occ.  0.00000000
 
ion      s      p      d    tot
    1  0.002  0.016  0.000  0.018
    2  0.002  0.016  0.000  0.018
tot    0.003  0.033  0.000  0.036
 
band    11 # energy    3.31008082 # occ.  0.00000000
 
ion      s      p      d    tot
    1  0.002  0.020  0.000  0.022
    2  0.002  0.020  0.000  0.022
tot    0.005  0.039  0.000  0.044
 
band    12 # energy    4.29929346 # occ.  0.00000000
 
ion      s      p      d    tot
    1  0.002  0.007  0.000  0.010
    2  0.002  0.007  0.000  0.010
tot    0.005  0.014  0.000  0.019
 
band    13 # energy    6.11726065 # occ.  0.00000000
 
ion      s      p      d    tot
    1  0.006  0.030  0.000  0.035
    2  0.006  0.030  0.000  0.035
tot    0.011  0.059  0.000  0.071
 
band    14 # energy    7.72935672 # occ.  0.00000000
 
ion      s      p      d    tot
    1  0.005  0.010  0.000  0.015
    2  0.005  0.010  0.000  0.015
tot    0.011  0.020  0.000  0.031
 
band    15 # energy   10.12932776 # occ.  0.00000000
 
ion      s      p      d    tot
    1  0.011  0.033  0.000  0.044
    2  0.011  0.033  0.000  0.044
tot    0.022  0.065  0.000  0.088
 
band    16 # energy   12.51843260 # occ.  0.00000000
 
ion      s      p      d    tot
    1  0.008  0.014  0.000  0.022
    2  0.008  0.014  0.000  0.022
tot    0.015  0.028  0.000  0.044
 

 k-point     2 :    0.05000000 0.00000000 0.00000000     weight = 0.00500000

band     1 # energy  -29.96706095 # occ.  2.00000000
 
ion      s      p      d    tot
    1  0.318  0.026  0.000  0.345
    2  0.318  0.026  0.000  0.345
tot    0.637  0.053  0.000  0.689
 
band     2 # energy  -14.43642224 # occ.  2.00000000
 
ion      s      p      d    tot
    1  0.149  0.132  0.000  0.281
    2  0.149  0.132  0.000  0.281
tot    0.298  0.263  0.000  0.561
 
band     3 # energy   -8.90518936 # occ.  2.00000000
 
ion      s      p      d    tot
    1  0.012  0.410  0.000  0.422
    2  0.012  0.410  0.000  0.422
tot    0.023  0.820  0.000  0.844
 
band     4 # energy   -8.41000120 # occ.  2.00000000
 
ion      s      p      d    tot
    1  0.002  0.419  0.000  0.421
    2  0.002  0.419  0.000  0.421
tot    0.003  0.838  0.000  0.841
 
band     5 # energy   -5.59549283 # occ.  2.00000000
 
ion      s      p      d    tot
    1  0.003  0.278  0.000  0.281
    2  0.003  0.278  0.000  0.281
tot    0.006  0.556  0.000  0.563
 
band     6 # energy   -0.23426009 # occ.  0.00000000
 
ion      s      p      d    tot
    1  0.023  0.371  0.000  0.395
    2  0.023  0.371  0.000  0.395
tot    0.047  0.743  0.000  0.789
 
band     7 # energy    0.22705038 # occ.  0.00000000
 
ion      s      p      d    tot
    1  0.003  0.387  0.000  0.390
    2  0.003  0.387  0.000  0.390
tot    0.006  0.774  0.000  0.780
 
band     8 # energy    0.61436239 # occ.  0.00000000
 
ion      s      p      d    tot
    1  0.260  0.181  0.000  0.441
    2  0.260  0.181  0.000  0.441
tot    0.520  0.362  0.000  0.882
 
band     9 # energy    2.17113670 # occ.  0.00000000
 
ion      s      p      d    tot
    1  0.001  0.013  0.000  0.013
    2  0.001  0.013  0.000  0.013
tot    0.001  0.025  0.000  0.026
 
band    10 # energy    2.32232900 # occ.  0.00000000
 
ion      s      p      d    tot
    1  0.002  0.017  0.000  0.018
    2  0.002  0.017  0.000  0.018
tot    0.003  0.034  0.000  0.037
 
band    11 # energy    3.39926865 # occ.  0.00000000
 
ion      s      p      d    tot
    1  0.002  0.020  0.000  0.022
    2  0.002  0.020  0.000  0.022
tot    0.005  0.040  0.000  0.044
 
band    12 # energy    4.39213072 # occ.  0.00000000
 
ion      s      p      d    tot
    1  0.002  0.007  0.000  0.010
    2  0.002  0.007  0.000  0.010
tot    0.005  0.014  0.000  0.019
 
band    13 # energy    6.19886419 # occ.  0.00000000
 
ion      s      p      d    tot
    1  0.006  0.030  0.000  0.035
    2  0.006  0.030  0.000  0.035
tot    0.011  0.059  0.000  0.070
 
band    14 # energy    7.81961028 # occ.  0.00000000
 
ion      s      p      d    tot
    1  0.005  0.010  0.000  0.016
    2  0.005  0.010  0.000  0.016
tot    0.011  0.021  0.000  0.031
 
band    15 # energy   10.19992822 # occ.  0.00000000
 
ion      s      p      d    tot
    1  0.011  0.032  0.000  0.043
    2  0.011  0.032  0.000  0.043
tot    0.022  0.065  0.000  0.086
 
band    16 # energy   12.60300016 # occ.  0.00000000
 
ion      s      p      d    tot
    1  0.008  0.014  0.000  0.022
    2  0.008  0.014  0.000  0.022
tot    0.016  0.029  0.000  0.044
 

 k-point     3 :    0.00000000 0.05000000 0.00000000     weight = 0.00500000

band     1 # energy  -29.96727225 # occ.  2.00000000
 
ion      s      p      d    tot
    1  0.318  0.026  0.000  0.345
    2  0.318  0.026  0.000  0.345
tot    0.637  0.053  0.000  0.690
 
band     2 # energy  -14.43653268 # occ.  2.00000000
 
ion      s      p      d    tot
    1  0.149  0.132  0.000  0.281
    2  0.149  0.132  0.000  0.281
tot    0.298  0.263  0.000  0.561
 
band     3 # energy   -8.70186740 # occ.  2.00000000
 
ion      s      p      d    tot
    1  0.003  0.419  0.000  0.422
    2  0.003  0.419  0.000  0.422
tot    0.006  0.838  0.000  0.845
 
band     4 # energy   -8.61812010 # occ.  2.00000000
 
ion      s      p      d    tot
    1  0.010  0.410  0.000  0.420
    2  0.010  0.410  0.000  0.420
tot    0.021  0.819  0.000  0.840
 
band     5 # energy   -5.59463659 # occ.  2.00000000
 
ion      s      p      d    tot
    1  0.003  0.278  0.000  0.281
    2  0.003  0.278  0.000  0.281
tot    0.006  0.556  0.000  0.563
 
band     6 # energy   -0.24957520 # occ.  0.00000000
 
ion      s      p      d    tot
    1  0.004  0.385  0.000  0.389
    2  0.004  0.385  0.000  0.389
tot    0.008  0.770  0.000  0.778
 
band     7 # energy    0.30204411 # occ.  0.00000000
 
ion      s      p      d    tot
    1  0.004  0.389  0.000  0.393
    2  0.004  0.389  0.000  0.393
tot    0.008  0.778  0.000  0.786
 
band     8 # energy    0.55415950 # occ.  0.00000000
 
ion      s      p      d    tot
    1  0.278  0.167  0.000  0.444
    2  0.278  0.167  0.000  0.444
tot    0.555  0.333  0.000  0.889
 
band     9 # energy    2.17092132 # occ.  0.00000000
 
ion      s      p      d    tot
    1  0.001  0.012  0.000  0.013
    2  0.001  0.012  0.000  0.013
tot    0.002  0.025  0.000  0.026
 
band    10 # energy    2.32198181 # occ.  0.00000000
 
ion      s      p      d    tot
    1  0.002  0.017  0.000  0.018
    2  0.002  0.017  0.000  0.018
tot    0.003  0.034  0.000  0.037
 
band    11 # energy    3.39903273 # occ.  0.00000000
 
ion      s      p      d    tot
    1  0.002  0.020  0.000  0.022
    2  0.002  0.020  0.000  0.022
tot    0.005  0.039  0.000  0.044
 
band    12 # energy    4.39209420 # occ.  0.00000000
 
ion      s      p      d    tot
    1  0.002  0.007  0.000  0.010
    2  0.002  0.007  0.000  0.010
tot    0.005  0.014  0.000  0.019
 
band    13 # energy    6.19870281 # occ.  0.00000000
 
ion      s      p      d    tot
    1  0.006  0.030  0.000  0.035
    2  0.006  0.030  0.000  0.035
tot    0.011  0.059  0.000  0.070
 
band    14 # energy    7.81956333 # occ.  0.00000000
 
ion      s      p      d    tot
    1  0.005  0.010  0.000  0.016
    2  0.005  0.010  0.000  0.016
tot    0.011  0.021  0.000  0.031
 
band    15 # energy   10.19984296 # occ.  0.00000000
 
ion      s      p      d    tot
    1  0.011  0.032  0.000  0.043
    2  0.011  0.032  0.000  0.043
tot    0.022  0.064  0.000  0.086
 
band    16 # energy   12.60287543 # occ.  0.00000000
 
ion      s      p      d    tot
    1  0.008  0.014  0.000  0.022
    2  0.008  0.014  0.000  0.022
tot    0.016  0.029  0.000  0.044
 

 k-point     4 :   -0.05000000 0.05000000 0.00000000     weight = 0.00500000

band     1 # energy  -29.96700258 # occ.  2.00000000
 
ion      s      p      d    tot
    1  0.318  0.026  0.000  0.345
    2  0.318  0.026  0.000  0.345
tot    0.637  0.053  0.000  0.689
 
band     2 # energy  -14.43639217 # occ.  2.00000000
 
ion      s      p      d    tot
    1  0.149  0.132  0.000  0.281
    2  0.149  0.132  0.000  0.281
tot    0.298  0.263  0.000  0.561
 
band     3 # energy   -8.93472656 # occ.  2.00000000
 
ion      s      p      d    tot
    1  0.012  0.409  0.000  0.422
    2  0.012  0.409  0.000  0.422
tot    0.025  0.819  0.000  0.844
 
band     4 # energy   -8.37934838 # occ.  2.00000000
 
ion      s      p      d    tot
    1  0.001  0.420  0.000  0.421
    2  0.001  0.420  0.000  0.421
tot    0.002  0.840  0.000  0.841
 
band     5 # energy   -5.59588502 # occ.  2.00000000
 
ion      s      p      d    tot
    1  0.003  0.278  0.000  0.281
    2  0.003  0.278  0.000  0.281
tot    0.006  0.556  0.000  0.563
 
band     6 # energy   -0.20216552 # occ.  0.00000000
 
ion      s      p      d    tot
    1  0.025  0.371  0.000  0.396
    2  0.025  0.371  0.000  0.396
tot    0.050  0.742  0.000  0.792
 
band     7 # energy    0.16311282 # occ.  0.00000000
 
ion      s      p      d    tot
    1  0.018  0.374  0.000  0.392
    2  0.018  0.374  0.000  0.392
tot    0.036  0.748  0.000  0.784
 
band     8 # energy    0.64671219 # occ.  0.00000000
 
ion      s      p      d    tot
    1  0.243  0.195  0.000  0.438
    2  0.243  0.195  0.000  0.438
tot    0.486  0.390  0.000  0.875
 
band     9 # energy    2.17119903 # occ.  0.00000000
 
ion      s      p      d    tot
    1  0.001  0.013  0.000  0.013
    2  0.001  0.013  0.000  0.013
tot    0.001  0.025  0.000  0.027
 
band    10 # energy    2.32243085 # occ.  0.00000000
 
ion      s      p      d    tot
    1  0.002  0.017  0.000  0.018
    2  0.002  0.017  0.000  0.018
tot    0.003  0.034  0.000  0.037
 
band    11 # energy    3.39933550 # occ.  0.00000000
 
ion      s      p      d    tot
    1  0.002  0.020  0.000  0.022
    2  0.002  0.020  0.000  0.022
tot    0.005  0.040  0.000  0.044
 
band    12 # energy    4.39213884 # occ.  0.00000000
 
ion      s      p      d    tot
    1  0.002  0.007  0.000  0.010
    2  0.002  0.007  0.000  0.010
tot    0.005  0.014  0.000  0.019
 
band    13 # energy    6.19890912 # occ.  0.00000000
 
ion      s      p      d    tot
    1  0.006  0.030  0.000  0.035
    2  0.006  0.030  0.000  0.035
tot    0.011  0.059  0.000  0.070
 
band    14 # energy    7.81962106 # occ.  0.00000000
 
ion      s      p      d    tot
    1  0.005  0.010  0.000  0.016
    2  0.005  0.010  0.000  0.016
tot    0.011  0.021  0.000  0.031
 
band    15 # energy   10.19995274 # occ.  0.00000000
 
ion      s      p      d    tot
    1  0.011  0.032  0.000  0.043
    2  0.011  0.032  0.000  0.043
tot    0.022  0.065  0.000  0.086
 
band    16 # energy   12.60303153 # occ.  0.00000000
 
ion      s      p      d    tot
    1  0.008  0.014  0.000  0.022
    2  0.008  0.014  0.000  0.022
tot    0.016  0.029  0.000  0.044
 

 k-point     5 :    0.10000000 0.00000000 0.00000000     weight = 0.00500000

band     1 # energy  -29.75101967 # occ.  2.00000000
 
ion      s      p      d    tot
    1  0.316  0.029  0.000  0.346
    2  0.316  0.029  0.000  0.346
tot    0.633  0.059  0.000  0.691
 
band     2 # energy  -14.23966170 # occ.  2.00000000
 
ion      s      p      d    tot
    1  0.153  0.131  0.000  0.284
    2  0.153  0.131  0.000  0.284
tot    0.305  0.262  0.000  0.567
 
band     3 # energy   -9.91193514 # occ.  2.00000000
 
ion      s      p      d    tot
    1  0.038  0.375  0.000  0.414
    2  0.038  0.375  0.000  0.414
tot    0.077  0.750  0.000  0.827
 
band     4 # energy   -8.79670415 # occ.  2.00000000
 
ion      s      p      d    tot
    1  0.001  0.416  0.000  0.416
    2  0.001  0.416  0.000  0.416
tot    0.002  0.831  0.000  0.833
 
band     5 # energy   -5.49788003 # occ.  2.00000000
 
ion      s      p      d    tot
    1  0.004  0.284  0.000  0.288
    2  0.004  0.284  0.000  0.288
tot    0.008  0.568  0.000  0.576
 
band     6 # energy   -0.31621662 # occ.  0.00000000
 
ion      s      p      d    tot
    1  0.049  0.339  0.000  0.388
    2  0.049  0.339  0.000  0.388
tot    0.097  0.679  0.000  0.776
 
band     7 # energy    0.49538055 # occ.  0.00000000
 
ion      s      p      d    tot
    1  0.002  0.394  0.000  0.397
    2  0.002  0.394  0.000  0.397
tot    0.005  0.789  0.000  0.794
 
band     8 # energy    1.32558826 # occ.  0.00000000
 
ion      s      p      d    tot
    1  0.212  0.229  0.000  0.441
    2  0.212  0.229  0.000  0.441
tot    0.424  0.458  0.000  0.881
 
band     9 # energy    2.45053831 # occ.  0.00000000
 
ion      s      p      d    tot
    1  0.000  0.014  0.000  0.015
    2  0.000  0.014  0.000  0.015
tot    0.001  0.029  0.000  0.030
 
band    10 # energy    2.59662840 # occ.  0.00000000
 
ion      s      p      d    tot
    1  0.001  0.019  0.000  0.020
    2  0.001  0.019  0.000  0.020
tot    0.003  0.037  0.000  0.040
 
band    11 # energy    3.66704383 # occ.  0.00000000
 
ion      s      p      d    tot
    1  0.002  0.020  0.000  0.022
    2  0.002  0.020  0.000  0.022
tot    0.004  0.040  0.000  0.044
 
band    12 # energy    4.67024869 # occ.  0.00000000
 
ion      s      p      d    tot
    1  0.003  0.007  0.000  0.010
    2  0.003  0.007  0.000  0.010
tot    0.005  0.015  0.000  0.020
 
band    13 # energy    6.44313198 # occ.  0.00000000
 
ion      s      p      d    tot
    1  0.005  0.029  0.000  0.035
    2  0.005  0.029  0.000  0.035
tot    0.010  0.059  0.000  0.069
 
band    14 # energy    8.08968620 # occ.  0.00000000
 
ion      s      p      d    tot
    1  0.006  0.010  0.000  0.016
    2  0.006  0.010  0.000  0.016
tot    0.011  0.021  0.000  0.032
 
band    15 # energy   10.40932540 # occ.  0.00000000
 
ion      s      p      d    tot
    1  0.010  0.031  0.000  0.041
    2  0.010  0.031  0.000  0.041
tot    0.020  0.062  0.000  0.082
 
band    16 # energy   12.85418588 # occ.  0.00000000
 
ion      s      p      d    tot
    1  0.008  0.015  0.000  0.023
    2  0.008  0.015  0.000  0.023
tot    0.016  0.030  0.000  0.047
 

 k-point     6 :    0.00000000 0.10000000 0.00000000     weight = 0.00500000

band     1 # energy  -29.75191501 # occ.  2.00000000
 
ion      s      p      d    tot
    1  0.316  0.029  0.000  0.346
    2  0.316  0.029  0.000  0.346
tot    0.633  0.059  0.000  0.691
 
band     2 # energy  -14.24005812 # occ.  2.00000000
 
ion      s      p      d    tot
    1  0.153  0.131  0.000  0.284
    2  0.153  0.131  0.000  0.284
tot    0.305  0.262  0.000  0.567
 
band     3 # energy   -9.70980893 # occ.  2.00000000
 
ion      s      p      d    tot
    1  0.040  0.372  0.000  0.411
    2  0.040  0.372  0.000  0.411
tot    0.079  0.744  0.000  0.823
 
band     4 # energy   -9.00891399 # occ.  2.00000000
 
ion      s      p      d    tot
    1  0.000  0.419  0.000  0.419
    2  0.000  0.419  0.000  0.419
tot    0.000  0.837  0.000  0.837
 
band     5 # energy   -5.49478205 # occ.  2.00000000
 
ion      s      p      d    tot
    1  0.004  0.284  0.000  0.288
    2  0.004  0.284  0.000  0.288
tot    0.008  0.568  0.000  0.576
 
band     6 # energy   -0.37693496 # occ.  0.00000000
 
ion      s      p      d    tot
    1  0.035  0.348  0.000  0.383
    2  0.035  0.348  0.000  0.383
tot    0.071  0.695  0.000  0.766
 
band     7 # energy    0.66103141 # occ.  0.00000000
 
ion      s      p      d    tot
    1  0.000  0.398  0.000  0.398
    2  0.000  0.398  0.000  0.398
tot    0.000  0.796  0.000  0.796
 
band     8 # energy    1.21005265 # occ.  0.00000000
 
ion      s      p      d    tot
    1  0.226  0.219  0.000  0.445
    2  0.226  0.219  0.000  0.445
tot    0.453  0.438  0.000  0.891
 
band     9 # energy    2.44960188 # occ.  0.00000000
 
ion      s      p      d    tot
    1  0.001  0.014  0.000  0.014
    2  0.001  0.014  0.000  0.014
tot    0.001  0.027  0.000  0.028
 
band    10 # energy    2.59511745 # occ.  0.00000000
 
ion      s      p      d    tot
    1  0.002  0.018  0.000  0.020
    2  0.002  0.018  0.000  0.020
tot    0.003  0.036  0.000  0.039
 
band    11 # energy    3.66612847 # occ.  0.00000000
 
ion      s      p      d    tot
    1  0.002  0.020  0.000  0.022
    2  0.002  0.020  0.000  0.022
tot    0.004  0.040  0.000  0.044
 
band    12 # energy    4.67011143 # occ.  0.00000000
 
ion      s      p      d    tot
    1  0.003  0.007  0.000  0.010
    2  0.003  0.007  0.000  0.010
tot    0.005  0.015  0.000  0.020
 
band    13 # energy    6.44254267 # occ.  0.00000000
 
ion      s      p      d    tot
    1  0.005  0.029  0.000  0.035
    2  0.005  0.029  0.000  0.035
tot    0.010  0.059  0.000  0.069
 
band    14 # energy    8.08949930 # occ.  0.00000000
 
ion      s      p      d    tot
    1  0.006  0.010  0.000  0.016
    2  0.006  0.010  0.000  0.016
tot    0.011  0.021  0.000  0.032
 
band    15 # energy   10.40917746 # occ.  0.00000000
 
ion      s      p      d    tot
    1  0.010  0.031  0.000  0.041
    2  0.010  0.031  0.000  0.041
tot    0.020  0.062  0.000  0.082
 
band    16 # energy   12.85364087 # occ.  0.00000000
 
ion      s      p      d    tot
    1  0.008  0.015  0.000  0.023
    2  0.008  0.015  0.000  0.023
tot    0.016  0.030  0.000  0.047
 

 k-point     7 :   -0.10000000 0.10000000 0.00000000     weight = 0.00500000

band     1 # energy  -29.75077216 # occ.  2.00000000
 
ion      s      p      d    tot
    1  0.316  0.029  0.000  0.346
    2  0.316  0.029  0.000  0.346
tot    0.633  0.059  0.000  0.691
 
band     2 # energy  -14.23955365 # occ.  2.00000000
 
ion      s      p      d    tot
    1  0.153  0.131  0.000  0.284
    2  0.153  0.131  0.000  0.284
tot    0.306  0.262  0.000  0.567
 
band     3 # energy   -9.95399711 # occ.  2.00000000
 
ion      s      p      d    tot
    1  0.039  0.375  0.000  0.414
    2  0.039  0.375  0.000  0.414
tot    0.077  0.751  0.000  0.828
 
band     4 # energy   -8.75248794 # occ.  2.00000000
 
ion      s      p      d    tot
    1  0.000  0.416  0.000  0.416
    2  0.000  0.416  0.000  0.416
tot    0.001  0.831  0.000  0.832
 
band     5 # energy   -5.49911701 # occ.  2.00000000
 
ion      s      p      d    tot
    1  0.004  0.284  0.000  0.288
    2  0.004  0.284  0.000  0.288
tot    0.008  0.568  0.000  0.576
 
band     6 # energy   -0.26765078 # occ.  0.00000000
 
ion      s      p      d    tot
    1  0.054  0.335  0.000  0.389
    2  0.054  0.335  0.000  0.389
tot    0.108  0.670  0.000  0.778
 
band     7 # energy    0.41096015 # occ.  0.00000000
 
ion      s      p      d    tot
    1  0.003  0.395  0.000  0.398
    2  0.003  0.395  0.000  0.398
tot    0.006  0.789  0.000  0.795
 
band     8 # energy    1.36531807 # occ.  0.00000000
 
ion      s      p      d    tot
    1  0.206  0.233  0.000  0.439
    2  0.206  0.233  0.000  0.439
tot    0.412  0.465  0.000  0.877
 
band     9 # energy    2.45080944 # occ.  0.00000000
 
ion      s      p      d    tot
    1  0.000  0.015  0.000  0.015
    2  0.000  0.015  0.000  0.015
tot    0.001  0.029  0.000  0.030
 
band    10 # energy    2.59712008 # occ.  0.00000000
 
ion      s      p      d    tot
    1  0.001  0.019  0.000  0.020
    2  0.001  0.019  0.000  0.020
tot    0.003  0.038  0.000  0.041
 
band    11 # energy    3.66731115 # occ.  0.00000000
 
ion      s      p      d    tot
    1  0.002  0.020  0.000  0.022
    2  0.002  0.020  0.000  0.022
tot    0.004  0.040  0.000  0.044
 
band    12 # energy    4.67027864 # occ.  0.00000000
 
ion      s      p      d    tot
    1  0.003  0.007  0.000  0.010
    2  0.003  0.007  0.000  0.010
tot    0.005  0.015  0.000  0.020
 
band    13 # energy    6.44329438 # occ.  0.00000000
 
ion      s      p      d    tot
    1  0.005  0.029  0.000  0.035
    2  0.005  0.029  0.000  0.035
tot    0.010  0.059  0.000  0.069
 
band    14 # energy    8.08972894 # occ.  0.00000000
 
ion      s      p      d    tot
    1  0.006  0.010  0.000  0.016
    2  0.006  0.010  0.000  0.016
tot    0.011  0.021  0.000  0.032
 
band    15 # energy   10.40936423 # occ.  0.00000000
 
ion      s      p      d    tot
    1  0.010  0.031  0.000  0.041
    2  0.010  0.031  0.000  0.041
tot    0.020  0.062  0.000  0.082
 
band    16 # energy   12.85432422 # occ.  0.00000000
 
ion      s      p      d    tot
    1  0.008  0.015  0.000  0.023
    2  0.008  0.015  0.000  0.023
tot    0.016  0.030  0.000  0.047
 

 k-point     8 :    0.15000000 0.00000000 0.00000000     weight = 0.00500000

band     1 # energy  -29.39254551 # occ.  2.00000000
 
ion      s      p      d    tot
    1  0.313  0.034  0.000  0.347
    2  0.313  0.034  0.000  0.347
tot    0.626  0.068  0.000  0.694
 
band     2 # energy  -13.92374669 # occ.  2.00000000
 
ion      s      p      d    tot
    1  0.165  0.126  0.000  0.290
    2  0.165  0.126  0.000  0.290
tot    0.329  0.252  0.000  0.581
 
band     3 # energy  -11.31266532 # occ.  2.00000000
 
ion      s      p      d    tot
    1  0.056  0.345  0.000  0.402
    2  0.056  0.345  0.000  0.402
tot    0.113  0.690  0.000  0.803
 
band     4 # energy   -9.29321417 # occ.  2.00000000
 
ion      s      p      d    tot
    1  0.000  0.411  0.000  0.411
    2  0.000  0.411  0.000  0.411
tot    0.001  0.822  0.000  0.822
 
band     5 # energy   -5.36317368 # occ.  2.00000000
 
ion      s      p      d    tot
    1  0.006  0.293  0.000  0.300
    2  0.006  0.293  0.000  0.300
tot    0.013  0.587  0.000  0.600
 
band     6 # energy   -0.57129826 # occ.  0.00000000
 
ion      s      p      d    tot
    1  0.069  0.306  0.000  0.375
    2  0.069  0.306  0.000  0.375
tot    0.138  0.613  0.000  0.751
 
band     7 # energy    0.98117400 # occ.  0.00000000
 
ion      s      p      d    tot
    1  0.001  0.404  0.000  0.405
    2  0.001  0.404  0.000  0.405
tot    0.002  0.808  0.000  0.810
 
band     8 # energy    2.15368741 # occ.  0.00000000
 
ion      s      p      d    tot
    1  0.169  0.262  0.000  0.431
    2  0.169  0.262  0.000  0.431
tot    0.337  0.524  0.000  0.861
 
band     9 # energy    2.91170617 # occ.  0.00000000
 
ion      s      p      d    tot
    1  0.001  0.015  0.000  0.016
    2  0.001  0.015  0.000  0.016
tot    0.001  0.030  0.000  0.031
 
band    10 # energy    3.06142725 # occ.  0.00000000
 
ion      s      p      d    tot
    1  0.003  0.026  0.000  0.029
    2  0.003  0.026  0.000  0.029
tot    0.006  0.053  0.000  0.058
 
band    11 # energy    4.11625058 # occ.  0.00000000
 
ion      s      p      d    tot
    1  0.002  0.021  0.000  0.023
    2  0.002  0.021  0.000  0.023
tot    0.004  0.043  0.000  0.047
 
band    12 # energy    5.13262020 # occ.  0.00000000
 
ion      s      p      d    tot
    1  0.003  0.007  0.000  0.010
    2  0.003  0.007  0.000  0.010
tot    0.006  0.014  0.000  0.020
 
band    13 # energy    6.84987399 # occ.  0.00000000
 
ion      s      p      d    tot
    1  0.005  0.029  0.000  0.034
    2  0.005  0.029  0.000  0.034
tot    0.009  0.058  0.000  0.068
 
band    14 # energy    8.53760795 # occ.  0.00000000
 
ion      s      p      d    tot
    1  0.006  0.011  0.000  0.017
    2  0.006  0.011  0.000  0.017
tot    0.012  0.021  0.000  0.033
 
band    15 # energy   10.75207065 # occ.  0.00000000
 
ion      s      p      d    tot
    1  0.009  0.029  0.000  0.037
    2  0.009  0.029  0.000  0.037
tot    0.017  0.058  0.000  0.075
 
band    16 # energy   13.26275964 # occ.  0.00000000
 
ion      s      p      d    tot
    1  0.009  0.016  0.000  0.026
    2  0.009  0.016  0.000  0.026
tot    0.018  0.033  0.000  0.051
 

 k-point     9 :    0.00000000 0.15000000 0.00000000     weight = 0.00500000

band     1 # energy  -29.39472671 # occ.  2.00000000
 
ion      s      p      d    tot
    1  0.313  0.034  0.000  0.347
    2  0.313  0.034  0.000  0.347
tot    0.627  0.068  0.000  0.694
 
band     2 # energy  -13.92395191 # occ.  2.00000000
 
ion      s      p      d    tot
    1  0.164  0.127  0.000  0.290
    2  0.164  0.127  0.000  0.290
tot    0.327  0.253  0.000  0.580
 
band     3 # energy  -11.14414620 # occ.  2.00000000
 
ion      s      p      d    tot
    1  0.057  0.342  0.000  0.400
    2  0.057  0.342  0.000  0.400
tot    0.115  0.684  0.000  0.799
 
band     4 # energy   -9.47113786 # occ.  2.00000000
 
ion      s      p      d    tot
    1  0.000  0.413  0.000  0.413
    2  0.000  0.413  0.000  0.413
tot    0.000  0.827  0.000  0.827
 
band     5 # energy   -5.35642648 # occ.  2.00000000
 
ion      s      p      d    tot
    1  0.007  0.293  0.000  0.300
    2  0.007  0.293  0.000  0.300
tot    0.013  0.586  0.000  0.599
 
band     6 # energy   -0.64232180 # occ.  0.00000000
 
ion      s      p      d    tot
    1  0.063  0.309  0.000  0.373
    2  0.063  0.309  0.000  0.373
tot    0.127  0.619  0.000  0.746
 
band     7 # energy    1.15155635 # occ.  0.00000000
 
ion      s      p      d    tot
    1  0.000  0.405  0.000  0.405
    2  0.000  0.405  0.000  0.405
tot    0.000  0.811  0.000  0.811
 
band     8 # energy    2.01996178 # occ.  0.00000000
 
ion      s      p      d    tot
    1  0.175  0.263  0.000  0.437
    2  0.175  0.263  0.000  0.437
tot    0.349  0.526  0.000  0.875
 
band     9 # energy    2.91003447 # occ.  0.00000000
 
ion      s      p      d    tot
    1  0.001  0.014  0.000  0.015
    2  0.001  0.014  0.000  0.015
tot    0.002  0.027  0.000  0.029
 
band    10 # energy    3.05606330 # occ.  0.00000000
 
ion      s      p      d    tot
    1  0.002  0.024  0.000  0.026
    2  0.002  0.024  0.000  0.026
tot    0.005  0.048  0.000  0.052
 
band    11 # energy    4.11395420 # occ.  0.00000000
 
ion      s      p      d    tot
    1  0.002  0.021  0.000  0.023
    2  0.002  0.021  0.000  0.023
tot    0.004  0.042  0.000  0.046
 
band    12 # energy    5.13238196 # occ.  0.00000000
 
ion      s      p      d    tot
    1  0.003  0.007  0.000  0.010
    2  0.003  0.007  0.000  0.010
tot    0.006  0.014  0.000  0.020
 
band    13 # energy    6.84863599 # occ.  0.00000000
 
ion      s      p      d    tot
    1  0.005  0.029  0.000  0.034
    2  0.005  0.029  0.000  0.034
tot    0.009  0.058  0.000  0.067
 
band    14 # energy    8.53721679 # occ.  0.00000000
 
ion      s      p      d    tot
    1  0.006  0.011  0.000  0.017
    2  0.006  0.011  0.000  0.017
tot    0.012  0.021  0.000  0.033
 
band    15 # energy   10.75243050 # occ.  0.00000000
 
ion      s      p      d    tot
    1  0.009  0.029  0.000  0.038
    2  0.009  0.029  0.000  0.038
tot    0.018  0.057  0.000  0.075
 
band    16 # energy   13.26141214 # occ.  0.00000000
 
ion      s      p      d    tot
    1  0.009  0.016  0.000  0.026
    2  0.009  0.016  0.000  0.026
tot    0.018  0.033  0.000  0.051
 

 k-point    10 :   -0.15000000 0.15000000 0.00000000     weight = 0.00500000

band     1 # energy  -29.39194166 # occ.  2.00000000
 
ion      s      p      d    tot
    1  0.313  0.034  0.000  0.347
    2  0.313  0.034  0.000  0.347
tot    0.626  0.068  0.000  0.694
 
band     2 # energy  -13.92369915 # occ.  2.00000000
 
ion      s      p      d    tot
    1  0.165  0.126  0.000  0.290
    2  0.165  0.126  0.000  0.290
tot    0.330  0.251  0.000  0.581
 
band     3 # energy  -11.35305073 # occ.  2.00000000
 
ion      s      p      d    tot
    1  0.056  0.346  0.000  0.402
    2  0.056  0.346  0.000  0.402
tot    0.113  0.691  0.000  0.804
 
band     4 # energy   -9.25123626 # occ.  2.00000000
 
ion      s      p      d    tot
    1  0.000  0.411  0.000  0.411
    2  0.000  0.411  0.000  0.411
tot    0.000  0.821  0.000  0.822
 
band     5 # energy   -5.36553340 # occ.  2.00000000
 
ion      s      p      d    tot
    1  0.006  0.293  0.000  0.300
    2  0.006  0.293  0.000  0.300
tot    0.013  0.587  0.000  0.600
 
band     6 # energy   -0.53295658 # occ.  0.00000000
 
ion      s      p      d    tot
    1  0.071  0.304  0.000  0.375
    2  0.071  0.304  0.000  0.375
tot    0.143  0.608  0.000  0.751
 
band     7 # energy    0.91332713 # occ.  0.00000000
 
ion      s      p      d    tot
    1  0.001  0.405  0.000  0.406
    2  0.001  0.405  0.000  0.406
tot    0.002  0.810  0.000  0.812
 
band     8 # energy    2.19370321 # occ.  0.00000000
 
ion      s      p      d    tot
    1  0.166  0.261  0.000  0.428
    2  0.166  0.261  0.000  0.428
tot    0.333  0.523  0.000  0.856
 
band     9 # energy    2.91215886 # occ.  0.00000000
 
ion      s      p      d    tot