<?xml version="1.0" encoding="ISO-8859-1"?>
<modeling>
 <generator>
  <i name="program" type="string">vasp </i>
  <i name="version" type="string">6.4.2  </i>
  <i name="subversion" type="string">20Jul23 (build Nov 14 2023 12:59:38) complex                          parallel </i>
  <i name="platform" type="string">LinuxIFC </i>
  <i name="date" type="string">2023 12 29 </i>
  <i name="time" type="string">16:17:50 </i>
 </generator>
 <incar>
  <i type="string" name="PREC">Accurate</i>
  <i type="string" name="ALGO">Normal</i>
  <i type="logical" name="ADDGRID"> T  </i>
  <i type="int" name="ISPIN">     1</i>
  <i name="AMIX">      0.10000000</i>
  <i name="BMIX">      0.00010000</i>
  <i type="int" name="ICHARG">     2</i>
  <i type="int" name="NELM">   200</i>
  <i type="int" name="NELMDL">   -12</i>
  <i type="int" name="NELMIN">     6</i>
  <i name="EDIFF">      0.00000100</i>
  <i name="ENCUT">    473.51475000</i>
  <i type="int" name="NEDOS">  6001</i>
  <i type="logical" name="LREAL"> F  </i>
  <i type="logical" name="LPLANE"> T  </i>
  <i type="int" name="ISMEAR">     0</i>
  <i name="SIGMA">      0.01000000</i>
  <i type="int" name="NWRITE">     3</i>
  <i type="logical" name="LWAVE"> F  </i>
  <i type="logical" name="LCHARG"> F  </i>
  <i type="logical" name="LVTOT"> F  </i>
  <i type="int" name="LORBIT">    10</i>
  <i type="logical" name="LELF"> F  </i>
  <i type="logical" name="LASPH"> T  </i>
  <i type="logical" name="LEPSILON"> T  </i>
  <i type="int" name="IVDW">     0</i>
 </incar>
 <primitive_cell>
  <structure name="primitive_cell" >
   <crystal>
    <varray name="basis" >
     <v>       2.29449859       0.00000000       0.00000000 </v>
     <v>      -1.14724930       1.98709407       0.00000000 </v>
     <v>       0.00000000       0.00000000      16.00000000 </v>
    </varray>
    <i name="volume">     72.95015287 </i>
    <varray name="rec_basis" >
     <v>       0.43582507       0.25162372       0.00000000 </v>
     <v>       0.00000000       0.50324744       0.00000000 </v>
     <v>       0.00000000       0.00000000       0.06250000 </v>
    </varray>
   </crystal>
   <varray name="positions" >
    <v>       0.66776151       0.33681302       0.47822185 </v>
    <v>       0.33223849       0.66318698       0.52177815 </v>
   </varray>
  </structure>
  <varray name="primitive_index" >
   <v type="int" >        1 </v>
   <v type="int" >        2 </v>
  </varray>
 </primitive_cell>
 <kpoints>
  <generation param="Gamma">
   <v type="int" name="divisions">      20       20        1 </v>
   <v name="usershift">      0.00000000       0.00000000       0.00000000 </v>
   <v name="genvec1">      0.05000000       0.00000000       0.00000000 </v>
   <v name="genvec2">      0.00000000       0.05000000       0.00000000 </v>
   <v name="genvec3">      0.00000000       0.00000000       1.00000000 </v>
   <v name="shift">      0.00000000       0.00000000       0.00000000 </v>
  </generation>
  <varray name="kpointlist" >
   <v>       0.00000000       0.00000000       0.00000000 </v>
   <v>       0.05000000       0.00000000       0.00000000 </v>
   <v>       0.00000000       0.05000000       0.00000000 </v>
   <v>      -0.05000000       0.05000000       0.00000000 </v>
   <v>       0.10000000       0.00000000       0.00000000 </v>
   <v>       0.00000000       0.10000000       0.00000000 </v>
   <v>      -0.10000000       0.10000000       0.00000000 </v>
   <v>       0.15000000       0.00000000       0.00000000 </v>
   <v>       0.00000000       0.15000000       0.00000000 </v>
   <v>      -0.15000000       0.15000000       0.00000000 </v>
   <v>       0.20000000       0.00000000       0.00000000 </v>
   <v>       0.00000000       0.20000000       0.00000000 </v>
   <v>      -0.20000000       0.20000000       0.00000000 </v>
   <v>       0.25000000       0.00000000       0.00000000 </v>
   <v>       0.00000000       0.25000000       0.00000000 </v>
   <v>      -0.25000000       0.25000000       0.00000000 </v>
   <v>       0.30000000       0.00000000       0.00000000 </v>
   <v>       0.00000000       0.30000000       0.00000000 </v>
   <v>      -0.30000000       0.30000000       0.00000000 </v>
   <v>       0.35000000      -0.00000000       0.00000000 </v>
   <v>       0.00000000       0.35000000       0.00000000 </v>
   <v>      -0.35000000       0.35000000       0.00000000 </v>
   <v>       0.40000000       0.00000000       0.00000000 </v>
   <v>       0.00000000       0.40000000       0.00000000 </v>
   <v>      -0.40000000       0.40000000       0.00000000 </v>
   <v>       0.45000000       0.00000000       0.00000000 </v>
   <v>       0.00000000       0.45000000       0.00000000 </v>
   <v>      -0.45000000       0.45000000       0.00000000 </v>
   <v>       0.50000000       0.00000000       0.00000000 </v>
   <v>       0.00000000       0.50000000       0.00000000 </v>
   <v>       0.50000000       0.50000000       0.00000000 </v>
   <v>       0.05000000       0.05000000       0.00000000 </v>
   <v>      -0.05000000       0.10000000       0.00000000 </v>
   <v>      -0.10000000       0.05000000       0.00000000 </v>
   <v>       0.10000000       0.05000000       0.00000000 </v>
   <v>      -0.05000000       0.15000000       0.00000000 </v>
   <v>      -0.15000000       0.10000000       0.00000000 </v>
   <v>      -0.10000000       0.15000000       0.00000000 </v>
   <v>       0.05000000       0.10000000       0.00000000 </v>
   <v>       0.15000000      -0.05000000       0.00000000 </v>
   <v>       0.15000000       0.05000000       0.00000000 </v>
   <v>      -0.05000000       0.20000000       0.00000000 </v>
   <v>      -0.20000000       0.15000000       0.00000000 </v>
   <v>      -0.15000000       0.20000000       0.00000000 </v>
   <v>       0.05000000       0.15000000       0.00000000 </v>
   <v>       0.20000000      -0.05000000       0.00000000 </v>
   <v>       0.20000000       0.05000000       0.00000000 </v>
   <v>      -0.05000000       0.25000000       0.00000000 </v>
   <v>      -0.25000000       0.20000000       0.00000000 </v>
   <v>      -0.20000000       0.25000000       0.00000000 </v>
   <v>       0.05000000       0.20000000       0.00000000 </v>
   <v>       0.25000000      -0.05000000       0.00000000 </v>
   <v>       0.25000000       0.05000000       0.00000000 </v>
   <v>      -0.05000000       0.30000000       0.00000000 </v>
   <v>      -0.30000000       0.25000000       0.00000000 </v>
   <v>      -0.25000000       0.30000000       0.00000000 </v>
   <v>       0.05000000       0.25000000       0.00000000 </v>
   <v>       0.30000000      -0.05000000       0.00000000 </v>
   <v>       0.30000000       0.05000000       0.00000000 </v>
   <v>      -0.05000000       0.35000000       0.00000000 </v>
   <v>      -0.35000000       0.30000000       0.00000000 </v>
   <v>      -0.30000000       0.35000000       0.00000000 </v>
   <v>       0.05000000       0.30000000       0.00000000 </v>
   <v>       0.35000000      -0.05000000       0.00000000 </v>
   <v>       0.35000000       0.05000000       0.00000000 </v>
   <v>      -0.05000000       0.40000000       0.00000000 </v>
   <v>      -0.40000000       0.35000000       0.00000000 </v>
   <v>      -0.35000000       0.40000000       0.00000000 </v>
   <v>       0.05000000       0.35000000       0.00000000 </v>
   <v>       0.40000000      -0.05000000       0.00000000 </v>
   <v>       0.40000000       0.05000000       0.00000000 </v>
   <v>      -0.05000000       0.45000000       0.00000000 </v>
   <v>      -0.45000000       0.40000000       0.00000000 </v>
   <v>      -0.40000000       0.45000000       0.00000000 </v>
   <v>       0.05000000       0.40000000       0.00000000 </v>
   <v>       0.45000000      -0.05000000       0.00000000 </v>
   <v>       0.45000000       0.05000000       0.00000000 </v>
   <v>      -0.05000000       0.50000000       0.00000000 </v>
   <v>       0.50000000       0.45000000       0.00000000 </v>
   <v>      -0.45000000       0.50000000       0.00000000 </v>
   <v>       0.05000000       0.45000000       0.00000000 </v>
   <v>       0.50000000      -0.05000000       0.00000000 </v>
   <v>       0.10000000       0.10000000       0.00000000 </v>
   <v>      -0.10000000       0.20000000       0.00000000 </v>
   <v>      -0.20000000       0.10000000       0.00000000 </v>
   <v>       0.15000000       0.10000000       0.00000000 </v>
   <v>      -0.10000000       0.25000000       0.00000000 </v>
   <v>      -0.25000000       0.15000000       0.00000000 </v>
   <v>      -0.15000000       0.25000000       0.00000000 </v>
   <v>       0.10000000       0.15000000       0.00000000 </v>
   <v>       0.25000000      -0.10000000       0.00000000 </v>
   <v>       0.20000000       0.10000000       0.00000000 </v>
   <v>      -0.10000000       0.30000000       0.00000000 </v>
   <v>      -0.30000000       0.20000000       0.00000000 </v>
   <v>      -0.20000000       0.30000000       0.00000000 </v>
   <v>       0.10000000       0.20000000       0.00000000 </v>
   <v>       0.30000000      -0.10000000       0.00000000 </v>
   <v>       0.25000000       0.10000000       0.00000000 </v>
   <v>      -0.10000000       0.35000000       0.00000000 </v>
   <v>      -0.35000000       0.25000000       0.00000000 </v>
   <v>      -0.25000000       0.35000000       0.00000000 </v>
   <v>       0.10000000       0.25000000       0.00000000 </v>
   <v>       0.35000000      -0.10000000       0.00000000 </v>
   <v>       0.30000000       0.10000000       0.00000000 </v>
   <v>      -0.10000000       0.40000000       0.00000000 </v>
   <v>      -0.40000000       0.30000000       0.00000000 </v>
   <v>      -0.30000000       0.40000000       0.00000000 </v>
   <v>       0.10000000       0.30000000       0.00000000 </v>
   <v>       0.40000000      -0.10000000       0.00000000 </v>
   <v>       0.35000000       0.10000000       0.00000000 </v>
   <v>      -0.10000000       0.45000000       0.00000000 </v>
   <v>      -0.45000000       0.35000000       0.00000000 </v>
   <v>      -0.35000000       0.45000000       0.00000000 </v>
   <v>       0.10000000       0.35000000       0.00000000 </v>
   <v>       0.45000000      -0.10000000       0.00000000 </v>
   <v>       0.40000000       0.10000000       0.00000000 </v>
   <v>      -0.10000000       0.50000000       0.00000000 </v>
   <v>       0.50000000       0.40000000       0.00000000 </v>
   <v>      -0.40000000       0.50000000       0.00000000 </v>
   <v>       0.10000000       0.40000000       0.00000000 </v>
   <v>       0.50000000      -0.10000000       0.00000000 </v>
   <v>       0.45000000       0.10000000       0.00000000 </v>
   <v>      -0.10000000      -0.45000000       0.00000000 </v>
   <v>       0.45000000       0.45000000       0.00000000 </v>
   <v>       0.15000000       0.15000000       0.00000000 </v>
   <v>      -0.15000000       0.30000000       0.00000000 </v>
   <v>      -0.30000000       0.15000000       0.00000000 </v>
   <v>       0.20000000       0.15000000       0.00000000 </v>
   <v>      -0.15000000       0.35000000       0.00000000 </v>
   <v>      -0.35000000       0.20000000       0.00000000 </v>
   <v>      -0.20000000       0.35000000       0.00000000 </v>
   <v>       0.15000000       0.20000000       0.00000000 </v>
   <v>       0.35000000      -0.15000000       0.00000000 </v>
   <v>       0.25000000       0.15000000       0.00000000 </v>
   <v>      -0.15000000       0.40000000       0.00000000 </v>
   <v>      -0.40000000       0.25000000       0.00000000 </v>
   <v>      -0.25000000       0.40000000       0.00000000 </v>
   <v>       0.15000000       0.25000000       0.00000000 </v>
   <v>       0.40000000      -0.15000000       0.00000000 </v>
   <v>       0.30000000       0.15000000       0.00000000 </v>
   <v>      -0.15000000       0.45000000       0.00000000 </v>
   <v>      -0.45000000       0.30000000       0.00000000 </v>
   <v>      -0.30000000       0.45000000       0.00000000 </v>
   <v>       0.15000000       0.30000000       0.00000000 </v>
   <v>       0.45000000      -0.15000000       0.00000000 </v>
   <v>       0.35000000       0.15000000       0.00000000 </v>
   <v>      -0.15000000       0.50000000       0.00000000 </v>
   <v>       0.50000000       0.35000000       0.00000000 </v>
   <v>      -0.35000000       0.50000000       0.00000000 </v>
   <v>       0.15000000       0.35000000       0.00000000 </v>
   <v>       0.50000000      -0.15000000       0.00000000 </v>
   <v>       0.40000000       0.15000000       0.00000000 </v>
   <v>      -0.15000000      -0.45000000       0.00000000 </v>
   <v>       0.45000000       0.40000000       0.00000000 </v>
   <v>      -0.40000000      -0.45000000       0.00000000 </v>
   <v>       0.15000000       0.40000000       0.00000000 </v>
   <v>      -0.45000000      -0.15000000       0.00000000 </v>
   <v>       0.20000000       0.20000000       0.00000000 </v>
   <v>      -0.20000000       0.40000000       0.00000000 </v>
   <v>      -0.40000000       0.20000000       0.00000000 </v>
   <v>       0.25000000       0.20000000       0.00000000 </v>
   <v>      -0.20000000       0.45000000       0.00000000 </v>
   <v>      -0.45000000       0.25000000       0.00000000 </v>
   <v>      -0.25000000       0.45000000       0.00000000 </v>
   <v>       0.20000000       0.25000000       0.00000000 </v>
   <v>       0.45000000      -0.20000000       0.00000000 </v>
   <v>       0.30000000       0.20000000       0.00000000 </v>
   <v>      -0.20000000       0.50000000       0.00000000 </v>
   <v>       0.50000000       0.30000000       0.00000000 </v>
   <v>      -0.30000000       0.50000000       0.00000000 </v>
   <v>       0.20000000       0.30000000       0.00000000 </v>
   <v>       0.50000000      -0.20000000       0.00000000 </v>
   <v>       0.35000000       0.20000000       0.00000000 </v>
   <v>      -0.20000000      -0.45000000       0.00000000 </v>
   <v>       0.45000000       0.35000000       0.00000000 </v>
   <v>      -0.35000000      -0.45000000       0.00000000 </v>
   <v>       0.20000000       0.35000000       0.00000000 </v>
   <v>      -0.45000000      -0.20000000       0.00000000 </v>
   <v>       0.40000000       0.20000000       0.00000000 </v>
   <v>      -0.20000000      -0.40000000       0.00000000 </v>
   <v>       0.40000000       0.40000000       0.00000000 </v>
   <v>       0.25000000       0.25000000       0.00000000 </v>
   <v>      -0.25000000       0.50000000       0.00000000 </v>
   <v>       0.50000000       0.25000000       0.00000000 </v>
   <v>       0.30000000       0.25000000       0.00000000 </v>
   <v>      -0.25000000      -0.45000000       0.00000000 </v>
   <v>       0.45000000       0.30000000       0.00000000 </v>
   <v>      -0.30000000      -0.45000000       0.00000000 </v>
   <v>       0.25000000       0.30000000       0.00000000 </v>
   <v>      -0.45000000      -0.25000000       0.00000000 </v>
   <v>       0.35000000       0.25000000       0.00000000 </v>
   <v>      -0.25000000      -0.40000000       0.00000000 </v>
   <v>       0.40000000       0.35000000       0.00000000 </v>
   <v>      -0.35000000      -0.40000000       0.00000000 </v>
   <v>       0.25000000       0.35000000       0.00000000 </v>
   <v>      -0.40000000      -0.25000000       0.00000000 </v>
   <v>       0.30000000       0.30000000       0.00000000 </v>
   <v>      -0.30000000      -0.40000000       0.00000000 </v>
   <v>       0.40000000       0.30000000       0.00000000 </v>
   <v>       0.35000000       0.30000000       0.00000000 </v>
   <v>      -0.30000000      -0.35000000       0.00000000 </v>
   <v>       0.35000000       0.35000000       0.00000000 </v>
  </varray>
  <varray name="weights" >
   <v>       0.00250000 </v>
   <v>       0.00500000 </v>
   <v>       0.00500000 </v>
   <v>       0.00500000 </v>
   <v>       0.00500000 </v>
   <v>       0.00500000 </v>
   <v>       0.00500000 </v>
   <v>       0.00500000 </v>
   <v>       0.00500000 </v>
   <v>       0.00500000 </v>
   <v>       0.00500000 </v>
   <v>       0.00500000 </v>
   <v>       0.00500000 </v>
   <v>       0.00500000 </v>
   <v>       0.00500000 </v>
   <v>       0.00500000 </v>
   <v>       0.00500000 </v>
   <v>       0.00500000 </v>
   <v>       0.00500000 </v>
   <v>       0.00500000 </v>
   <v>       0.00500000 </v>
   <v>       0.00500000 </v>
   <v>       0.00500000 </v>
   <v>       0.00500000 </v>
   <v>       0.00500000 </v>
   <v>       0.00500000 </v>
   <v>       0.00500000 </v>
   <v>       0.00500000 </v>
   <v>       0.00250000 </v>
   <v>       0.00250000 </v>
   <v>       0.00250000 </v>
   <v>       0.00500000 </v>
   <v>       0.00500000 </v>
   <v>       0.00500000 </v>
   <v>       0.00500000 </v>
   <v>       0.00500000 </v>
   <v>       0.00500000 </v>
   <v>       0.00500000 </v>
   <v>       0.00500000 </v>
   <v>       0.00500000 </v>
   <v>       0.00500000 </v>
   <v>       0.00500000 </v>
   <v>       0.00500000 </v>
   <v>       0.00500000 </v>
   <v>       0.00500000 </v>
   <v>       0.00500000 </v>
   <v>       0.00500000 </v>
   <v>       0.00500000 </v>
   <v>       0.00500000 </v>
   <v>       0.00500000 </v>
   <v>       0.00500000 </v>
   <v>       0.00500000 </v>
   <v>       0.00500000 </v>
   <v>       0.00500000 </v>
   <v>       0.00500000 </v>
   <v>       0.00500000 </v>
   <v>       0.00500000 </v>
   <v>       0.00500000 </v>
   <v>       0.00500000 </v>
   <v>       0.00500000 </v>
   <v>       0.00500000 </v>
   <v>       0.00500000 </v>
   <v>       0.00500000 </v>
   <v>       0.00500000 </v>
   <v>       0.00500000 </v>
   <v>       0.00500000 </v>
   <v>       0.00500000 </v>
   <v>       0.00500000 </v>
   <v>       0.00500000 </v>
   <v>       0.00500000 </v>
   <v>       0.00500000 </v>
   <v>       0.00500000 </v>
   <v>       0.00500000 </v>
   <v>       0.00500000 </v>
   <v>       0.00500000 </v>
   <v>       0.00500000 </v>
   <v>       0.00500000 </v>
   <v>       0.00500000 </v>
   <v>       0.00500000 </v>
   <v>       0.00500000 </v>
   <v>       0.00500000 </v>
   <v>       0.00500000 </v>
   <v>       0.00500000 </v>
   <v>       0.00500000 </v>
   <v>       0.00500000 </v>
   <v>       0.00500000 </v>
   <v>       0.00500000 </v>
   <v>       0.00500000 </v>
   <v>       0.00500000 </v>
   <v>       0.00500000 </v>
   <v>       0.00500000 </v>
   <v>       0.00500000 </v>
   <v>       0.00500000 </v>
   <v>       0.00500000 </v>
   <v>       0.00500000 </v>
   <v>       0.00500000 </v>
   <v>       0.00500000 </v>
   <v>       0.00500000 </v>
   <v>       0.00500000 </v>
   <v>       0.00500000 </v>
   <v>       0.00500000 </v>
   <v>       0.00500000 </v>
   <v>       0.00500000 </v>
   <v>       0.00500000 </v>
   <v>       0.00500000 </v>
   <v>       0.00500000 </v>
   <v>       0.00500000 </v>
   <v>       0.00500000 </v>
   <v>       0.00500000 </v>
   <v>       0.00500000 </v>
   <v>       0.00500000 </v>
   <v>       0.00500000 </v>
   <v>       0.00500000 </v>
   <v>       0.00500000 </v>
   <v>       0.00500000 </v>
   <v>       0.00500000 </v>
   <v>       0.00500000 </v>
   <v>       0.00500000 </v>
   <v>       0.00500000 </v>
   <v>       0.00500000 </v>
   <v>       0.00500000 </v>
   <v>       0.00500000 </v>
   <v>       0.00500000 </v>
   <v>       0.00500000 </v>
   <v>       0.00500000 </v>
   <v>       0.00500000 </v>
   <v>       0.00500000 </v>
   <v>       0.00500000 </v>
   <v>       0.00500000 </v>
   <v>       0.00500000 </v>
   <v>       0.00500000 </v>
   <v>       0.00500000 </v>
   <v>       0.00500000 </v>
   <v>       0.00500000 </v>
   <v>       0.00500000 </v>
   <v>       0.00500000 </v>
   <v>       0.00500000 </v>
   <v>       0.00500000 </v>
   <v>       0.00500000 </v>
   <v>       0.00500000 </v>
   <v>       0.00500000 </v>
   <v>       0.00500000 </v>
   <v>       0.00500000 </v>
   <v>       0.00500000 </v>
   <v>       0.00500000 </v>
   <v>       0.00500000 </v>
   <v>       0.00500000 </v>
   <v>       0.00500000 </v>
   <v>       0.00500000 </v>
   <v>       0.00500000 </v>
   <v>       0.00500000 </v>
   <v>       0.00500000 </v>
   <v>       0.00500000 </v>
   <v>       0.00500000 </v>
   <v>       0.00500000 </v>
   <v>       0.00500000 </v>
   <v>       0.00500000 </v>
   <v>       0.00500000 </v>
   <v>       0.00500000 </v>
   <v>       0.00500000 </v>
   <v>       0.00500000 </v>
   <v>       0.00500000 </v>
   <v>       0.00500000 </v>
   <v>       0.00500000 </v>
   <v>       0.00500000 </v>
   <v>       0.00500000 </v>
   <v>       0.00500000 </v>
   <v>       0.00500000 </v>
   <v>       0.00500000 </v>
   <v>       0.00500000 </v>
   <v>       0.00500000 </v>
   <v>       0.00500000 </v>
   <v>       0.00500000 </v>
   <v>       0.00500000 </v>
   <v>       0.00500000 </v>
   <v>       0.00500000 </v>
   <v>       0.00500000 </v>
   <v>       0.00500000 </v>
   <v>       0.00500000 </v>
   <v>       0.00500000 </v>
   <v>       0.00500000 </v>
   <v>       0.00500000 </v>
   <v>       0.00500000 </v>
   <v>       0.00500000 </v>
   <v>       0.00500000 </v>
   <v>       0.00500000 </v>
   <v>       0.00500000 </v>
   <v>       0.00500000 </v>
   <v>       0.00500000 </v>
   <v>       0.00500000 </v>
   <v>       0.00500000 </v>
   <v>       0.00500000 </v>
   <v>       0.00500000 </v>
   <v>       0.00500000 </v>
   <v>       0.00500000 </v>
   <v>       0.00500000 </v>
   <v>       0.00500000 </v>
   <v>       0.00500000 </v>
   <v>       0.00500000 </v>
   <v>       0.00500000 </v>
   <v>       0.00500000 </v>
   <v>       0.00500000 </v>
  </varray>
 </kpoints>
 <parameters>
  <separator name="general" >
   <i type="string" name="SYSTEM">unknown system</i>
   <i type="logical" name="LCOMPAT"> F  </i>
  </separator>
  <separator name="electronic" >
   <i type="string" name="PREC">accura</i>
   <i name="ENMAX">    473.51475000</i>
   <i name="ENAUG">    904.64000000</i>
   <i name="EDIFF">      0.00000100</i>
   <i type="int" name="IALGO">    38</i>
   <i type="int" name="IWAVPR">    10</i>
   <i type="int" name="NBANDS">    16</i>
   <i type="int" name="NBANDSLOW">    -1</i>
   <i type="int" name="NBANDSHIGH">    -1</i>
   <i name="NELECT">     10.00000000</i>
   <i type="int" name="TURBO">     0</i>
   <i type="int" name="IRESTART">     0</i>
   <i type="int" name="NREBOOT">     0</i>
   <i type="int" name="NMIN">     0</i>
   <i name="EREF">      0.00000000</i>
   <separator name="electronic smearing" >
    <i type="int" name="ISMEAR">     0</i>
    <i name="SIGMA">      0.01000000</i>
    <i name="KSPACING">      0.50000000</i>
    <i type="logical" name="KGAMMA"> T  </i>
    <i type="logical" name="KBLOWUP"> T  </i>
   </separator>
   <separator name="electronic projectors" >
    <i type="logical" name="LREAL"> F  </i>
    <v name="ROPT">      0.00000000</v>
    <i type="int" name="LMAXPAW">  -100</i>
    <i type="int" name="LMAXMIX">     2</i>
    <i type="logical" name="NLSPLINE"> F  </i>
   </separator>
   <separator name="electronic startup" >
    <i type="int" name="ISTART">     0</i>
    <i type="int" name="ICHARG">     2</i>
    <i type="int" name="INIWAV">     1</i>
   </separator>
   <separator name="electronic spin" >
    <i type="int" name="ISPIN">     1</i>
    <i type="logical" name="LNONCOLLINEAR"> F  </i>
    <v name="MAGMOM">      1.00000000      1.00000000</v>
    <i name="NUPDOWN">     -1.00000000</i>
    <i type="logical" name="LSORBIT"> F  </i>
    <v name="SAXIS">      0.00000000      0.00000000      1.00000000</v>
    <i type="logical" name="LSPIRAL"> F  </i>
    <v name="QSPIRAL">      0.00000000      0.00000000      0.00000000</v>
    <i type="logical" name="LZEROZ"> F  </i>
   </separator>
   <separator name="electronic exchange-correlation" >
    <i type="logical" name="LASPH"> T  </i>
    <i type="logical" name="LMETAGGA"> F  </i>
   </separator>
   <separator name="electronic convergence" >
    <i type="int" name="NELM">   200</i>
    <i type="int" name="NELMDL">   -12</i>
    <i type="int" name="NELMIN">     6</i>
    <i name="ENINI">    473.51475000</i>
    <separator name="electronic convergence detail" >
     <i type="logical" name="LDIAG"> T  </i>
     <i type="logical" name="LSUBROT"> F  </i>
     <i name="WEIMIN">      0.00000000</i>
     <i name="EBREAK">      0.00000002</i>
     <i name="DEPER">      0.30000000</i>
     <i type="int" name="NRMM">     4</i>
     <i name="TIME">      0.40000000</i>
    </separator>
   </separator>
   <separator name="electronic mixer" >
    <i name="AMIX">      0.10000000</i>
    <i name="BMIX">      0.00010000</i>
    <i name="AMIN">      0.10000000</i>
    <i name="AMIX_MAG">      0.40000000</i>
    <i name="BMIX_MAG">      0.00010000</i>
    <separator name="electronic mixer details" >
     <i type="int" name="IMIX">     4</i>
     <i type="logical" name="MIXFIRST"> F  </i>
     <i type="int" name="MAXMIX">   -45</i>
     <i name="WC">    100.00000000</i>
     <i type="int" name="INIMIX">     1</i>
     <i type="int" name="MIXPRE">     1</i>
     <i type="int" name="MREMOVE">     5</i>
    </separator>
   </separator>
   <separator name="electronic dipolcorrection" >
    <i type="logical" name="LDIPOL"> F  </i>
    <i type="logical" name="LMONO"> F  </i>
    <i type="int" name="IDIPOL">     0</i>
    <i name="EPSILON">      1.00000000</i>
    <v name="DIPOL">   -100.00000000   -100.00000000   -100.00000000</v>
    <i name="EFIELD">      0.00000000</i>
   </separator>
  </separator>
  <separator name="grids" >
   <i type="int" name="NGX">    16</i>
   <i type="int" name="NGY">    16</i>
   <i type="int" name="NGZ">   120</i>
   <i type="int" name="NGXF">    32</i>
   <i type="int" name="NGYF">    32</i>
   <i type="int" name="NGZF">   240</i>
   <i type="logical" name="ADDGRID"> T  </i>
  </separator>
  <separator name="ionic" >
   <i type="int" name="NSW">     0</i>
   <i type="int" name="IBRION">    -1</i>
   <i type="int" name="MDALGO">     0</i>
   <i type="int" name="ISIF">     2</i>
   <i name="PSTRESS">      0.00000000</i>
   <i name="EDIFFG">      0.00001000</i>
   <i type="int" name="NFREE">     0</i>
   <i name="POTIM">      0.50000000</i>
   <i name="SMASS">     -3.00000000</i>
   <i name="SCALEE">      1.00000000</i>
  </separator>
  <separator name="ionic md" >
   <i name="TEBEG">      0.00010000</i>
   <i name="TEEND">      0.00010000</i>
   <i type="int" name="NBLOCK">     1</i>
   <i type="int" name="KBLOCK">     1</i>
   <i type="int" name="NPACO">   256</i>
   <i name="APACO">     10.00000000</i>
  </separator>
  <separator name="symmetry" >
   <i type="int" name="ISYM">     2</i>
   <i name="SYMPREC">      0.00001000</i>
  </separator>
  <separator name="dos" >
   <i type="int" name="LORBIT">    10</i>
   <v name="RWIGS">     -1.00000000</v>
   <i type="int" name="NEDOS">  6001</i>
   <i name="EMIN">     10.00000000</i>
   <i name="EMAX">    -10.00000000</i>
   <i name="EFERMI">      0.00000000</i>
  </separator>
  <separator name="writing" >
   <i type="int" name="NWRITE">     3</i>
   <i type="logical" name="LWAVE"> F  </i>
   <i type="logical" name="LDOWNSAMPLE"> F  </i>
   <i type="logical" name="LCHARG"> F  </i>
   <i type="logical" name="LPARD"> F  </i>
   <i type="logical" name="LVTOT"> F  </i>
   <i type="logical" name="LVHAR"> F  </i>
   <i type="logical" name="LELF"> F  </i>
   <i type="logical" name="LOPTICS"> F  </i>
   <v name="STM">      0.00000000      0.00000000      0.00000000      0.00000000      0.00000000      0.00000000      0.00000000</v>
  </separator>
  <separator name="performance" >
   <i type="int" name="NPAR">    16</i>
   <i type="int" name="NSIM">     4</i>
   <i type="int" name="NBLK">    -1</i>
   <i type="logical" name="LPLANE"> T  </i>
   <i type="logical" name="LSCALAPACK"> T  </i>
   <i type="logical" name="LSCAAWARE"> F  </i>
   <i type="logical" name="LSCALU"> F  </i>
   <i type="logical" name="LASYNC"> F  </i>
   <i type="logical" name="LORBITALREAL"> F  </i>
  </separator>
  <separator name="miscellaneous" >
   <i type="int" name="IDIOT">     3</i>
   <i type="int" name="PHON_NSTRUCT">    -1</i>
   <i type="logical" name="LMUSIC"> F  </i>
   <v name="POMASS">     14.00100000</v>
   <v name="DARWINR">      0.00000000</v>
   <v name="DARWINV">      1.00000000</v>
   <i type="logical" name="LCORR"> T  </i>
  </separator>
  <i type="logical" name="GGA_COMPAT"> T  </i>
  <i type="logical" name="LBERRY"> F  </i>
  <i type="int" name="ICORELEVEL">     0</i>
  <i type="logical" name="LDAU"> F  </i>
  <i type="int" name="I_CONSTRAINED_M">     0</i>
  <separator name="electronic exchange-correlation" >
   <i type="string" name="GGA">--</i>
   <i type="int" name="VOSKOWN">     0</i>
   <i type="logical" name="LHFCALC"> F  </i>
   <i type="string" name="PRECFOCK"></i>
   <i type="logical" name="LSYMGRAD"> F  </i>
   <i type="logical" name="LHFONE"> F  </i>
   <i type="logical" name="LRHFCALC"> F  </i>
   <i type="logical" name="LTHOMAS"> F  </i>
   <i type="logical" name="LMODELHF"> F  </i>
   <i type="logical" name="LFOCKACE"> F  </i>
   <i name="ENCUT4O">     -1.00000000</i>
   <i type="int" name="EXXOEP">     0</i>
   <i type="int" name="FOURORBIT">     0</i>
   <i name="AEXX">      0.00000000</i>
   <i name="HFALPHA">      0.00000000</i>
   <i name="MCALPHA">      0.00000000</i>
   <i name="ALDAX">      1.00000000</i>
   <i name="AGGAX">      1.00000000</i>
   <i name="ALDAC">      1.00000000</i>
   <i name="AGGAC">      1.00000000</i>
   <i type="int" name="NKREDX">     1</i>
   <i type="int" name="NKREDY">     1</i>
   <i type="int" name="NKREDZ">     1</i>
   <i type="logical" name="SHIFTRED"> F  </i>
   <i type="logical" name="ODDONLY"> F  </i>
   <i type="logical" name="EVENONLY"> F  </i>
   <i type="int" name="LMAXFOCK">     0</i>
   <i type="int" name="NMAXFOCKAE">     0</i>
   <i type="logical" name="LFOCKAEDFT"> F  </i>
   <i name="HFSCREEN">      0.00000000</i>
   <i name="HFSCREENC">      0.00000000</i>
   <i type="int" name="NBANDSGWLOW">     0</i>
  </separator>
  <separator name="vdW DFT" >
   <i type="logical" name="LUSE_VDW"> F  </i>
   <i type="int" name="IVDW_NL">     1</i>
   <i type="logical" name="LSPIN_VDW"> F  </i>
   <i name="Zab_VDW">     -0.84910000</i>
   <i name="PARAM1">      0.12340000</i>
   <i name="PARAM2">      1.00000000</i>
   <i name="PARAM3">      0.00000000</i>
  </separator>
  <separator name="model GW" >
   <i type="int" name="MODEL_GW">     0</i>
   <i name="MODEL_EPS0">     21.88504586</i>
   <i name="MODEL_ALPHA">      1.00000000</i>
  </separator>
  <separator name="linear response parameters" >
   <i type="logical" name="LEPSILON"> T  </i>
   <i type="logical" name="LRPA"> F  </i>
   <i type="logical" name="LNABLA"> F  </i>
   <i type="logical" name="LVEL"> F  </i>
   <i name="CSHIFT">      0.10000000</i>
   <i name="OMEGAMAX">     -1.00000000</i>
   <i name="DEG_THRESHOLD">      0.00200000</i>
   <i name="RTIME">     -0.10000000</i>
   <i name="WPLASMAI">      0.00000000</i>
   <v name="DFIELD">      0.00000000      0.00000000      0.00000000</v>
   <v name="WPLASMA">      0.00000000      0.00000000      0.00000000      0.00000000      0.00000000      0.00000000      0.00000000      0.00000000      0.00000000</v>
  </separator>
  <separator name="orbital magnetization" >
   <i type="logical" name="NUCIND"> F  </i>
   <v name="MAGPOS">      0.00000000      0.00000000      0.00000000</v>
   <i type="logical" name="LNICSALL"> T  </i>
   <i type="logical" name="ORBITALMAG"> F  </i>
   <i type="logical" name="LMAGBLOCH"> F  </i>
   <i type="logical" name="LCHIMAG"> F  </i>
   <i type="logical" name="LGAUGE"> T  </i>
   <i type="int" name="MAGATOM">     0</i>
   <v name="MAGDIPOL">      0.00000000      0.00000000      0.00000000</v>
   <v name="AVECCONST">      0.00000000      0.00000000      0.00000000</v>
  </separator>
  <separator name="response functions" >
   <i type="logical" name="LALL_IN_ONE"> F  </i>
   <i type="int" name="IALL_IN_ONE">    -1</i>
   <i type="int" name="NBANDS_WAVE">    -1</i>
   <i type="logical" name="LFINITE_TEMPERATURE"> F  </i>
   <i type="logical" name="LADDER"> F  </i>
   <i type="logical" name="LRPAFORCE"> F  </i>
   <i type="logical" name="LFXC"> F  </i>
   <i type="logical" name="LHARTREE"> T  </i>
   <i type="int" name="IBSE">     0</i>
   <v type="int" name="KPOINT">    -1     0     0     0</v>
   <i type="logical" name="LTCTC"> F  </i>
   <i type="logical" name="LTCTE"> F  </i>
   <i type="logical" name="LTETE"> F  </i>
   <i type="logical" name="LTRIPLET"> F  </i>
   <i type="logical" name="LFXCEPS"> F  </i>
   <i type="logical" name="LFXHEG"> F  </i>
   <i type="int" name="NATURALO">     2</i>
   <i type="logical" name="LHOLEGF"> F  </i>
   <i type="logical" name="L2ORDER"> F  </i>
   <i type="logical" name="LDMP1"> F  </i>
   <i type="logical" name="LMP2LT"> F  </i>
   <i type="logical" name="LSMP2LT"> F  </i>
   <i type="logical" name="LGWLF"> F  </i>
   <i name="ENCUTGW">     -1.60000002</i>
   <i name="ENCUTGWSOFT">     -1.60000002</i>
   <i name="ENCUTLF">     -1.00000000</i>
   <i type="logical" name="LESF_SPLINES"> F  </i>
   <i type="int" name="LMAXMP2">    -1</i>
   <i name="SCISSOR">      0.00000000</i>
   <i type="int" name="NOMEGA">     0</i>
   <i type="int" name="NOMEGAR">     0</i>
   <i type="int" name="NBANDSGW">    -1</i>
   <i type="int" name="NBANDSO">    -1</i>
   <i type="int" name="NBANDSV">    -1</i>
   <i type="int" name="NELMGW">     1</i>
   <i type="int" name="NELMHF">     1</i>
   <i type="int" name="DIM">     3</i>
   <i type="int" name="IESPILON">     4</i>
   <i type="int" name="ANTIRES">     0</i>
   <i name="OMEGAMAX">    -30.00000000</i>
   <i name="OMEGAMIN">    -30.00000000</i>
   <i name="OMEGATL">   -200.00000000</i>
   <i type="int" name="OMEGAGRID">     0</i>
   <i name="CSHIFT">     -0.10000000</i>
   <i type="logical" name="LSELFENERGY"> F  </i>
   <i type="logical" name="LSPECTRAL"> F  </i>
   <i type="logical" name="LSPECTRALGW"> F  </i>
   <i type="logical" name="LSINGLES"> F  </i>
   <i type="logical" name="LFERMIGW"> F  </i>
   <i type="logical" name="ODDONLYGW"> F  </i>
   <i type="logical" name="EVENONLYGW"> F  </i>
   <i type="int" name="NKREDLFX">     1</i>
   <i type="int" name="NKREDLFY">     1</i>
   <i type="int" name="NKREDLFZ">     1</i>
   <i type="int" name="MAXMEM">  2800</i>
   <i type="int" name="TELESCOPE">     0</i>
   <i type="int" name="NTAUPAR">    -1</i>
   <i type="int" name="NOMEGAPAR">    -1</i>
   <i name="DAMP_NEWTON">      0.80000001</i>
   <i name="LAMBDA">      1.00000000</i>
  </separator>
  <separator name="External order field" >
   <i name="OFIELD_KAPPA">      0.00000000</i>
   <v name="OFIELD_K">      0.00000000      0.00000000      0.00000000</v>
   <i name="OFIELD_Q6_NEAR">      0.00000000</i>
   <i name="OFIELD_Q6_FAR">      0.00000000</i>
   <i name="OFIELD_A">      0.00000000</i>
  </separator>
  <separator name="optional k-points parameters" >
   <i type="int" name="KPOINTS_OPT_MODE">     1</i>
   <i type="logical" name="LKPOINTS_OPT"> F  </i>
  </separator>
 </parameters>
 <atominfo>
  <atoms>       2 </atoms>
  <types>       1 </types>
  <array name="atoms" >
   <dimension dim="1">ion</dimension>
   <field type="string">element</field>
   <field type="int">atomtype</field>
   <set>
    <rc><c>N </c><c>   1</c></rc>
    <rc><c>N </c><c>   1</c></rc>
   </set>
  </array>
  <array name="atomtypes" >
   <dimension dim="1">type</dimension>
   <field type="int">atomspertype</field>
   <field type="string">element</field>
   <field>mass</field>
   <field>valence</field>
   <field type="string">pseudopotential</field>
   <set>
    <rc><c>   2</c><c>N </c><c>     14.00100000</c><c>      5.00000000</c><c>  PAW_PBE N_GW 10Apr2007                </c></rc>
   </set>
  </array>
 </atominfo>
 <structure name="initialpos" >
  <crystal>
   <varray name="basis" >
    <v>       2.29449859       0.00000000       0.00000000 </v>
    <v>      -1.14724930       1.98709407       0.00000000 </v>
    <v>       0.00000000       0.00000000      16.00000000 </v>
   </varray>
   <i name="volume">     72.95015287 </i>
   <varray name="rec_basis" >
    <v>       0.43582507       0.25162372       0.00000000 </v>
    <v>       0.00000000       0.50324744       0.00000000 </v>
    <v>       0.00000000       0.00000000       0.06250000 </v>
   </varray>
  </crystal>
  <varray name="positions" >
   <v>       0.66776151       0.33681302       0.47822185 </v>
   <v>       0.33223849       0.66318698       0.52177815 </v>
  </varray>
 </structure>
 <calculation>
  <scstep>
   <time name="dav">    0.85    0.85</time>
   <time name="total">    0.92    1.03</time>
   <energy>
    <i name="alphaZ">      5.96913924 </i>
    <i name="ewald">   1610.66856881 </i>
    <i name="hartreedc">  -2055.26152914 </i>
    <i name="XCdc">     40.24309401 </i>
    <i name="pawpsdc">    409.78799272 </i>
    <i name="pawaedc">   -412.24743296 </i>
    <i name="eentropy">     -0.00005965 </i>
    <i name="bandstr">    -69.36058899 </i>
    <i name="atom">    529.06779047 </i>
    <i name="e_fr_energy">     58.86697450 </i>
    <i name="e_wo_entrp">     58.86703415 </i>
    <i name="e_0_energy">     58.86700433 </i>
   </energy>
  </scstep>
  <scstep>
   <time name="dav">    1.30    1.30</time>
   <time name="total">    1.30    1.30</time>
   <energy>
    <i name="e_fr_energy">    -13.00767724 </i>
    <i name="e_wo_entrp">    -13.00767724 </i>
    <i name="e_0_energy">    -13.00767724 </i>
   </energy>
  </scstep>
  <scstep>
   <time name="dav">    0.85    0.85</time>
   <time name="total">    0.85    0.85</time>
   <energy>
    <i name="e_fr_energy">    -14.03831701 </i>
    <i name="e_wo_entrp">    -14.03831701 </i>
    <i name="e_0_energy">    -14.03831701 </i>
   </energy>
  </scstep>
  <scstep>
   <time name="dav">    1.58    1.58</time>
   <time name="total">    1.58    1.58</time>
   <energy>
    <i name="e_fr_energy">    -14.04206467 </i>
    <i name="e_wo_entrp">    -14.04206467 </i>
    <i name="e_0_energy">    -14.04206467 </i>
   </energy>
  </scstep>
  <scstep>
   <time name="dav">    0.90    0.90</time>
   <time name="total">    0.90    0.91</time>
   <energy>
    <i name="e_fr_energy">    -14.04206805 </i>
    <i name="e_wo_entrp">    -14.04206805 </i>
    <i name="e_0_energy">    -14.04206805 </i>
   </energy>
  </scstep>
  <scstep>
   <time name="dav">    1.72    1.72</time>
   <time name="total">    1.72    1.72</time>
   <energy>
    <i name="e_fr_energy">    -14.04206811 </i>
    <i name="e_wo_entrp">    -14.04206811 </i>
    <i name="e_0_energy">    -14.04206811 </i>
   </energy>
  </scstep>
  <scstep>
   <time name="dav">    0.95    0.95</time>
   <time name="total">    0.95    0.95</time>
   <energy>
    <i name="e_fr_energy">    -14.04206811 </i>
    <i name="e_wo_entrp">    -14.04206811 </i>
    <i name="e_0_energy">    -14.04206811 </i>
   </energy>
  </scstep>
  <scstep>
   <time name="dav">    1.28    1.28</time>
   <time name="total">    1.28    1.28</time>
   <energy>
    <i name="e_fr_energy">    -14.04206811 </i>
    <i name="e_wo_entrp">    -14.04206811 </i>
    <i name="e_0_energy">    -14.04206811 </i>
   </energy>
  </scstep>
  <scstep>
   <time name="dav">    0.74    0.74</time>
   <time name="total">    0.74    0.74</time>
   <energy>
    <i name="e_fr_energy">    -14.04206811 </i>
    <i name="e_wo_entrp">    -14.04206811 </i>
    <i name="e_0_energy">    -14.04206811 </i>
   </energy>
  </scstep>
  <scstep>
   <time name="dav">    0.79    0.79</time>
   <time name="total">    0.79    0.79</time>
   <energy>
    <i name="e_fr_energy">    -14.04206811 </i>
    <i name="e_wo_entrp">    -14.04206811 </i>
    <i name="e_0_energy">    -14.04206811 </i>
   </energy>
  </scstep>
  <scstep>
   <time name="dav">    0.61    0.61</time>
   <time name="total">    0.61    0.61</time>
   <energy>
    <i name="e_fr_energy">    -14.04206811 </i>
    <i name="e_wo_entrp">    -14.04206811 </i>
    <i name="e_0_energy">    -14.04206811 </i>
   </energy>
  </scstep>
  <scstep>
   <time name="dav">    0.62    0.62</time>
   <time name="total">    0.70    0.70</time>
   <energy>
    <i name="e_fr_energy">    -14.04206811 </i>
    <i name="e_wo_entrp">    -14.04206811 </i>
    <i name="e_0_energy">    -14.04206811 </i>
   </energy>
  </scstep>
  <scstep>
   <time name="dav">    1.26    1.26</time>
   <time name="total">    1.41    1.41</time>
   <energy>
    <i name="e_fr_energy">    -13.85541979 </i>
    <i name="e_wo_entrp">    -13.85541979 </i>
    <i name="e_0_energy">    -13.85541979 </i>
   </energy>
  </scstep>
  <scstep>
   <time name="dav">    1.35    1.35</time>
   <time name="total">    1.51    1.51</time>
   <energy>
    <i name="e_fr_energy">    -13.41732917 </i>
    <i name="e_wo_entrp">    -13.41732917 </i>
    <i name="e_0_energy">    -13.41732917 </i>
   </energy>
  </scstep>
  <scstep>
   <time name="dav">    1.03    1.03</time>
   <time name="total">    1.18    1.18</time>
   <energy>
    <i name="e_fr_energy">    -13.41474829 </i>
    <i name="e_wo_entrp">    -13.41474829 </i>
    <i name="e_0_energy">    -13.41474829 </i>
   </energy>
  </scstep>
  <scstep>
   <time name="dav">    1.21    1.21</time>
   <time name="total">    1.36    1.36</time>
   <energy>
    <i name="e_fr_energy">    -13.41751738 </i>
    <i name="e_wo_entrp">    -13.41751738 </i>
    <i name="e_0_energy">    -13.41751738 </i>
   </energy>
  </scstep>
  <scstep>
   <time name="dav">    0.88    0.88</time>
   <time name="total">    1.03    1.03</time>
   <energy>
    <i name="e_fr_energy">    -13.41740501 </i>
    <i name="e_wo_entrp">    -13.41740501 </i>
    <i name="e_0_energy">    -13.41740501 </i>
   </energy>
  </scstep>
  <scstep>
   <time name="dav">    1.39    1.40</time>
   <time name="total">    1.55    1.55</time>
   <energy>
    <i name="e_fr_energy">    -13.41742549 </i>
    <i name="e_wo_entrp">    -13.41742549 </i>
    <i name="e_0_energy">    -13.41742549 </i>
   </energy>
  </scstep>
  <scstep>
   <time name="dav">    0.82    0.82</time>
   <time name="total">    0.90    0.90</time>
   <energy>
    <i name="alphaZ">      5.96913924 </i>
    <i name="ewald">   1610.66856881 </i>
    <i name="hartreedc">  -2051.49784202 </i>
    <i name="XCdc">     40.83752530 </i>
    <i name="pawpsdc">    530.70818308 </i>
    <i name="pawaedc">   -533.12106345 </i>
    <i name="eentropy">     -0.00000000 </i>
    <i name="bandstr">   -146.04972683 </i>
    <i name="atom">    529.06779047 </i>
    <i name="e_fr_energy">    -13.41742541 </i>
    <i name="e_wo_entrp">    -13.41742541 </i>
    <i name="e_0_energy">    -13.41742541 </i>
   </energy>
  </scstep>
  <structure>
   <crystal>
    <varray name="basis" >
     <v>       2.29449859       0.00000000       0.00000000 </v>
     <v>      -1.14724930       1.98709407       0.00000000 </v>
     <v>       0.00000000       0.00000000      16.00000000 </v>
    </varray>
    <i name="volume">     72.95015287 </i>
    <varray name="rec_basis" >
     <v>       0.43582507       0.25162372       0.00000000 </v>
     <v>       0.00000000       0.50324744       0.00000000 </v>
     <v>       0.00000000       0.00000000       0.06250000 </v>
    </varray>
   </crystal>
   <varray name="positions" >
    <v>       0.66776151       0.33681302       0.47822185 </v>
    <v>       0.33223849       0.66318698       0.52177815 </v>
   </varray>
  </structure>
  <varray name="forces" >
   <v>       0.07416191      -0.33969639      -0.03102948 </v>
   <v>      -0.07416191       0.33969639       0.03102948 </v>
  </varray>
  <varray name="stress" >
   <v>      -7.81278658       0.37868921      -1.13551176 </v>
   <v>       0.37868922      -3.92081423       5.19532339 </v>
   <v>      -1.13552507       5.19538285      -6.01179990 </v>
  </varray>
  <energy>
   <i name="e_fr_energy">    -13.41742541 </i>
   <i name="e_wo_entrp">    -13.41742541 </i>
   <i name="e_0_energy">    -13.41742541 </i>
  </energy>
  <scstep>
   <time name="total">    1.15    1.15</time>
   <energy>
    <i name="e_fr_energy">    -34.41085595 </i>
    <i name="e_wo_entrp">    -34.41085595 </i>
    <i name="e_0_energy">    -34.41085595 </i>
   </energy>
  </scstep>
  <scstep>
   <time name="total">    1.09    1.20</time>
   <energy>
    <i name="e_fr_energy">    -36.11032868 </i>
    <i name="e_wo_entrp">    -36.11032868 </i>
    <i name="e_0_energy">    -36.11032868 </i>
   </energy>
  </scstep>
  <scstep>
   <time name="total">    1.16    1.24</time>
   <energy>
    <i name="e_fr_energy">    -36.18733039 </i>
    <i name="e_wo_entrp">    -36.18733039 </i>
    <i name="e_0_energy">    -36.18733039 </i>
   </energy>
  </scstep>
  <scstep>
   <time name="total">    1.01    1.09</time>
   <energy>
    <i name="e_fr_energy">    -36.18915087 </i>
    <i name="e_wo_entrp">    -36.18915087 </i>
    <i name="e_0_energy">    -36.18915087 </i>
   </energy>
  </scstep>
  <scstep>
   <time name="total">    1.01    1.09</time>
   <energy>
    <i name="e_fr_energy">    -36.18918761 </i>
    <i name="e_wo_entrp">    -36.18918761 </i>
    <i name="e_0_energy">    -36.18918761 </i>
   </energy>
  </scstep>
  <scstep>
   <time name="total">    1.01    1.11</time>
   <energy>
    <i name="e_fr_energy">    -36.18918849 </i>
    <i name="e_wo_entrp">    -36.18918849 </i>
    <i name="e_0_energy">    -36.18918849 </i>
   </energy>
  </scstep>
  <scstep>
   <time name="total">    1.17    1.17</time>
   <energy>
    <i name="e_fr_energy">    -33.77412993 </i>
    <i name="e_wo_entrp">    -33.77412993 </i>
    <i name="e_0_energy">    -33.77412993 </i>
   </energy>
  </scstep>
  <scstep>
   <time name="total">    1.13    1.23</time>
   <energy>
    <i name="e_fr_energy">    -36.12521319 </i>
    <i name="e_wo_entrp">    -36.12521319 </i>
    <i name="e_0_energy">    -36.12521319 </i>
   </energy>
  </scstep>
  <scstep>
   <time name="total">    1.18    1.28</time>
   <energy>
    <i name="e_fr_energy">    -36.20518146 </i>
    <i name="e_wo_entrp">    -36.20518146 </i>
    <i name="e_0_energy">    -36.20518146 </i>
   </energy>
  </scstep>
  <scstep>
   <time name="total">    1.02    1.11</time>
   <energy>
    <i name="e_fr_energy">    -36.20785700 </i>
    <i name="e_wo_entrp">    -36.20785700 </i>
    <i name="e_0_energy">    -36.20785700 </i>
   </energy>
  </scstep>
  <scstep>
   <time name="total">    1.02    1.11</time>
   <energy>
    <i name="e_fr_energy">    -36.20791005 </i>
    <i name="e_wo_entrp">    -36.20791005 </i>
    <i name="e_0_energy">    -36.20791005 </i>
   </energy>
  </scstep>
  <scstep>
   <time name="total">    1.02    1.10</time>
   <energy>
    <i name="e_fr_energy">    -36.20791164 </i>
    <i name="e_wo_entrp">    -36.20791164 </i>
    <i name="e_0_energy">    -36.20791164 </i>
   </energy>
  </scstep>
  <scstep>
   <time name="total">    1.02    1.11</time>
   <energy>
    <i name="e_fr_energy">    -36.20791169 </i>
    <i name="e_wo_entrp">    -36.20791169 </i>
    <i name="e_0_energy">    -36.20791169 </i>
   </energy>
  </scstep>
  <scstep>
   <time name="total">    1.13    1.13</time>
   <energy>
    <i name="e_fr_energy">    -33.93385503 </i>
    <i name="e_wo_entrp">    -33.93385503 </i>
    <i name="e_0_energy">    -33.93385503 </i>
   </energy>
  </scstep>
  <scstep>
   <time name="total">    1.18    1.27</time>
   <energy>
    <i name="e_fr_energy">    -37.60535577 </i>
    <i name="e_wo_entrp">    -37.60535577 </i>
    <i name="e_0_energy">    -37.60535577 </i>
   </energy>
  </scstep>
  <scstep>
   <time name="total">    1.18    1.28</time>
   <energy>
    <i name="e_fr_energy">    -37.68253228 </i>
    <i name="e_wo_entrp">    -37.68253228 </i>
    <i name="e_0_energy">    -37.68253228 </i>
   </energy>
  </scstep>
  <scstep>
   <time name="total">    1.03    1.16</time>
   <energy>
    <i name="e_fr_energy">    -37.68398746 </i>
    <i name="e_wo_entrp">    -37.68398746 </i>
    <i name="e_0_energy">    -37.68398746 </i>
   </energy>
  </scstep>
  <scstep>
   <time name="total">    1.03    1.14</time>
   <energy>
    <i name="e_fr_energy">    -37.68402205 </i>
    <i name="e_wo_entrp">    -37.68402205 </i>
    <i name="e_0_energy">    -37.68402205 </i>
   </energy>
  </scstep>
  <scstep>
   <time name="total">    1.03    1.14</time>
   <energy>
    <i name="e_fr_energy">    -37.68402332 </i>
    <i name="e_wo_entrp">    -37.68402332 </i>
    <i name="e_0_energy">    -37.68402332 </i>
   </energy>
  </scstep>
  <scstep>
   <time name="total">    1.03    1.16</time>
   <energy>
    <i name="e_fr_energy">    -37.68402336 </i>
    <i name="e_wo_entrp">    -37.68402336 </i>
    <i name="e_0_energy">    -37.68402336 </i>
   </energy>
  </scstep>
  <scstep>
   <time name="total">    1.43    1.43</time>
   <energy>
    <i name="e_fr_energy">     -0.20419449 </i>
    <i name="e_wo_entrp">     -0.20419449 </i>
    <i name="e_0_energy">     -0.20419449 </i>
   </energy>
  </scstep>
  <scstep>
   <time name="total">    1.35    1.35</time>
   <energy>
    <i name="e_fr_energy">     -0.21303063 </i>
    <i name="e_wo_entrp">     -0.21303063 </i>
    <i name="e_0_energy">     -0.21303063 </i>
   </energy>
  </scstep>
  <scstep>
   <time name="total">    1.35    1.35</time>
   <energy>
    <i name="e_fr_energy">     -0.21323907 </i>
    <i name="e_wo_entrp">     -0.21323907 </i>
    <i name="e_0_energy">     -0.21323907 </i>
   </energy>
  </scstep>
  <scstep>
   <time name="total">    1.36    1.37</time>
   <energy>
    <i name="e_fr_energy">     -0.21324401 </i>
    <i name="e_wo_entrp">     -0.21324401 </i>
    <i name="e_0_energy">     -0.21324401 </i>
   </energy>
  </scstep>
  <scstep>
   <time name="total">    1.38    1.38</time>
   <energy>
    <i name="e_fr_energy">     -0.21324408 </i>
    <i name="e_wo_entrp">     -0.21324408 </i>
    <i name="e_0_energy">     -0.21324408 </i>
   </energy>
  </scstep>
  <scstep>
   <time name="total">    1.38    1.38</time>
   <energy>
    <i name="e_fr_energy">     -0.21324408 </i>
    <i name="e_wo_entrp">     -0.21324408 </i>
    <i name="e_0_energy">     -0.21324408 </i>
   </energy>
  </scstep>
  <scstep>
   <time name="total">    1.43    1.43</time>
   <energy>
    <i name="e_fr_energy">     -0.21010463 </i>
    <i name="e_wo_entrp">     -0.21010463 </i>
    <i name="e_0_energy">     -0.21010463 </i>
   </energy>
  </scstep>
  <scstep>
   <time name="total">    1.36    1.36</time>
   <energy>
    <i name="e_fr_energy">     -0.21937712 </i>
    <i name="e_wo_entrp">     -0.21937712 </i>
    <i name="e_0_energy">     -0.21937712 </i>
   </energy>
  </scstep>
  <scstep>
   <time name="total">    1.37    1.38</time>
   <energy>
    <i name="e_fr_energy">     -0.21965159 </i>
    <i name="e_wo_entrp">     -0.21965159 </i>
    <i name="e_0_energy">     -0.21965159 </i>
   </energy>
  </scstep>
  <scstep>
   <time name="total">    1.38    1.38</time>
   <energy>
    <i name="e_fr_energy">     -0.21965761 </i>
    <i name="e_wo_entrp">     -0.21965761 </i>
    <i name="e_0_energy">     -0.21965761 </i>
   </energy>
  </scstep>
  <scstep>
   <time name="total">    1.38    1.38</time>
   <energy>
    <i name="e_fr_energy">     -0.21965769 </i>
    <i name="e_wo_entrp">     -0.21965769 </i>
    <i name="e_0_energy">     -0.21965769 </i>
   </energy>
  </scstep>
  <scstep>
   <time name="total">    1.39    1.39</time>
   <energy>
    <i name="e_fr_energy">     -0.21965770 </i>
    <i name="e_wo_entrp">     -0.21965770 </i>
    <i name="e_0_energy">     -0.21965770 </i>
   </energy>
  </scstep>
  <scstep>
   <time name="total">    1.43    1.43</time>
   <energy>
    <i name="e_fr_energy">     -0.08888517 </i>
    <i name="e_wo_entrp">     -0.08888517 </i>
    <i name="e_0_energy">     -0.08888517 </i>
   </energy>
  </scstep>
  <scstep>
   <time name="total">    1.38    1.38</time>
   <energy>
    <i name="e_fr_energy">     -0.09541308 </i>
    <i name="e_wo_entrp">     -0.09541308 </i>
    <i name="e_0_energy">     -0.09541308 </i>
   </energy>
  </scstep>
  <scstep>
   <time name="total">    1.39    1.39</time>
   <energy>
    <i name="e_fr_energy">     -0.09555816 </i>
    <i name="e_wo_entrp">     -0.09555816 </i>
    <i name="e_0_energy">     -0.09555816 </i>
   </energy>
  </scstep>
  <scstep>
   <time name="total">    1.40    1.40</time>
   <energy>
    <i name="e_fr_energy">     -0.09556356 </i>
    <i name="e_wo_entrp">     -0.09556356 </i>
    <i name="e_0_energy">     -0.09556356 </i>
   </energy>
  </scstep>
  <scstep>
   <time name="total">    1.40    1.46</time>
   <energy>
    <i name="e_fr_energy">     -0.09556366 </i>
    <i name="e_wo_entrp">     -0.09556366 </i>
    <i name="e_0_energy">     -0.09556366 </i>
   </energy>
  </scstep>
  <scstep>
   <time name="total">    1.40    1.40</time>
   <energy>
    <i name="e_fr_energy">     -0.09556367 </i>
    <i name="e_wo_entrp">     -0.09556367 </i>
    <i name="e_0_energy">     -0.09556367 </i>
   </energy>
  </scstep>
  <varray name="dielectric_ipa" >
   <v>       2.05790692       0.00295081       0.00260013 </v>
   <v>       0.00295081       2.08972494      -0.01237791 </v>
   <v>       0.00260011      -0.01237798       1.47409372 </v>
  </varray>
  <kpoints>
   <generation param="Gamma">
    <v type="int" name="divisions">      20       20        1 </v>
    <v name="usershift">      0.00000000       0.00000000       0.00000000 </v>
    <v name="genvec1">      0.05000000       0.00000000       0.00000000 </v>
    <v name="genvec2">      0.00000000       0.05000000       0.00000000 </v>
    <v name="genvec3">      0.00000000       0.00000000       1.00000000 </v>
    <v name="shift">      0.00000000       0.00000000       0.00000000 </v>
   </generation>
   <varray name="kpointlist" >
    <v>       0.00000000       0.00000000       0.00000000 </v>
    <v>       0.05000000       0.00000000       0.00000000 </v>
    <v>       0.00000000       0.05000000       0.00000000 </v>
    <v>      -0.05000000       0.05000000       0.00000000 </v>
    <v>       0.10000000       0.00000000       0.00000000 </v>
    <v>       0.00000000       0.10000000       0.00000000 </v>
    <v>      -0.10000000       0.10000000       0.00000000 </v>
    <v>       0.15000000       0.00000000       0.00000000 </v>
    <v>       0.00000000       0.15000000       0.00000000 </v>
    <v>      -0.15000000       0.15000000       0.00000000 </v>
    <v>       0.20000000       0.00000000       0.00000000 </v>
    <v>       0.00000000       0.20000000       0.00000000 </v>
    <v>      -0.20000000       0.20000000       0.00000000 </v>
    <v>       0.25000000       0.00000000       0.00000000 </v>
    <v>       0.00000000       0.25000000       0.00000000 </v>
    <v>      -0.25000000       0.25000000       0.00000000 </v>
    <v>       0.30000000       0.00000000       0.00000000 </v>
    <v>       0.00000000       0.30000000       0.00000000 </v>
    <v>      -0.30000000       0.30000000       0.00000000 </v>
    <v>       0.35000000      -0.00000000       0.00000000 </v>
    <v>       0.00000000       0.35000000       0.00000000 </v>
    <v>      -0.35000000       0.35000000       0.00000000 </v>
    <v>       0.40000000       0.00000000       0.00000000 </v>
    <v>       0.00000000       0.40000000       0.00000000 </v>
    <v>      -0.40000000       0.40000000       0.00000000 </v>
    <v>       0.45000000       0.00000000       0.00000000 </v>
    <v>       0.00000000       0.45000000       0.00000000 </v>
    <v>      -0.45000000       0.45000000       0.00000000 </v>
    <v>       0.50000000       0.00000000       0.00000000 </v>
    <v>       0.00000000       0.50000000       0.00000000 </v>
    <v>       0.50000000       0.50000000       0.00000000 </v>
    <v>       0.05000000       0.05000000       0.00000000 </v>
    <v>      -0.05000000       0.10000000       0.00000000 </v>
    <v>      -0.10000000       0.05000000       0.00000000 </v>
    <v>       0.10000000       0.05000000       0.00000000 </v>
    <v>      -0.05000000       0.15000000       0.00000000 </v>
    <v>      -0.15000000       0.10000000       0.00000000 </v>
    <v>      -0.10000000       0.15000000       0.00000000 </v>
    <v>       0.05000000       0.10000000       0.00000000 </v>
    <v>       0.15000000      -0.05000000       0.00000000 </v>
    <v>       0.15000000       0.05000000       0.00000000 </v>
    <v>      -0.05000000       0.20000000       0.00000000 </v>
    <v>      -0.20000000       0.15000000       0.00000000 </v>
    <v>      -0.15000000       0.20000000       0.00000000 </v>
    <v>       0.05000000       0.15000000       0.00000000 </v>
    <v>       0.20000000      -0.05000000       0.00000000 </v>
    <v>       0.20000000       0.05000000       0.00000000 </v>
    <v>      -0.05000000       0.25000000       0.00000000 </v>
    <v>      -0.25000000       0.20000000       0.00000000 </v>
    <v>      -0.20000000       0.25000000       0.00000000 </v>
    <v>       0.05000000       0.20000000       0.00000000 </v>
    <v>       0.25000000      -0.05000000       0.00000000 </v>
    <v>       0.25000000       0.05000000       0.00000000 </v>
    <v>      -0.05000000       0.30000000       0.00000000 </v>
    <v>      -0.30000000       0.25000000       0.00000000 </v>
    <v>      -0.25000000       0.30000000       0.00000000 </v>
    <v>       0.05000000       0.25000000       0.00000000 </v>
    <v>       0.30000000      -0.05000000       0.00000000 </v>
    <v>       0.30000000       0.05000000       0.00000000 </v>
    <v>      -0.05000000       0.35000000       0.00000000 </v>
    <v>      -0.35000000       0.30000000       0.00000000 </v>
    <v>      -0.30000000       0.35000000       0.00000000 </v>
    <v>       0.05000000       0.30000000       0.00000000 </v>
    <v>       0.35000000      -0.05000000       0.00000000 </v>
    <v>       0.35000000       0.05000000       0.00000000 </v>
    <v>      -0.05000000       0.40000000       0.00000000 </v>
    <v>      -0.40000000       0.35000000       0.00000000 </v>
    <v>      -0.35000000       0.40000000       0.00000000 </v>
    <v>       0.05000000       0.35000000       0.00000000 </v>
    <v>       0.40000000      -0.05000000       0.00000000 </v>
    <v>       0.40000000       0.05000000       0.00000000 </v>
    <v>      -0.05000000       0.45000000       0.00000000 </v>
    <v>      -0.45000000       0.40000000       0.00000000 </v>
    <v>      -0.40000000       0.45000000       0.00000000 </v>
    <v>       0.05000000       0.40000000       0.00000000 </v>
    <v>       0.45000000      -0.05000000       0.00000000 </v>
    <v>       0.45000000       0.05000000       0.00000000 </v>
    <v>      -0.05000000       0.50000000       0.00000000 </v>
    <v>       0.50000000       0.45000000       0.00000000 </v>
    <v>      -0.45000000       0.50000000       0.00000000 </v>
    <v>       0.05000000       0.45000000       0.00000000 </v>
    <v>       0.50000000      -0.05000000       0.00000000 </v>
    <v>       0.10000000       0.10000000       0.00000000 </v>
    <v>      -0.10000000       0.20000000       0.00000000 </v>
    <v>      -0.20000000       0.10000000       0.00000000 </v>
    <v>       0.15000000       0.10000000       0.00000000 </v>
    <v>      -0.10000000       0.25000000       0.00000000 </v>
    <v>      -0.25000000       0.15000000       0.00000000 </v>
    <v>      -0.15000000       0.25000000       0.00000000 </v>
    <v>       0.10000000       0.15000000       0.00000000 </v>
    <v>       0.25000000      -0.10000000       0.00000000 </v>
    <v>       0.20000000       0.10000000       0.00000000 </v>
    <v>      -0.10000000       0.30000000       0.00000000 </v>
    <v>      -0.30000000       0.20000000       0.00000000 </v>
    <v>      -0.20000000       0.30000000       0.00000000 </v>
    <v>       0.10000000       0.20000000       0.00000000 </v>
    <v>       0.30000000      -0.10000000       0.00000000 </v>
    <v>       0.25000000       0.10000000       0.00000000 </v>
    <v>      -0.10000000       0.35000000       0.00000000 </v>
    <v>      -0.35000000       0.25000000       0.00000000 </v>
    <v>      -0.25000000       0.35000000       0.00000000 </v>
    <v>       0.10000000       0.25000000       0.00000000 </v>
    <v>       0.35000000      -0.10000000       0.00000000 </v>
    <v>       0.30000000       0.10000000       0.00000000 </v>
    <v>      -0.10000000       0.40000000       0.00000000 </v>
    <v>      -0.40000000       0.30000000       0.00000000 </v>
    <v>      -0.30000000       0.40000000       0.00000000 </v>
    <v>       0.10000000       0.30000000       0.00000000 </v>
    <v>       0.40000000      -0.10000000       0.00000000 </v>
    <v>       0.35000000       0.10000000       0.00000000 </v>
    <v>      -0.10000000       0.45000000       0.00000000 </v>
    <v>      -0.45000000       0.35000000       0.00000000 </v>
    <v>      -0.35000000       0.45000000       0.00000000 </v>
    <v>       0.10000000       0.35000000       0.00000000 </v>
    <v>       0.45000000      -0.10000000       0.00000000 </v>
    <v>       0.40000000       0.10000000       0.00000000 </v>
    <v>      -0.10000000       0.50000000       0.00000000 </v>
    <v>       0.50000000       0.40000000       0.00000000 </v>
    <v>      -0.40000000       0.50000000       0.00000000 </v>
    <v>       0.10000000       0.40000000       0.00000000 </v>
    <v>       0.50000000      -0.10000000       0.00000000 </v>
    <v>       0.45000000       0.10000000       0.00000000 </v>
    <v>      -0.10000000      -0.45000000       0.00000000 </v>
    <v>       0.45000000       0.45000000       0.00000000 </v>
    <v>       0.15000000       0.15000000       0.00000000 </v>
    <v>      -0.15000000       0.30000000       0.00000000 </v>
    <v>      -0.30000000       0.15000000       0.00000000 </v>
    <v>       0.20000000       0.15000000       0.00000000 </v>
    <v>      -0.15000000       0.35000000       0.00000000 </v>
    <v>      -0.35000000       0.20000000       0.00000000 </v>
    <v>      -0.20000000       0.35000000       0.00000000 </v>
    <v>       0.15000000       0.20000000       0.00000000 </v>
    <v>       0.35000000      -0.15000000       0.00000000 </v>
    <v>       0.25000000       0.15000000       0.00000000 </v>
    <v>      -0.15000000       0.40000000       0.00000000 </v>
    <v>      -0.40000000       0.25000000       0.00000000 </v>
    <v>      -0.25000000       0.40000000       0.00000000 </v>
    <v>       0.15000000       0.25000000       0.00000000 </v>
    <v>       0.40000000      -0.15000000       0.00000000 </v>
    <v>       0.30000000       0.15000000       0.00000000 </v>
    <v>      -0.15000000       0.45000000       0.00000000 </v>
    <v>      -0.45000000       0.30000000       0.00000000 </v>
    <v>      -0.30000000       0.45000000       0.00000000 </v>
    <v>       0.15000000       0.30000000       0.00000000 </v>
    <v>       0.45000000      -0.15000000       0.00000000 </v>
    <v>       0.35000000       0.15000000       0.00000000 </v>
    <v>      -0.15000000       0.50000000       0.00000000 </v>
    <v>       0.50000000       0.35000000       0.00000000 </v>
    <v>      -0.35000000       0.50000000       0.00000000 </v>
    <v>       0.15000000       0.35000000       0.00000000 </v>
    <v>       0.50000000      -0.15000000       0.00000000 </v>
    <v>       0.40000000       0.15000000       0.00000000 </v>
    <v>      -0.15000000      -0.45000000       0.00000000 </v>
    <v>       0.45000000       0.40000000       0.00000000 </v>
    <v>      -0.40000000      -0.45000000       0.00000000 </v>
    <v>       0.15000000       0.40000000       0.00000000 </v>
    <v>      -0.45000000      -0.15000000       0.00000000 </v>
    <v>       0.20000000       0.20000000       0.00000000 </v>
    <v>      -0.20000000       0.40000000       0.00000000 </v>
    <v>      -0.40000000       0.20000000       0.00000000 </v>
    <v>       0.25000000       0.20000000       0.00000000 </v>
    <v>      -0.20000000       0.45000000       0.00000000 </v>
    <v>      -0.45000000       0.25000000       0.00000000 </v>
    <v>      -0.25000000       0.45000000       0.00000000 </v>
    <v>       0.20000000       0.25000000       0.00000000 </v>
    <v>       0.45000000      -0.20000000       0.00000000 </v>
    <v>       0.30000000       0.20000000       0.00000000 </v>
    <v>      -0.20000000       0.50000000       0.00000000 </v>
    <v>       0.50000000       0.30000000       0.00000000 </v>
    <v>      -0.30000000       0.50000000       0.00000000 </v>
    <v>       0.20000000       0.30000000       0.00000000 </v>
    <v>       0.50000000      -0.20000000       0.00000000 </v>
    <v>       0.35000000       0.20000000       0.00000000 </v>
    <v>      -0.20000000      -0.45000000       0.00000000 </v>
    <v>       0.45000000       0.35000000       0.00000000 </v>
    <v>      -0.35000000      -0.45000000       0.00000000 </v>
    <v>       0.20000000       0.35000000       0.00000000 </v>
    <v>      -0.45000000      -0.20000000       0.00000000 </v>
    <v>       0.40000000       0.20000000       0.00000000 </v>
    <v>      -0.20000000      -0.40000000       0.00000000 </v>
    <v>       0.40000000       0.40000000       0.00000000 </v>
    <v>       0.25000000       0.25000000       0.00000000 </v>
    <v>      -0.25000000       0.50000000       0.00000000 </v>
    <v>       0.50000000       0.25000000       0.00000000 </v>
    <v>       0.30000000       0.25000000       0.00000000 </v>
    <v>      -0.25000000      -0.45000000       0.00000000 </v>
    <v>       0.45000000       0.30000000       0.00000000 </v>
    <v>      -0.30000000      -0.45000000       0.00000000 </v>
    <v>       0.25000000       0.30000000       0.00000000 </v>
    <v>      -0.45000000      -0.25000000       0.00000000 </v>
    <v>       0.35000000       0.25000000       0.00000000 </v>
    <v>      -0.25000000      -0.40000000       0.00000000 </v>
    <v>       0.40000000       0.35000000       0.00000000 </v>
    <v>      -0.35000000      -0.40000000       0.00000000 </v>
    <v>       0.25000000       0.35000000       0.00000000 </v>
    <v>      -0.40000000      -0.25000000       0.00000000 </v>
    <v>       0.30000000       0.30000000       0.00000000 </v>
    <v>      -0.30000000      -0.40000000       0.00000000 </v>
    <v>       0.40000000       0.30000000       0.00000000 </v>
    <v>       0.35000000       0.30000000       0.00000000 </v>
    <v>      -0.30000000      -0.35000000       0.00000000 </v>
    <v>       0.35000000       0.35000000       0.00000000 </v>
   </varray>
   <varray name="weights" >
    <v>       0.00250000 </v>
    <v>       0.00500000 </v>
    <v>       0.00500000 </v>
    <v>       0.00500000 </v>
    <v>       0.00500000 </v>
    <v>       0.00500000 </v>
    <v>       0.00500000 </v>
    <v>       0.00500000 </v>
    <v>       0.00500000 </v>
    <v>       0.00500000 </v>
    <v>       0.00500000 </v>
    <v>       0.00500000 </v>
    <v>       0.00500000 </v>
    <v>       0.00500000 </v>
    <v>       0.00500000 </v>
    <v>       0.00500000 </v>
    <v>       0.00500000 </v>
    <v>       0.00500000 </v>
    <v>       0.00500000 </v>
    <v>       0.00500000 </v>
    <v>       0.00500000 </v>
    <v>       0.00500000 </v>
    <v>       0.00500000 </v>
    <v>       0.00500000 </v>
    <v>       0.00500000 </v>
    <v>       0.00500000 </v>
    <v>       0.00500000 </v>
    <v>       0.00500000 </v>
    <v>       0.00250000 </v>
    <v>       0.00250000 </v>
    <v>       0.00250000 </v>
    <v>       0.00500000 </v>
    <v>       0.00500000 </v>
    <v>       0.00500000 </v>
    <v>       0.00500000 </v>
    <v>       0.00500000 </v>
    <v>       0.00500000 </v>
    <v>       0.00500000 </v>
    <v>       0.00500000 </v>
    <v>       0.00500000 </v>
    <v>       0.00500000 </v>
    <v>       0.00500000 </v>
    <v>       0.00500000 </v>
    <v>       0.00500000 </v>
    <v>       0.00500000 </v>
    <v>       0.00500000 </v>
    <v>       0.00500000 </v>
    <v>       0.00500000 </v>
    <v>       0.00500000 </v>
    <v>       0.00500000 </v>
    <v>       0.00500000 </v>
    <v>       0.00500000 </v>
    <v>       0.00500000 </v>
    <v>       0.00500000 </v>
    <v>       0.00500000 </v>
    <v>       0.00500000 </v>
    <v>       0.00500000 </v>
    <v>       0.00500000 </v>
    <v>       0.00500000 </v>
    <v>       0.00500000 </v>
    <v>       0.00500000 </v>
    <v>       0.00500000 </v>
    <v>       0.00500000 </v>
    <v>       0.00500000 </v>
    <v>       0.00500000 </v>
    <v>       0.00500000 </v>
    <v>       0.00500000 </v>
    <v>       0.00500000 </v>
    <v>       0.00500000 </v>
    <v>       0.00500000 </v>
    <v>       0.00500000 </v>
    <v>       0.00500000 </v>
    <v>       0.00500000 </v>
    <v>       0.00500000 </v>
    <v>       0.00500000 </v>
    <v>       0.00500000 </v>
    <v>       0.00500000 </v>
    <v>       0.00500000 </v>
    <v>       0.00500000 </v>
    <v>       0.00500000 </v>
    <v>       0.00500000 </v>
    <v>       0.00500000 </v>
    <v>       0.00500000 </v>
    <v>       0.00500000 </v>
    <v>       0.00500000 </v>
    <v>       0.00500000 </v>
    <v>       0.00500000 </v>
    <v>       0.00500000 </v>
    <v>       0.00500000 </v>
    <v>       0.00500000 </v>
    <v>       0.00500000 </v>
    <v>       0.00500000 </v>
    <v>       0.00500000 </v>
    <v>       0.00500000 </v>
    <v>       0.00500000 </v>
    <v>       0.00500000 </v>
    <v>       0.00500000 </v>
    <v>       0.00500000 </v>
    <v>       0.00500000 </v>
    <v>       0.00500000 </v>
    <v>       0.00500000 </v>
    <v>       0.00500000 </v>
    <v>       0.00500000 </v>
    <v>       0.00500000 </v>
    <v>       0.00500000 </v>
    <v>       0.00500000 </v>
    <v>       0.00500000 </v>
    <v>       0.00500000 </v>
    <v>       0.00500000 </v>
    <v>       0.00500000 </v>
    <v>       0.00500000 </v>
    <v>       0.00500000 </v>
    <v>       0.00500000 </v>
    <v>       0.00500000 </v>
    <v>       0.00500000 </v>
    <v>       0.00500000 </v>
    <v>       0.00500000 </v>
    <v>       0.00500000 </v>
    <v>       0.00500000 </v>
    <v>       0.00500000 </v>
    <v>       0.00500000 </v>
    <v>       0.00500000 </v>
    <v>       0.00500000 </v>
    <v>       0.00500000 </v>
    <v>       0.00500000 </v>
    <v>       0.00500000 </v>
    <v>       0.00500000 </v>
    <v>       0.00500000 </v>
    <v>       0.00500000 </v>
    <v>       0.00500000 </v>
    <v>       0.00500000 </v>
    <v>       0.00500000 </v>
    <v>       0.00500000 </v>
    <v>       0.00500000 </v>
    <v>       0.00500000 </v>
    <v>       0.00500000 </v>
    <v>       0.00500000 </v>
    <v>       0.00500000 </v>
    <v>       0.00500000 </v>
    <v>       0.00500000 </v>
    <v>       0.00500000 </v>
    <v>       0.00500000 </v>
    <v>       0.00500000 </v>
    <v>       0.00500000 </v>
    <v>       0.00500000 </v>
    <v>       0.00500000 </v>
    <v>       0.00500000 </v>
    <v>       0.00500000 </v>
    <v>       0.00500000 </v>
    <v>       0.00500000 </v>
    <v>       0.00500000 </v>
    <v>       0.00500000 </v>
    <v>       0.00500000 </v>
    <v>       0.00500000 </v>
    <v>       0.00500000 </v>
    <v>       0.00500000 </v>
    <v>       0.00500000 </v>
    <v>       0.00500000 </v>
    <v>       0.00500000 </v>
    <v>       0.00500000 </v>
    <v>       0.00500000 </v>
    <v>       0.00500000 </v>
    <v>       0.00500000 </v>
    <v>       0.00500000 </v>
    <v>       0.00500000 </v>
    <v>       0.00500000 </v>
    <v>       0.00500000 </v>
    <v>       0.00500000 </v>
    <v>       0.00500000 </v>
    <v>       0.00500000 </v>
    <v>       0.00500000 </v>
    <v>       0.00500000 </v>
    <v>       0.00500000 </v>
    <v>       0.00500000 </v>
    <v>       0.00500000 </v>
    <v>       0.00500000 </v>
    <v>       0.00500000 </v>
    <v>       0.00500000 </v>
    <v>       0.00500000 </v>
    <v>       0.00500000 </v>
    <v>       0.00500000 </v>
    <v>       0.00500000 </v>
    <v>       0.00500000 </v>
    <v>       0.00500000 </v>
    <v>       0.00500000 </v>
    <v>       0.00500000 </v>
    <v>       0.00500000 </v>
    <v>       0.00500000 </v>
    <v>       0.00500000 </v>
    <v>       0.00500000 </v>
    <v>       0.00500000 </v>
    <v>       0.00500000 </v>
    <v>       0.00500000 </v>
    <v>       0.00500000 </v>
    <v>       0.00500000 </v>
    <v>       0.00500000 </v>
    <v>       0.00500000 </v>
    <v>       0.00500000 </v>
    <v>       0.00500000 </v>
    <v>       0.00500000 </v>
    <v>       0.00500000 </v>
    <v>       0.00500000 </v>
   </varray>
  </kpoints>
  <scstep>
   <time name="total">    1.43    1.43</time>
   <energy>
    <i name="e_fr_energy">     -0.20419449 </i>
    <i name="e_wo_entrp">     -0.20419449 </i>
    <i name="e_0_energy">     -0.20419449 </i>
   </energy>
  </scstep>
  <scstep>
   <time name="total">    1.50    1.50</time>
   <energy>
    <i name="e_fr_energy">     -0.21303063 </i>
    <i name="e_wo_entrp">     -0.21303063 </i>
    <i name="e_0_energy">     -0.21303063 </i>
   </energy>
  </scstep>
  <scstep>
   <time name="total">    1.37    1.38</time>
   <energy>
    <i name="e_fr_energy">     -0.21128453 </i>
    <i name="e_wo_entrp">     -0.21128453 </i>
    <i name="e_0_energy">     -0.21128453 </i>
   </energy>
  </scstep>
  <scstep>
   <time name="total">    1.36    1.36</time>
   <energy>
    <i name="e_fr_energy">     -0.22735211 </i>
    <i name="e_wo_entrp">     -0.22735211 </i>
    <i name="e_0_energy">     -0.22735211 </i>
   </energy>
  </scstep>
  <scstep>
   <time name="total">    1.50    1.50</time>
   <energy>
    <i name="e_fr_energy">     -0.22425103 </i>
    <i name="e_wo_entrp">     -0.22425103 </i>
    <i name="e_0_energy">     -0.22425103 </i>
   </energy>
  </scstep>
  <scstep>
   <time name="total">    1.52    1.52</time>
   <energy>
    <i name="e_fr_energy">     -0.22806138 </i>
    <i name="e_wo_entrp">     -0.22806138 </i>
    <i name="e_0_energy">     -0.22806138 </i>
   </energy>
  </scstep>
  <scstep>
   <time name="total">    1.51    1.51</time>
   <energy>
    <i name="e_fr_energy">     -0.22744736 </i>
    <i name="e_wo_entrp">     -0.22744736 </i>
    <i name="e_0_energy">     -0.22744736 </i>
   </energy>
  </scstep>
  <scstep>
   <time name="total">    1.50    1.50</time>
   <energy>
    <i name="e_fr_energy">     -0.22752481 </i>
    <i name="e_wo_entrp">     -0.22752481 </i>
    <i name="e_0_energy">     -0.22752481 </i>
   </energy>
  </scstep>
  <scstep>
   <time name="total">    1.51    1.51</time>
   <energy>
    <i name="e_fr_energy">     -0.22749383 </i>
    <i name="e_wo_entrp">     -0.22749383 </i>
    <i name="e_0_energy">     -0.22749383 </i>
   </energy>
  </scstep>
  <scstep>
   <time name="total">    1.53    1.53</time>
   <energy>
    <i name="e_fr_energy">     -0.22749846 </i>
    <i name="e_wo_entrp">     -0.22749846 </i>
    <i name="e_0_energy">     -0.22749846 </i>
   </energy>
  </scstep>
  <scstep>
   <time name="total">    1.51    1.51</time>
   <energy>
    <i name="e_fr_energy">     -0.22749799 </i>
    <i name="e_wo_entrp">     -0.22749799 </i>
    <i name="e_0_energy">     -0.22749799 </i>
   </energy>
  </scstep>
  <kpoints>
   <generation param="Gamma">
    <v type="int" name="divisions">      20       20        1 </v>
    <v name="usershift">      0.00000000       0.00000000       0.00000000 </v>
    <v name="genvec1">      0.05000000       0.00000000       0.00000000 </v>
    <v name="genvec2">      0.00000000       0.05000000       0.00000000 </v>
    <v name="genvec3">      0.00000000       0.00000000       1.00000000 </v>
    <v name="shift">      0.00000000       0.00000000       0.00000000 </v>
   </generation>
   <varray name="kpointlist" >
    <v>       0.00000000       0.00000000       0.00000000 </v>
    <v>       0.05000000       0.00000000       0.00000000 </v>
    <v>       0.00000000       0.05000000       0.00000000 </v>
    <v>      -0.05000000       0.05000000       0.00000000 </v>
    <v>       0.10000000       0.00000000       0.00000000 </v>
    <v>       0.00000000       0.10000000       0.00000000 </v>
    <v>      -0.10000000       0.10000000       0.00000000 </v>
    <v>       0.15000000       0.00000000       0.00000000 </v>
    <v>       0.00000000       0.15000000       0.00000000 </v>
    <v>      -0.15000000       0.15000000       0.00000000 </v>
    <v>       0.20000000       0.00000000       0.00000000 </v>
    <v>       0.00000000       0.20000000       0.00000000 </v>
    <v>      -0.20000000       0.20000000       0.00000000 </v>
    <v>       0.25000000       0.00000000       0.00000000 </v>
    <v>       0.00000000       0.25000000       0.00000000 </v>
    <v>      -0.25000000       0.25000000       0.00000000 </v>
    <v>       0.30000000       0.00000000       0.00000000 </v>
    <v>       0.00000000       0.30000000       0.00000000 </v>
    <v>      -0.30000000       0.30000000       0.00000000 </v>
    <v>       0.35000000      -0.00000000       0.00000000 </v>
    <v>       0.00000000       0.35000000       0.00000000 </v>
    <v>      -0.35000000       0.35000000       0.00000000 </v>
    <v>       0.40000000       0.00000000       0.00000000 </v>
    <v>       0.00000000       0.40000000       0.00000000 </v>
    <v>      -0.40000000       0.40000000       0.00000000 </v>
    <v>       0.45000000       0.00000000       0.00000000 </v>
    <v>       0.00000000       0.45000000       0.00000000 </v>
    <v>      -0.45000000       0.45000000       0.00000000 </v>
    <v>       0.50000000       0.00000000       0.00000000 </v>
    <v>       0.00000000       0.50000000       0.00000000 </v>
    <v>       0.50000000       0.50000000       0.00000000 </v>
    <v>       0.05000000       0.05000000       0.00000000 </v>
    <v>      -0.05000000       0.10000000       0.00000000 </v>
    <v>      -0.10000000       0.05000000       0.00000000 </v>
    <v>       0.10000000       0.05000000       0.00000000 </v>
    <v>      -0.05000000       0.15000000       0.00000000 </v>
    <v>      -0.15000000       0.10000000       0.00000000 </v>
    <v>      -0.10000000       0.15000000       0.00000000 </v>
    <v>       0.05000000       0.10000000       0.00000000 </v>
    <v>       0.15000000      -0.05000000       0.00000000 </v>
    <v>       0.15000000       0.05000000       0.00000000 </v>
    <v>      -0.05000000       0.20000000       0.00000000 </v>
    <v>      -0.20000000       0.15000000       0.00000000 </v>
    <v>      -0.15000000       0.20000000       0.00000000 </v>
    <v>       0.05000000       0.15000000       0.00000000 </v>
    <v>       0.20000000      -0.05000000       0.00000000 </v>
    <v>       0.20000000       0.05000000       0.00000000 </v>
    <v>      -0.05000000       0.25000000       0.00000000 </v>
    <v>      -0.25000000       0.20000000       0.00000000 </v>
    <v>      -0.20000000       0.25000000       0.00000000 </v>
    <v>       0.05000000       0.20000000       0.00000000 </v>
    <v>       0.25000000      -0.05000000       0.00000000 </v>
    <v>       0.25000000       0.05000000       0.00000000 </v>
    <v>      -0.05000000       0.30000000       0.00000000 </v>
    <v>      -0.30000000       0.25000000       0.00000000 </v>
    <v>      -0.25000000       0.30000000       0.00000000 </v>
    <v>       0.05000000       0.25000000       0.00000000 </v>
    <v>       0.30000000      -0.05000000       0.00000000 </v>
    <v>       0.30000000       0.05000000       0.00000000 </v>
    <v>      -0.05000000       0.35000000       0.00000000 </v>
    <v>      -0.35000000       0.30000000       0.00000000 </v>
    <v>      -0.30000000       0.35000000       0.00000000 </v>
    <v>       0.05000000       0.30000000       0.00000000 </v>
[...]
       </set>
       <set comment="band 13">
        <r>  0.0010  0.0380  0.0000 </r>
        <r>  0.0010  0.0380  0.0000 </r>
       </set>
       <set comment="band 14">
        <r>  0.0013  0.0317  0.0000 </r>
        <r>  0.0013  0.0317  0.0000 </r>
       </set>
       <set comment="band 15">
        <r>  0.0018  0.0199  0.0000 </r>
        <r>  0.0018  0.0199  0.0000 </r>
       </set>
       <set comment="band 16">
        <r>  0.0003  0.0039  0.0000 </r>
        <r>  0.0003  0.0039  0.0000 </r>
       </set>
      </set>
      <set comment="kpoint 194">
       <set comment="band 1">
        <r>  0.2817  0.0999  0.0000 </r>
        <r>  0.2817  0.0999  0.0000 </r>
       </set>
       <set comment="band 2">
        <r>  0.2417  0.1413  0.0000 </r>
        <r>  0.2417  0.1413  0.0000 </r>
       </set>
       <set comment="band 3">
        <r>  0.0138  0.3178  0.0000 </r>
        <r>  0.0138  0.3178  0.0000 </r>
       </set>
       <set comment="band 4">
        <r>  0.0960  0.2510  0.0000 </r>
        <r>  0.0960  0.2510  0.0000 </r>
       </set>
       <set comment="band 5">
        <r>  0.0755  0.2831  0.0000 </r>
        <r>  0.0755  0.2831  0.0000 </r>
       </set>
       <set comment="band 6">
        <r>  0.0003  0.2944  0.0000 </r>
        <r>  0.0003  0.2944  0.0000 </r>
       </set>
       <set comment="band 7">
        <r>  0.0648  0.3431  0.0000 </r>
        <r>  0.0648  0.3431  0.0000 </r>
       </set>
       <set comment="band 8">
        <r>  0.0471  0.3538  0.0000 </r>
        <r>  0.0471  0.3538  0.0000 </r>
       </set>
       <set comment="band 9">
        <r>  0.0004  0.0391  0.0000 </r>
        <r>  0.0004  0.0391  0.0000 </r>
       </set>
       <set comment="band 10">
        <r>  0.0027  0.0398  0.0000 </r>
        <r>  0.0027  0.0398  0.0000 </r>
       </set>
       <set comment="band 11">
        <r>  0.0004  0.0364  0.0000 </r>
        <r>  0.0004  0.0364  0.0000 </r>
       </set>
       <set comment="band 12">
        <r>  0.0001  0.0102  0.0000 </r>
        <r>  0.0001  0.0102  0.0000 </r>
       </set>
       <set comment="band 13">
        <r>  0.0010  0.0351  0.0000 </r>
        <r>  0.0010  0.0351  0.0000 </r>
       </set>
       <set comment="band 14">
        <r>  0.0014  0.0316  0.0000 </r>
        <r>  0.0014  0.0316  0.0000 </r>
       </set>
       <set comment="band 15">
        <r>  0.0017  0.0193  0.0000 </r>
        <r>  0.0017  0.0193  0.0000 </r>
       </set>
       <set comment="band 16">
        <r>  0.0003  0.0032  0.0000 </r>
        <r>  0.0003  0.0033  0.0000 </r>
       </set>
      </set>
      <set comment="kpoint 195">
       <set comment="band 1">
        <r>  0.2859  0.0981  0.0000 </r>
        <r>  0.2859  0.0981  0.0000 </r>
       </set>
       <set comment="band 2">
        <r>  0.2384  0.1416  0.0000 </r>
        <r>  0.2384  0.1416  0.0000 </r>
       </set>
       <set comment="band 3">
        <r>  0.0127  0.3195  0.0000 </r>
        <r>  0.0127  0.3195  0.0000 </r>
       </set>
       <set comment="band 4">
        <r>  0.0970  0.2503  0.0000 </r>
        <r>  0.0970  0.2503  0.0000 </r>
       </set>
       <set comment="band 5">
        <r>  0.0746  0.2842  0.0000 </r>
        <r>  0.0746  0.2842  0.0000 </r>
       </set>
       <set comment="band 6">
        <r>  0.0002  0.2926  0.0000 </r>
        <r>  0.0002  0.2926  0.0000 </r>
       </set>
       <set comment="band 7">
        <r>  0.0672  0.3400  0.0000 </r>
        <r>  0.0672  0.3400  0.0000 </r>
       </set>
       <set comment="band 8">
        <r>  0.0455  0.3580  0.0000 </r>
        <r>  0.0455  0.3580  0.0000 </r>
       </set>
       <set comment="band 9">
        <r>  0.0004  0.0391  0.0000 </r>
        <r>  0.0004  0.0391  0.0000 </r>
       </set>
       <set comment="band 10">
        <r>  0.0026  0.0392  0.0000 </r>
        <r>  0.0026  0.0392  0.0000 </r>
       </set>
       <set comment="band 11">
        <r>  0.0003  0.0357  0.0000 </r>
        <r>  0.0003  0.0357  0.0000 </r>
       </set>
       <set comment="band 12">
        <r>  0.0001  0.0097  0.0000 </r>
        <r>  0.0001  0.0097  0.0000 </r>
       </set>
       <set comment="band 13">
        <r>  0.0009  0.0354  0.0000 </r>
        <r>  0.0009  0.0354  0.0000 </r>
       </set>
       <set comment="band 14">
        <r>  0.0013  0.0316  0.0000 </r>
        <r>  0.0013  0.0316  0.0000 </r>
       </set>
       <set comment="band 15">
        <r>  0.0020  0.0184  0.0000 </r>
        <r>  0.0020  0.0184  0.0000 </r>
       </set>
       <set comment="band 16">
        <r>  0.0003  0.0033  0.0000 </r>
        <r>  0.0003  0.0032  0.0000 </r>
       </set>
      </set>
      <set comment="kpoint 196">
       <set comment="band 1">
        <r>  0.2813  0.1000  0.0000 </r>
        <r>  0.2813  0.1000  0.0000 </r>
       </set>
       <set comment="band 2">
        <r>  0.2421  0.1413  0.0000 </r>
        <r>  0.2421  0.1413  0.0000 </r>
       </set>
       <set comment="band 3">
        <r>  0.0138  0.3177  0.0000 </r>
        <r>  0.0138  0.3177  0.0000 </r>
       </set>
       <set comment="band 4">
        <r>  0.0964  0.2508  0.0000 </r>
        <r>  0.0964  0.2508  0.0000 </r>
       </set>
       <set comment="band 5">
        <r>  0.0751  0.2834  0.0000 </r>
        <r>  0.0751  0.2834  0.0000 </r>
       </set>
       <set comment="band 6">
        <r>  0.0010  0.2949  0.0000 </r>
        <r>  0.0010  0.2949  0.0000 </r>
       </set>
       <set comment="band 7">
        <r>  0.0683  0.3437  0.0000 </r>
        <r>  0.0683  0.3437  0.0000 </r>
       </set>
       <set comment="band 8">
        <r>  0.0429  0.3512  0.0000 </r>
        <r>  0.0429  0.3512  0.0000 </r>
       </set>
       <set comment="band 9">
        <r>  0.0004  0.0413  0.0000 </r>
        <r>  0.0004  0.0413  0.0000 </r>
       </set>
       <set comment="band 10">
        <r>  0.0027  0.0392  0.0000 </r>
        <r>  0.0027  0.0392  0.0000 </r>
       </set>
       <set comment="band 11">
        <r>  0.0004  0.0328  0.0000 </r>
        <r>  0.0004  0.0328  0.0000 </r>
       </set>
       <set comment="band 12">
        <r>  0.0001  0.0112  0.0000 </r>
        <r>  0.0001  0.0112  0.0000 </r>
       </set>
       <set comment="band 13">
        <r>  0.0010  0.0382  0.0000 </r>
        <r>  0.0010  0.0382  0.0000 </r>
       </set>
       <set comment="band 14">
        <r>  0.0013  0.0317  0.0000 </r>
        <r>  0.0013  0.0317  0.0000 </r>
       </set>
       <set comment="band 15">
        <r>  0.0019  0.0197  0.0000 </r>
        <r>  0.0019  0.0197  0.0000 </r>
       </set>
       <set comment="band 16">
        <r>  0.0003  0.0039  0.0000 </r>
        <r>  0.0003  0.0039  0.0000 </r>
       </set>
      </set>
      <set comment="kpoint 197">
       <set comment="band 1">
        <r>  0.2793  0.1027  0.0000 </r>
        <r>  0.2793  0.1027  0.0000 </r>
       </set>
       <set comment="band 2">
        <r>  0.2552  0.1329  0.0000 </r>
        <r>  0.2552  0.1329  0.0000 </r>
       </set>
       <set comment="band 3">
        <r>  0.0046  0.3202  0.0000 </r>
        <r>  0.0046  0.3202  0.0000 </r>
       </set>
       <set comment="band 4">
        <r>  0.0941  0.2525  0.0000 </r>
        <r>  0.0941  0.2525  0.0000 </r>
       </set>
       <set comment="band 5">
        <r>  0.0776  0.2848  0.0000 </r>
        <r>  0.0776  0.2848  0.0000 </r>
       </set>
       <set comment="band 6">
        <r>  0.0003  0.2886  0.0000 </r>
        <r>  0.0003  0.2886  0.0000 </r>
       </set>
       <set comment="band 7">
        <r>  0.0463  0.3488  0.0000 </r>
        <r>  0.0463  0.3488  0.0000 </r>
       </set>
       <set comment="band 8">
        <r>  0.0654  0.3640  0.0000 </r>
        <r>  0.0654  0.3640  0.0000 </r>
       </set>
       <set comment="band 9">
        <r>  0.0000  0.0462  0.0000 </r>
        <r>  0.0000  0.0462  0.0000 </r>
       </set>
       <set comment="band 10">
        <r>  0.0034  0.0298  0.0000 </r>
        <r>  0.0034  0.0298  0.0000 </r>
       </set>
       <set comment="band 11">
        <r>  0.0000  0.0474  0.0000 </r>
        <r>  0.0000  0.0474  0.0000 </r>
       </set>
       <set comment="band 12">
        <r>  0.0000  0.0115  0.0000 </r>
        <r>  0.0000  0.0115  0.0000 </r>
       </set>
       <set comment="band 13">
        <r>  0.0001  0.0224  0.0000 </r>
        <r>  0.0001  0.0224  0.0000 </r>
       </set>
       <set comment="band 14">
        <r>  0.0013  0.0224  0.0000 </r>
        <r>  0.0013  0.0224  0.0000 </r>
       </set>
       <set comment="band 15">
        <r>  0.0003  0.0187  0.0000 </r>
        <r>  0.0003  0.0187  0.0000 </r>
       </set>
       <set comment="band 16">
        <r>  0.0005  0.0377  0.0000 </r>
        <r>  0.0005  0.0377  0.0000 </r>
       </set>
      </set>
      <set comment="kpoint 198">
       <set comment="band 1">
        <r>  0.2784  0.1031  0.0000 </r>
        <r>  0.2784  0.1031  0.0000 </r>
       </set>
       <set comment="band 2">
        <r>  0.2558  0.1328  0.0000 </r>
        <r>  0.2558  0.1328  0.0000 </r>
       </set>
       <set comment="band 3">
        <r>  0.0049  0.3199  0.0000 </r>
        <r>  0.0049  0.3199  0.0000 </r>
       </set>
       <set comment="band 4">
        <r>  0.0941  0.2525  0.0000 </r>
        <r>  0.0941  0.2525  0.0000 </r>
       </set>
       <set comment="band 5">
        <r>  0.0776  0.2848  0.0000 </r>
        <r>  0.0776  0.2848  0.0000 </r>
       </set>
       <set comment="band 6">
        <r>  0.0004  0.2889  0.0000 </r>
        <r>  0.0004  0.2889  0.0000 </r>
       </set>
       <set comment="band 7">
        <r>  0.0476  0.3496  0.0000 </r>
        <r>  0.0476  0.3496  0.0000 </r>
       </set>
       <set comment="band 8">
        <r>  0.0638  0.3624  0.0000 </r>
        <r>  0.0638  0.3624  0.0000 </r>
       </set>
       <set comment="band 9">
        <r>  0.0000  0.0469  0.0000 </r>
        <r>  0.0000  0.0469  0.0000 </r>
       </set>
       <set comment="band 10">
        <r>  0.0034  0.0298  0.0000 </r>
        <r>  0.0034  0.0298  0.0000 </r>
       </set>
       <set comment="band 11">
        <r>  0.0000  0.0475  0.0000 </r>
        <r>  0.0000  0.0475  0.0000 </r>
       </set>
       <set comment="band 12">
        <r>  0.0000  0.0116  0.0000 </r>
        <r>  0.0000  0.0116  0.0000 </r>
       </set>
       <set comment="band 13">
        <r>  0.0001  0.0224  0.0000 </r>
        <r>  0.0001  0.0224  0.0000 </r>
       </set>
       <set comment="band 14">
        <r>  0.0014  0.0223  0.0000 </r>
        <r>  0.0014  0.0223  0.0000 </r>
       </set>
       <set comment="band 15">
        <r>  0.0003  0.0189  0.0000 </r>
        <r>  0.0003  0.0189  0.0000 </r>
       </set>
       <set comment="band 16">
        <r>  0.0005  0.0378  0.0000 </r>
        <r>  0.0005  0.0378  0.0000 </r>
       </set>
      </set>
      <set comment="kpoint 199">
       <set comment="band 1">
        <r>  0.2747  0.1047  0.0000 </r>
        <r>  0.2747  0.1047  0.0000 </r>
       </set>
       <set comment="band 2">
        <r>  0.2585  0.1326  0.0000 </r>
        <r>  0.2585  0.1326  0.0000 </r>
       </set>
       <set comment="band 3">
        <r>  0.0061  0.3185  0.0000 </r>
        <r>  0.0061  0.3185  0.0000 </r>
       </set>
       <set comment="band 4">
        <r>  0.0939  0.2526  0.0000 </r>
        <r>  0.0939  0.2526  0.0000 </r>
       </set>
       <set comment="band 5">
        <r>  0.0778  0.2844  0.0000 </r>
        <r>  0.0778  0.2844  0.0000 </r>
       </set>
       <set comment="band 6">
        <r>  0.0010  0.2904  0.0000 </r>
        <r>  0.0010  0.2904  0.0000 </r>
       </set>
       <set comment="band 7">
        <r>  0.0614  0.3653  0.0000 </r>
        <r>  0.0614  0.3653  0.0000 </r>
       </set>
       <set comment="band 8">
        <r>  0.0490  0.3439  0.0000 </r>
        <r>  0.0490  0.3439  0.0000 </r>
       </set>
       <set comment="band 9">
        <r>  0.0000  0.0494  0.0000 </r>
        <r>  0.0000  0.0494  0.0000 </r>
       </set>
       <set comment="band 10">
        <r>  0.0035  0.0296  0.0000 </r>
        <r>  0.0035  0.0296  0.0000 </r>
       </set>
       <set comment="band 11">
        <r>  0.0000  0.0111  0.0000 </r>
        <r>  0.0000  0.0111  0.0000 </r>
       </set>
       <set comment="band 12">
        <r>  0.0000  0.0490  0.0000 </r>
        <r>  0.0000  0.0490  0.0000 </r>
       </set>
       <set comment="band 13">
        <r>  0.0000  0.0224  0.0000 </r>
        <r>  0.0000  0.0224  0.0000 </r>
       </set>
       <set comment="band 14">
        <r>  0.0015  0.0222  0.0000 </r>
        <r>  0.0015  0.0222  0.0000 </r>
       </set>
       <set comment="band 15">
        <r>  0.0004  0.0196  0.0000 </r>
        <r>  0.0004  0.0196  0.0000 </r>
       </set>
       <set comment="band 16">
        <r>  0.0004  0.0380  0.0000 </r>
        <r>  0.0004  0.0380  0.0000 </r>
       </set>
      </set>
      <set comment="kpoint 200">
       <set comment="band 1">
        <r>  0.2765  0.1093  0.0000 </r>
        <r>  0.2765  0.1093  0.0000 </r>
       </set>
       <set comment="band 2">
        <r>  0.2617  0.1249  0.0000 </r>
        <r>  0.2617  0.1249  0.0000 </r>
       </set>
       <set comment="band 3">
        <r>  0.0026  0.3189  0.0000 </r>
        <r>  0.0026  0.3189  0.0000 </r>
       </set>
       <set comment="band 4">
        <r>  0.0905  0.2628  0.0000 </r>
        <r>  0.0905  0.2628  0.0000 </r>
       </set>
       <set comment="band 5">
        <r>  0.0825  0.2755  0.0000 </r>
        <r>  0.0825  0.2755  0.0000 </r>
       </set>
       <set comment="band 6">
        <r>  0.0002  0.2847  0.0000 </r>
        <r>  0.0002  0.2847  0.0000 </r>
       </set>
       <set comment="band 7">
        <r>  0.0570  0.3639  0.0000 </r>
        <r>  0.0570  0.3639  0.0000 </r>
       </set>
       <set comment="band 8">
        <r>  0.0525  0.3600  0.0000 </r>
        <r>  0.0525  0.3600  0.0000 </r>
       </set>
       <set comment="band 9">
        <r>  0.0003  0.0428  0.0000 </r>
        <r>  0.0003  0.0428  0.0000 </r>
       </set>
       <set comment="band 10">
        <r>  0.0001  0.0504  0.0000 </r>
        <r>  0.0001  0.0504  0.0000 </r>
       </set>
       <set comment="band 11">
        <r>  0.0008  0.0428  0.0000 </r>
        <r>  0.0008  0.0428  0.0000 </r>
       </set>
       <set comment="band 12">
        <r>  0.0014  0.0360  0.0000 </r>
        <r>  0.0014  0.0360  0.0000 </r>
       </set>
       <set comment="band 13">
        <r>  0.0019  0.0106  0.0000 </r>
        <r>  0.0019  0.0106  0.0000 </r>
       </set>
       <set comment="band 14">
        <r>  0.0001  0.0074  0.0000 </r>
        <r>  0.0001  0.0074  0.0000 </r>
       </set>
       <set comment="band 15">
        <r>  0.0001  0.0040  0.0000 </r>
        <r>  0.0001  0.0040  0.0000 </r>
       </set>
       <set comment="band 16">
        <r>  0.0011  0.0270  0.0000 </r>
        <r>  0.0011  0.0270  0.0000 </r>
       </set>
      </set>
      <set comment="kpoint 201">
       <set comment="band 1">
        <r>  0.2793  0.1082  0.0000 </r>
        <r>  0.2793  0.1082  0.0000 </r>
       </set>
       <set comment="band 2">
        <r>  0.2597  0.1250  0.0000 </r>
        <r>  0.2597  0.1250  0.0000 </r>
       </set>
       <set comment="band 3">
        <r>  0.0017  0.3197  0.0000 </r>
        <r>  0.0017  0.3197  0.0000 </r>
       </set>
       <set comment="band 4">
        <r>  0.0911  0.2622  0.0000 </r>
        <r>  0.0911  0.2622  0.0000 </r>
       </set>
       <set comment="band 5">
        <r>  0.0820  0.2763  0.0000 </r>
        <r>  0.0820  0.2763  0.0000 </r>
       </set>
       <set comment="band 6">
        <r>  0.0000  0.2840  0.0000 </r>
        <r>  0.0000  0.2840  0.0000 </r>
       </set>
       <set comment="band 7">
        <r>  0.0532  0.3630  0.0000 </r>
        <r>  0.0532  0.3630  0.0000 </r>
       </set>
       <set comment="band 8">
        <r>  0.0566  0.3616  0.0000 </r>
        <r>  0.0566  0.3616  0.0000 </r>
       </set>
       <set comment="band 9">
        <r>  0.0004  0.0419  0.0000 </r>
        <r>  0.0004  0.0419  0.0000 </r>
       </set>
       <set comment="band 10">
        <r>  0.0001  0.0506  0.0000 </r>
        <r>  0.0001  0.0506  0.0000 </r>
       </set>
       <set comment="band 11">
        <r>  0.0007  0.0426  0.0000 </r>
        <r>  0.0007  0.0426  0.0000 </r>
       </set>
       <set comment="band 12">
        <r>  0.0013  0.0362  0.0000 </r>
        <r>  0.0013  0.0362  0.0000 </r>
       </set>
       <set comment="band 13">
        <r>  0.0021  0.0102  0.0000 </r>
        <r>  0.0021  0.0102  0.0000 </r>
       </set>
       <set comment="band 14">
        <r>  0.0001  0.0074  0.0000 </r>
        <r>  0.0001  0.0074  0.0000 </r>
       </set>
       <set comment="band 15">
        <r>  0.0001  0.0040  0.0000 </r>
        <r>  0.0001  0.0040  0.0000 </r>
       </set>
       <set comment="band 16">
        <r>  0.0012  0.0266  0.0000 </r>
        <r>  0.0012  0.0266  0.0000 </r>
       </set>
      </set>
      <set comment="kpoint 202">
       <set comment="band 1">
        <r>  0.2755  0.1094  0.0000 </r>
        <r>  0.2755  0.1094  0.0000 </r>
       </set>
       <set comment="band 2">
        <r>  0.2625  0.1249  0.0000 </r>
        <r>  0.2625  0.1249  0.0000 </r>
       </set>
       <set comment="band 3">
        <r>  0.0028  0.3186  0.0000 </r>
        <r>  0.0028  0.3186  0.0000 </r>
       </set>
       <set comment="band 4">
        <r>  0.0904  0.2630  0.0000 </r>
        <r>  0.0904  0.2630  0.0000 </r>
       </set>
       <set comment="band 5">
        <r>  0.0826  0.2753  0.0000 </r>
        <r>  0.0826  0.2753  0.0000 </r>
       </set>
       <set comment="band 6">
        <r>  0.0002  0.2848  0.0000 </r>
        <r>  0.0002  0.2848  0.0000 </r>
       </set>
       <set comment="band 7">
        <r>  0.0578  0.3642  0.0000 </r>
        <r>  0.0578  0.3642  0.0000 </r>
       </set>
       <set comment="band 8">
        <r>  0.0516  0.3596  0.0000 </r>
        <r>  0.0516  0.3596  0.0000 </r>
       </set>
       <set comment="band 9">
        <r>  0.0003  0.0430  0.0000 </r>
        <r>  0.0003  0.0430  0.0000 </r>
       </set>
       <set comment="band 10">
        <r>  0.0002  0.0505  0.0000 </r>
        <r>  0.0002  0.0505  0.0000 </r>
       </set>
       <set comment="band 11">
        <r>  0.0008  0.0427  0.0000 </r>
        <r>  0.0008  0.0427  0.0000 </r>
       </set>
       <set comment="band 12">
        <r>  0.0015  0.0360  0.0000 </r>
        <r>  0.0015  0.0360  0.0000 </r>
       </set>
       <set comment="band 13">
        <r>  0.0019  0.0108  0.0000 </r>
        <r>  0.0019  0.0108  0.0000 </r>
       </set>
       <set comment="band 14">
        <r>  0.0001  0.0074  0.0000 </r>
        <r>  0.0001  0.0074  0.0000 </r>
       </set>
       <set comment="band 15">
        <r>  0.0001  0.0040  0.0000 </r>
        <r>  0.0001  0.0040  0.0000 </r>
       </set>
       <set comment="band 16">
        <r>  0.0010  0.0271  0.0000 </r>
        <r>  0.0010  0.0271  0.0000 </r>
       </set>
      </set>
     </set>
    </set>
   </array>
  </projected>
 </calculation>
 <structure name="finalpos" >
  <crystal>
   <varray name="basis" >
    <v>       2.29449859       0.00000000       0.00000000 </v>
    <v>      -1.14724930       1.98709407       0.00000000 </v>
    <v>       0.00000000       0.00000000      16.00000000 </v>
   </varray>
   <i name="volume">     72.95015287 </i>
   <varray name="rec_basis" >
    <v>       0.43582507       0.25162372       0.00000000 </v>
    <v>       0.00000000       0.50324744       0.00000000 </v>
    <v>       0.00000000       0.00000000       0.06250000 </v>
   </varray>
  </crystal>
  <varray name="positions" >
   <v>       0.66776151       0.33681302       0.47822185 </v>
   <v>       0.33223849       0.66318698       0.52177815 </v>
  </varray>
 </structure>
</modeling>
