unknown system                          
           1
     2.294499    0.000000    0.000000
    -1.147249    1.987094    0.000000
     0.000000    0.000000   16.000000
   N 
     2
Direct configuration=     1
   0.66776151  0.33681302  0.47822185
   0.33223849  0.66318698  0.52177815
