       N       E                     dE             d eps       ncg     rms          rms(c)
DAV:   1     0.502553504548E+03    0.50255E+03   -0.21495E+04  1536   0.639E+02
DAV:   2    -0.253898013407E+02   -0.52794E+03   -0.51082E+03  2272   0.187E+02
DAV:   3    -0.931025893815E+02   -0.67713E+02   -0.67092E+02  1920   0.713E+01
DAV:   4    -0.970270478273E+02   -0.39245E+01   -0.39174E+01  2752   0.203E+01
DAV:   5    -0.970707942407E+02   -0.43746E-01   -0.43718E-01  2256   0.206E+00
DAV:   6    -0.970731809124E+02   -0.23867E-02   -0.23864E-02  2784   0.369E-01
DAV:   7    -0.970732140438E+02   -0.33131E-04   -0.33129E-04  2400   0.425E-02
DAV:   8    -0.970732154197E+02   -0.13758E-05   -0.13755E-05  2768   0.680E-03
DAV:   9    -0.970732154584E+02   -0.38701E-07   -0.38572E-07  2192   0.102E-03
DAV:  10    -0.970732154604E+02   -0.20700E-08   -0.19685E-08  1968   0.254E-04
DAV:  11    -0.970732154611E+02   -0.63437E-09   -0.28178E-09  1376   0.140E-04
DAV:  12    -0.970732154613E+02   -0.21055E-09   -0.12371E-09  1376   0.101E-04    0.746E+00
DAV:  13    -0.968378992695E+02    0.23532E+00   -0.38838E-02  1920   0.514E-01    0.664E+00
DAV:  14    -0.961491934107E+02    0.68871E+00   -0.21265E+00  1840   0.379E+00    0.886E-01
DAV:  15    -0.961041266512E+02    0.45067E-01   -0.28834E-01  1840   0.169E+00    0.361E-01
DAV:  16    -0.961067130905E+02   -0.25864E-02   -0.26512E-02  2208   0.499E-01    0.223E-01
DAV:  17    -0.961054543163E+02    0.12588E-02   -0.44498E-03  2192   0.181E-01    0.189E-01
DAV:  18    -0.961052256406E+02    0.22868E-03   -0.24245E-03  2272   0.138E-01    0.295E-02
DAV:  19    -0.961052350261E+02   -0.93855E-05   -0.21066E-04  2192   0.493E-02    0.290E-02
DAV:  20    -0.961052349990E+02    0.27184E-07   -0.23164E-05  2384   0.173E-02    0.153E-02
DAV:  21    -0.961052343740E+02    0.62492E-06   -0.43146E-05  1904   0.190E-02    0.443E-03
DAV:  22    -0.961052326216E+02    0.17524E-05   -0.61497E-06  1984   0.868E-03    0.308E-03
DAV:  23    -0.961052326977E+02   -0.76114E-07   -0.85655E-07  2192   0.315E-03
   1 F= -.96105233E+02 E0= -.96105233E+02  d E =-.257854E-11
 Linear response reoptimize wavefunctions
DAV:   1    -0.961052328076E+02   -0.10986E-06   -0.95344E-08  2448   0.804E-04
DAV:   2    -0.961052328077E+02   -0.13642E-09   -0.27933E-09  1296   0.191E-04
DAV:   3    -0.961052328081E+02   -0.33833E-09   -0.37090E-10  1344   0.996E-05
 Linear response DOF=           2
 Linear response progress:
  Degree of freedom:   1/  2
       N       E                     dE             d eps       ncg     rms          rms(c)
RMM:   1    -0.498090449789E-01   -0.49809E-01    0.10496E-03 11814   0.977E-01
RMM:   2    -0.439204353054E-01    0.58886E-02   -0.54022E-03  8166   0.230E-01    0.839E-02
RMM:   3    -0.439402889548E-01   -0.19854E-04   -0.38714E-04  8899   0.647E-02    0.735E-02
RMM:   4    -0.436735538055E-01    0.26674E-03   -0.43413E-04  8942   0.458E-02    0.310E-02
RMM:   5    -0.436715875055E-01    0.19663E-05   -0.24088E-05  9166   0.153E-02    0.254E-02
RMM:   6    -0.436297048164E-01    0.41883E-04   -0.41440E-05  9055   0.131E-02    0.842E-03
RMM:   7    -0.436037235181E-01    0.25981E-04   -0.19616E-05  8992   0.858E-03    0.749E-03
RMM:   8    -0.436337768986E-01   -0.30053E-04   -0.12790E-05  8478   0.708E-03    0.244E-03
RMM:   9    -0.436416084588E-01   -0.78316E-05   -0.32200E-06  9351   0.333E-03    0.192E-03
RMM:  10    -0.436401005246E-01    0.15079E-05   -0.60577E-07  8906   0.159E-03    0.870E-04
RMM:  11    -0.436398876741E-01    0.21285E-06   -0.16886E-07  9488   0.801E-04    0.318E-04
RMM:  12    -0.436390132758E-01    0.87440E-06   -0.13926E-08  9499   0.277E-04    0.237E-04
RMM:  13    -0.436386930077E-01    0.32027E-06   -0.50543E-09  9613   0.208E-04    0.631E-05
RMM:  14    -0.436385270157E-01    0.16599E-06   -0.90461E-09 10646   0.118E-04    0.592E-05
RMM:  15    -0.436386346078E-01   -0.10759E-06    0.17561E-08 10510   0.983E-05    0.342E-05
RMM:  16    -0.436386607524E-01   -0.26145E-07    0.16947E-10 11017   0.911E-05    0.219E-05
 Linear response progress:
  Degree of freedom:   2/  2
       N       E                     dE             d eps       ncg     rms          rms(c)
RMM:   1    -0.520193924307E-01   -0.52019E-01   -0.21657E-02  3513   0.990E-01
RMM:   2    -0.438157305126E-01    0.82037E-02   -0.61367E-03  2563   0.226E-01    0.852E-02
RMM:   3    -0.438793653491E-01   -0.63635E-04   -0.47294E-04  2855   0.616E-02    0.733E-02
RMM:   4    -0.438635346346E-01    0.15831E-04   -0.26185E-04  2954   0.340E-02    0.481E-02
RMM:   5    -0.438987181141E-01   -0.35183E-04   -0.12587E-04  2896   0.234E-02    0.263E-02
RMM:   6    -0.438845138786E-01    0.14204E-04   -0.41326E-05  2739   0.143E-02    0.113E-02
RMM:   7    -0.438535686719E-01    0.30945E-04   -0.74748E-06  2766   0.671E-03    0.531E-03
RMM:   8    -0.438410661686E-01    0.12503E-04   -0.25352E-06  2856   0.357E-03    0.355E-03
RMM:   9    -0.438333287901E-01    0.77374E-05   -0.12059E-06  2739   0.302E-03    0.163E-03
RMM:  10    -0.438265159868E-01    0.68128E-05   -0.88441E-07  2700   0.210E-03    0.102E-03
RMM:  11    -0.438278090998E-01   -0.12931E-05   -0.15413E-07  2806   0.770E-04    0.699E-04
RMM:  12    -0.438290914568E-01   -0.12824E-05    0.44270E-08  2867   0.761E-04    0.464E-04
RMM:  13    -0.438298683720E-01   -0.77692E-06   -0.69502E-08  2795   0.484E-04    0.128E-04
RMM:  14    -0.438293430718E-01    0.52530E-06    0.77990E-09  3124   0.214E-04    0.120E-04
RMM:  15    -0.438294813109E-01   -0.13824E-06    0.81669E-08  3195   0.126E-04    0.639E-05
RMM:  16    -0.438297552660E-01   -0.27396E-06    0.12014E-07  3373   0.109E-04    0.383E-05
RMM:  17    -0.438296521455E-01    0.10312E-06   -0.35645E-09  3332   0.964E-05    0.141E-05
RMM:  18    -0.438296916642E-01   -0.39519E-07   -0.27936E-08  3563   0.825E-05    0.123E-05
 Linear response finished
