 vasp.6.4.2 20Jul23 (build Nov 14 2023 12:59:38) complex                        
  
 executed on             LinuxIFC date 2023.12.16  19:44:36
 running   16 mpi-ranks, on    1 nodes
 distrk:  each k-point on   16 cores,    1 groups
 distr:  one band on NCORE=   1 cores,   16 groups


--------------------------------------------------------------------------------------------------------


 INCAR:
   ENCUT = 286.920000
   ALGO = Normal
   NELM = 200
   NELMIN = 6
   NELMDL = -12
   EDIFF = 1.0E-7
   AMIX = 0.1
   BMIX = 0.0001
   PREC = Accurate
   IVDW = 0
   ISPIN = 1
   ADDGRID = .TRUE.
   LASPH = .TRUE.
   EDIFFG = -0.010
   IBRION = 8
   STRESSTYPE = 2
   ISMEAR = 0
   SIGMA = 0.01
   LORBIT = 10
   NEDOS = 6001
   NWRITE = 1
   LWAVE = .FALSE.
   LCHARG = .FALSE.
   LPLANE = .TRUE.

 POTCAR:    PAW_PBE P_GW 19Mar2012                
 -----------------------------------------------------------------------------
|                                                                             |
|           W    W    AA    RRRRR   N    N  II  N    N   GGGG   !!!           |
|           W    W   A  A   R    R  NN   N  II  NN   N  G    G  !!!           |
|           W    W  A    A  R    R  N N  N  II  N N  N  G       !!!           |
|           W WW W  AAAAAA  RRRRR   N  N N  II  N  N N  G  GGG   !            |
|           WW  WW  A    A  R   R   N   NN  II  N   NN  G    G                |
|           W    W  A    A  R    R  N    N  II  N    N   GGGG   !!!           |
|                                                                             |
|     For optimal performance we recommend to set                             |
|       NCORE = 2 up to number-of-cores-per-socket                            |
|     NCORE specifies how many cores store one orbital (NPAR=cpu/NCORE).      |
|     This setting can greatly improve the performance of VASP for DFT.       |
|     The default, NCORE=1 might be grossly inefficient on modern             |
|     multi-core architectures or massively parallel machines. Do your        |
|     own testing! More info at https://www.vasp.at/wiki/index.php/NCORE      |
|     Unfortunately you need to use the default for GW and RPA                |
|     calculations (for HF NCORE is supported but not extensively tested      |
|     yet).                                                                   |
|                                                                             |
 -----------------------------------------------------------------------------

 POTCAR:    PAW_PBE P_GW 19Mar2012                
  local pseudopotential read in
  partial core-charges read in
  partial kinetic energy density read in
  kinetic energy density of atom read in
  atomic valenz-charges read in
  non local Contribution for L=           0  read in
    real space projection operators read in
  non local Contribution for L=           0  read in
    real space projection operators read in
  non local Contribution for L=           1  read in
    real space projection operators read in
  non local Contribution for L=           1  read in
    real space projection operators read in
  non local Contribution for L=           2  read in
    real space projection operators read in
  non local Contribution for L=           2  read in
    real space projection operators read in
    PAW grid and wavefunctions read in
 
   number of l-projection  operators is LMAX  =           6
   number of lm-projection operators is LMMAX =          18
 
 -----------------------------------------------------------------------------
|                                                                             |
|               ----> ADVICE to this user running VASP <----                  |
|                                                                             |
|     You have a (more or less) 'large supercell' and for larger cells it     |
|     might be more efficient to use real-space projection operators.         |
|     Therefore, try LREAL= Auto in the INCAR file.                           |
|     Mind: For very accurate calculation, you might also keep the            |
|     reciprocal projection scheme (i.e. LREAL=.FALSE.).                      |
|                                                                             |
 -----------------------------------------------------------------------------

  PAW_PBE P_GW 19Mar2012                :
 energy of atom  1       EATOM= -176.0430
 kinetic energy error for atom=    0.0052 (will be added to EATOM!!)
 
 
 POSCAR: generated by phonopy
  positions in direct lattice
  No initial velocities read in
 exchange correlation table for  LEXCH =        8
   RHO(1)=    0.500       N(1)  =     2000
   RHO(2)=  100.500       N(2)  =     4000
 


--------------------------------------------------------------------------------------------------------


 ion  position               nearest neighbor table
   1  0.222  0.111  0.461-  10 2.27  11 2.27  16 2.27
   2  0.556  0.111  0.461-  11 2.27  12 2.27  17 2.27
   3  0.889  0.111  0.461-  12 2.27  10 2.27  18 2.27
   4  0.222  0.444  0.461-  10 2.27  13 2.27  14 2.27
   5  0.556  0.444  0.461-  11 2.27  15 2.27  14 2.27
   6  0.889  0.444  0.461-  12 2.27  15 2.27  13 2.27
   7  0.222  0.778  0.461-  16 2.27  13 2.27  17 2.27
   8  0.556  0.778  0.461-  14 2.27  17 2.27  18 2.27
   9  0.889  0.778  0.461-  18 2.27  15 2.27  16 2.27
  10  0.111  0.222  0.539-   1 2.27   4 2.27   3 2.27
  11  0.444  0.222  0.539-   5 2.27   2 2.27   1 2.27
  12  0.778  0.222  0.539-   3 2.27   6 2.27   2 2.27
  13  0.111  0.556  0.539-   7 2.27   4 2.27   6 2.27
  14  0.444  0.556  0.539-   8 2.27   4 2.27   5 2.27
  15  0.778  0.556  0.539-   9 2.27   6 2.27   5 2.27
  16  0.111  0.889  0.539-   7 2.27   1 2.27   9 2.27
  17  0.444  0.889  0.539-   7 2.27   8 2.27   2 2.27
  18  0.778  0.889  0.539-   9 2.27   8 2.27   3 2.27
 
  LATTYP: Found a hexagonal cell.
 ALAT       =     9.8470304826
 C/A-ratio  =     1.6248553336
  
  Lattice vectors:
  
 A1 = (   9.8470304826,   0.0000000000,   0.0000000000)
 A2 = (  -4.9235152413,   8.5277785498,   0.0000000000)
 A3 = (   0.0000000000,   0.0000000000,  16.0000000000)


Analysis of symmetry for initial positions (statically):
=====================================================================
 Subroutine PRICEL returns following result:
 
  LATTYP: Found a hexagonal cell.
 ALAT       =     3.2823434942
 C/A-ratio  =     4.8745660009
  
  Lattice vectors:
  
 A1 = (   3.2823434942,   0.0000000000,   0.0000000000)
 A2 = (  -1.6411717471,   2.8425928499,   0.0000000000)
 A3 = (   0.0000000000,   0.0000000000,  16.0000000000)
 
   9 primitive cells build up your supercell.
 

 Routine SETGRP: Setting up the symmetry group for a 
 hexagonal supercell.


 Subroutine GETGRP returns: Found 12 space group operations
 (whereof 12 operations were pure point group operations)
 out of a pool of 24 trial point group operations.


The static configuration has the point symmetry D_3d.


Analysis of symmetry for dynamics (positions and initial velocities):
=====================================================================
 Subroutine PRICEL returns following result:
 
  LATTYP: Found a hexagonal cell.
 ALAT       =     3.2823434942
 C/A-ratio  =     4.8745660009
  
  Lattice vectors:
  
 A1 = (   3.2823434942,   0.0000000000,   0.0000000000)
 A2 = (  -1.6411717471,   2.8425928499,   0.0000000000)
 A3 = (   0.0000000000,   0.0000000000,  16.0000000000)
 
   9 primitive cells build up your supercell.
 

 Routine SETGRP: Setting up the symmetry group for a 
 hexagonal supercell.


 Subroutine GETGRP returns: Found 12 space group operations
 (whereof 12 operations were pure point group operations)
 out of a pool of 24 trial point group operations.


The dynamic configuration has the point symmetry D_3d.


 Subroutine INISYM returns: Found 12 space group operations
 (whereof 12 operations are pure point group operations),
 and found     9 'primitive' translations


----------------------------------------------------------------------------------------

                                     Primitive cell                                     

  volume of cell :     149.2859

  direct lattice vectors                    reciprocal lattice vectors
     3.282343494  0.000000000  0.000000000     0.304660375  0.175895750  0.000000000
    -1.641171747  2.842592850  0.000000000     0.000000000  0.351791499  0.000000000
     0.000000000  0.000000000 16.000000000     0.000000000  0.000000000  0.062500000

  length of vectors
     3.282343494  3.282343494 16.000000000     0.351791499  0.351791499  0.062500000

  position of ions in fractional coordinates (direct lattice)
     0.666666667  0.333333333  0.461182839
     0.333333333  0.666666667  0.538817161

  ion indices of the primitive-cell ions
   primitive index   ion index
                 1           1
                 2          10

----------------------------------------------------------------------------------------

 
 
 KPOINTS: Fully automatic mesh                    

Automatic generation of k-mesh.
 Grid dimensions derived from RKLEN:
 generate k-points for:    5    5    3

 Generating k-lattice:

  Cartesian coordinates                     Fractional coordinates (reciprocal lattice)
     0.020310692  0.011726383  0.000000000     0.200000000  0.000000000  0.000000000
     0.000000000  0.023452767  0.000000000     0.000000000  0.200000000  0.000000000
     0.000000000  0.000000000  0.020833333     0.000000000  0.000000000  0.333333333

  Length of vectors
     0.023452767  0.023452767  0.020833333

  Shift w.r.t. Gamma in fractional coordinates (k-lattice)
     0.000000000  0.000000000  0.000000000

 
 Subroutine IBZKPT returns following result:
 ===========================================
 
 Found     12 irreducible k-points:
 
 Following reciprocal coordinates:
            Coordinates               Weight
  0.000000  0.000000  0.000000      1.000000
  0.200000  0.000000  0.000000      6.000000
  0.400000  0.000000  0.000000      6.000000
  0.200000  0.200000  0.000000      6.000000
  0.400000  0.200000  0.000000      6.000000
  0.000000  0.000000  0.333333      2.000000
  0.200000  0.000000  0.333333      6.000000
  0.000000  0.200000  0.333333      6.000000
  0.400000  0.000000  0.333333      6.000000
  0.000000  0.400000  0.333333      6.000000
  0.200000  0.200000  0.333333     12.000000
  0.400000  0.200000  0.333333     12.000000
 
 Following cartesian coordinates:
            Coordinates               Weight
  0.000000  0.000000  0.000000      1.000000
  0.020311  0.011726  0.000000      6.000000
  0.040621  0.023453  0.000000      6.000000
  0.020311  0.035179  0.000000      6.000000
  0.040621  0.046906  0.000000      6.000000
  0.000000  0.000000  0.020833      2.000000
  0.020311  0.011726  0.020833      6.000000
  0.000000  0.023453  0.020833      6.000000
  0.040621  0.023453  0.020833      6.000000
  0.000000  0.046906  0.020833      6.000000
  0.020311  0.035179  0.020833     12.000000
  0.040621  0.046906  0.020833     12.000000
 
 
 Subroutine IBZKPT_HF returns following result:
 ==============================================
 
 Found     75 k-points in 1st BZ
 the following     75 k-points will be used (e.g. in the exchange kernel)
 Following reciprocal coordinates:   # in IRBZ
  0.000000  0.000000  0.000000    0.01333333   1 t-inv F
  0.200000  0.000000  0.000000    0.01333333   2 t-inv F
  0.400000  0.000000  0.000000    0.01333333   3 t-inv F
  0.200000  0.200000  0.000000    0.01333333   4 t-inv F
  0.400000  0.200000  0.000000    0.01333333   5 t-inv F
  0.000000  0.000000  0.333333    0.01333333   6 t-inv F
  0.200000  0.000000  0.333333    0.01333333   7 t-inv F
  0.000000  0.200000  0.333333    0.01333333   8 t-inv F
  0.400000  0.000000  0.333333    0.01333333   9 t-inv F
  0.000000  0.400000  0.333333    0.01333333  10 t-inv F
  0.200000  0.200000  0.333333    0.01333333  11 t-inv F
  0.400000  0.200000  0.333333    0.01333333  12 t-inv F
 -0.200000 -0.000000  0.000000    0.01333333   2 t-inv F
 -0.200000  0.200000  0.000000    0.01333333   2 t-inv F
  0.200000 -0.200000  0.000000    0.01333333   2 t-inv F
  0.000000 -0.200000  0.000000    0.01333333   2 t-inv F
 -0.000000  0.200000  0.000000    0.01333333   2 t-inv F
 -0.400000 -0.000000  0.000000    0.01333333   3 t-inv F
 -0.400000  0.400000  0.000000    0.01333333   3 t-inv F
  0.400000 -0.400000  0.000000    0.01333333   3 t-inv F
  0.000000 -0.400000  0.000000    0.01333333   3 t-inv F
 -0.000000  0.400000  0.000000    0.01333333   3 t-inv F
 -0.200000 -0.200000  0.000000    0.01333333   4 t-inv F
 -0.400000  0.200000  0.000000    0.01333333   4 t-inv F
  0.400000 -0.200000  0.000000    0.01333333   4 t-inv F
  0.200000 -0.400000  0.000000    0.01333333   4 t-inv F
 -0.200000  0.400000  0.000000    0.01333333   4 t-inv F
 -0.400000 -0.200000  0.000000    0.01333333   5 t-inv F
 -0.600000  0.400000  0.000000    0.01333333   5 t-inv F
  0.600000 -0.400000  0.000000    0.01333333   5 t-inv F
  0.200000 -0.600000  0.000000    0.01333333   5 t-inv F
 -0.200000  0.600000  0.000000    0.01333333   5 t-inv F
  0.000000  0.000000 -0.333333    0.01333333   6 t-inv F
 -0.200000 -0.000000 -0.333333    0.01333333   7 t-inv F
 -0.200000  0.200000  0.333333    0.01333333   7 t-inv F
  0.200000 -0.200000 -0.333333    0.01333333   7 t-inv F
  0.000000 -0.200000  0.333333    0.01333333   7 t-inv F
 -0.000000  0.200000 -0.333333    0.01333333   7 t-inv F
  0.000000 -0.200000 -0.333333    0.01333333   8 t-inv F
 -0.200000  0.000000  0.333333    0.01333333   8 t-inv F
  0.200000  0.000000 -0.333333    0.01333333   8 t-inv F
  0.200000 -0.200000  0.333333    0.01333333   8 t-inv F
 -0.200000  0.200000 -0.333333    0.01333333   8 t-inv F
 -0.400000 -0.000000 -0.333333    0.01333333   9 t-inv F
 -0.400000  0.400000  0.333333    0.01333333   9 t-inv F
  0.400000 -0.400000 -0.333333    0.01333333   9 t-inv F
  0.000000 -0.400000  0.333333    0.01333333   9 t-inv F
 -0.000000  0.400000 -0.333333    0.01333333   9 t-inv F
  0.000000 -0.400000 -0.333333    0.01333333  10 t-inv F
 -0.400000  0.000000  0.333333    0.01333333  10 t-inv F
  0.400000  0.000000 -0.333333    0.01333333  10 t-inv F
  0.400000 -0.400000  0.333333    0.01333333  10 t-inv F
 -0.400000  0.400000 -0.333333    0.01333333  10 t-inv F
 -0.200000 -0.200000 -0.333333    0.01333333  11 t-inv F
 -0.400000  0.200000  0.333333    0.01333333  11 t-inv F
  0.400000 -0.200000 -0.333333    0.01333333  11 t-inv F
  0.200000 -0.400000  0.333333    0.01333333  11 t-inv F
 -0.200000  0.400000 -0.333333    0.01333333  11 t-inv F
  0.200000 -0.400000 -0.333333    0.01333333  11 t-inv F
 -0.200000  0.400000  0.333333    0.01333333  11 t-inv F
 -0.400000  0.200000 -0.333333    0.01333333  11 t-inv F
  0.400000 -0.200000  0.333333    0.01333333  11 t-inv F
  0.200000  0.200000 -0.333333    0.01333333  11 t-inv F
 -0.200000 -0.200000  0.333333    0.01333333  11 t-inv F
 -0.400000 -0.200000 -0.333333    0.01333333  12 t-inv F
 -0.600000  0.400000  0.333333    0.01333333  12 t-inv F
  0.600000 -0.400000 -0.333333    0.01333333  12 t-inv F
  0.200000 -0.600000  0.333333    0.01333333  12 t-inv F
 -0.200000  0.600000 -0.333333    0.01333333  12 t-inv F
  0.400000 -0.600000 -0.333333    0.01333333  12 t-inv F
 -0.400000  0.600000  0.333333    0.01333333  12 t-inv F
 -0.600000  0.200000 -0.333333    0.01333333  12 t-inv F
  0.600000 -0.200000  0.333333    0.01333333  12 t-inv F
  0.200000  0.400000 -0.333333    0.01333333  12 t-inv F
 -0.200000 -0.400000  0.333333    0.01333333  12 t-inv F


--------------------------------------------------------------------------------------------------------




 Dimension of arrays:
   k-points           NKPTS =     12   k-points in BZ     NKDIM =     12   number of bands    NBANDS=     64
   number of dos      NEDOS =   6001   number of ions     NIONS =     18
   non local maximal  LDIM  =      6   non local SUM 2l+1 LMDIM =     18
   total plane-waves  NPLWV = 262440
   max r-space proj   IRMAX =      1   max aug-charges    IRDMAX=  57812
   dimension x,y,z NGX =    54 NGY =   54 NGZ =   90
   dimension x,y,z NGXF=   108 NGYF=  108 NGZF=  180
   support grid    NGXF=   216 NGYF=  216 NGZF=  360
   ions per type =              18
   NGX,Y,Z   is equivalent  to a cutoff of   9.12,  9.12,  9.35 a.u.
   NGXF,Y,Z  is equivalent  to a cutoff of  18.23, 18.23, 18.70 a.u.

 SYSTEM =  unknown system                          
 POSCAR =  generated by phonopy                    

 Startparameter for this run:
   NWRITE =      1    write-flag & timer
   PREC   = accura    normal or accurate (medium, high low for compatibility)
   ISTART =      0    job   : 0-new  1-cont  2-samecut
   ICHARG =      2    charge: 1-file 2-atom 10-const
   ISPIN  =      1    spin polarized calculation?
   LNONCOLLINEAR =      F non collinear calculations
   LSORBIT =      F    spin-orbit coupling
   INIWAV =      1    electr: 0-lowe 1-rand  2-diag
   LASPH  =      T    aspherical Exc in radial PAW
 Electronic Relaxation 1
   ENCUT  =  286.9 eV  21.09 Ry    4.59 a.u.  13.60 13.60 22.10*2*pi/ulx,y,z
   ENINI  =  286.9     initial cutoff
   ENAUG  =  499.7 eV  augmentation charge cutoff
   NELM   =    200;   NELMIN=  6; NELMDL=-12     # of ELM steps 
   EDIFF  = 0.1E-06   stopping-criterion for ELM
   LREAL  =      F    real-space projection
   NLSPLINE    = F    spline interpolate recip. space projectors
   LCOMPAT=      F    compatible to vasp.4.4
   GGA_COMPAT  = T    GGA compatible to vasp.4.4-vasp.4.6
   LMAXPAW     = -100 max onsite density
   LMAXMIX     =    2 max onsite mixed and CHGCAR
   VOSKOWN=      0    Vosko Wilk Nusair interpolation
   ROPT   =    0.00000
 Ionic relaxation
   EDIFFG = -.1E-01   stopping-criterion for IOM
   NSW    =      1    number of steps for IOM
   NBLOCK =      1;   KBLOCK =      1    inner block; outer block 
   IBRION =      8    ionic relax: 0-MD 1-quasi-New 2-CG
   NFREE  =      0    steps in history (QN), initial steepest desc. (CG)
   ISIF   =      2    stress and relaxation
   IWAVPR =     11    prediction:  0-non 1-charg 2-wave 3-comb
   ISYM   =      2    0-nonsym 1-usesym 2-fastsym
   LCORR  =      T    Harris-Foulkes like correction to forces

   POTIM  = 0.5000    time-step for ionic-motion
   TEIN   =    0.0    initial temperature
   TEBEG  =    0.0;   TEEND  =   0.0 temperature during run
   SMASS  =  -3.00    Nose mass-parameter (am)
   estimated Nose-frequenzy (Omega)   =  0.10E-29 period in steps = 0.13E+47 mass=  -0.222E-26a.u.
   SCALEE = 1.0000    scale energy and forces
   NPACO  =    256;   APACO  = 10.0  distance and # of slots for P.C.
   PSTRESS=    0.0 pullay stress

  Mass of Ions in am
   POMASS =  30.97
  Ionic Valenz
   ZVAL   =   5.00
  Atomic Wigner-Seitz radii
   RWIGS  =  -1.00
  virtual crystal weights 
   VCA    =   1.00
   NELECT =      90.0000    total number of electrons
   NUPDOWN=      -1.0000    fix difference up-down

 DOS related values:
   EMIN   =  10.00;   EMAX   =-10.00  energy-range for DOS
   EFERMI =   0.00;   METHOD = LEGACY      
   ISMEAR =     0;   SIGMA  =   0.01  broadening in eV -4-tet -1-fermi 0-gaus

 Electronic relaxation 2 (details)
   IALGO  =     38    algorithm
   LDIAG  =      T    sub-space diagonalisation (order eigenvalues)
   LSUBROT=      F    optimize rotation matrix (better conditioning)
   TURBO    =      0    0=normal 1=particle mesh
   IRESTART =      0    0=no restart 2=restart with 2 vectors
   NREBOOT  =      0    no. of reboots
   NMIN     =      0    reboot dimension
   EREF     =   0.00    reference energy to select bands
   IMIX   =      4    mixing-type and parameters
     AMIX     =   0.10;   BMIX     =  0.00
     AMIX_MAG =   0.40;   BMIX_MAG =  0.00
     AMIN     =   0.10
     WC   =   100.;   INIMIX=   1;  MIXPRE=   1;  MAXMIX= -45

 Intra band minimization:
   WEIMIN = 0.0010     energy-eigenvalue tresh-hold
   EBREAK =  0.39E-09  absolut break condition
   DEPER  =   0.30     relativ break condition  

   TIME   =   0.40     timestep for ELM

  volume/ion in A,a.u.               =      74.64       503.72
  Fermi-wavevector in a.u.,A,eV,Ry     =   0.664868  1.256418  6.014444  0.442049
  Thomas-Fermi vector in A             =   1.738688
 
 Write flags
   LWAVE        =      F    write WAVECAR
   LDOWNSAMPLE  =      F    k-point downsampling of WAVECAR
   LCHARG       =      F    write CHGCAR
   LVTOT        =      F    write LOCPOT, total local potential
   LVHAR        =      F    write LOCPOT, Hartree potential only
   LELF         =      F    write electronic localiz. function (ELF)
   LORBIT       =     10    0 simple, 1 ext, 2 COOP (PROOUT), +10 PAW based schemes


 Dipole corrections
   LMONO  =      F    monopole corrections only (constant potential shift)
   LDIPOL =      F    correct potential (dipole corrections)
   IDIPOL =      0    1-x, 2-y, 3-z, 4-all directions 
   EPSILON=  1.0000000 bulk dielectric constant

 Exchange correlation treatment:
   GGA     =    --    GGA type
   LEXCH   =     8    internal setting for exchange type
   LIBXC   =     F    Libxc                    
   VOSKOWN =     0    Vosko Wilk Nusair interpolation
   LHFCALC =     F    Hartree Fock is set to
   LHFONE  =     F    Hartree Fock one center treatment
   AEXX    =    0.0000 exact exchange contribution

 Linear response parameters
   LEPSILON=     F    determine dielectric tensor
   LRPA    =     F    only Hartree local field effects (RPA)
   LNABLA  =     F    use nabla operator in PAW spheres
   LVEL    =     F    velocity operator in full k-point grid
   CSHIFT  =0.1000    complex shift for real part using Kramers Kronig
   OMEGAMAX=  -1.0    maximum frequency
   DEG_THRESHOLD= 0.2000000E-02 threshold for treating states as degnerate
   RTIME   =   -0.100 relaxation time in fs
  (WPLASMAI=    0.000 imaginary part of plasma frequency in eV, 0.658/RTIME)
   DFIELD  = 0.0000000 0.0000000 0.0000000 field for delta impulse in time
 
  Optional k-point grid parameters
   LKPOINTS_OPT  =     F    use optional k-point grid
   KPOINTS_OPT_MODE=     1    mode for optional k-point grid
 
 Orbital magnetization related:
   ORBITALMAG=     F  switch on orbital magnetization
   LCHIMAG   =     F  perturbation theory with respect to B field
   DQ        =  0.001000  dq finite difference perturbation B field
   LLRAUG    =     F  two centre corrections for induced B field
   LBONE     =     F  B-component reconstruction in AE one-centre
   LVGVCALC  =     T  calculate vGv susceptibility
   LVGVAPPL  =     F  apply vGv susceptibility instead of pGv for G=0

 Random number generation:
   RANDOM_GENERATOR = DEFAULT
   PCG_SEED         = not used


--------------------------------------------------------------------------------------------------------


 linear response using symmetry
 charge density and potential will be updated during run
 non-spin polarized calculation
 Variant of blocked Davidson
 Davidson routine will perform the subspace rotation
 perform sub-space diagonalisation
    after iterative eigenvector-optimisation
 modified Broyden-mixing scheme, WC =      100.0
 initial mixing is a Kerker type mixing with AMIX =  0.1000 and BMIX =      0.0001
 Hartree-type preconditioning will be used
 using additional bands           19
 reciprocal scheme for non local part
 use partial core corrections
 calculate Harris-corrections to forces 
   (improved forces if not selfconsistent)
 use gradient corrections 
 use of overlap-Matrix (Vanderbilt PP)
 Gauss-broadening in eV      SIGMA  =   0.01


--------------------------------------------------------------------------------------------------------


  energy-cutoff  :      286.92
  volume of cell :     1343.57
      direct lattice vectors                 reciprocal lattice vectors
     9.847030483  0.000000000  0.000000000     0.101553458  0.058631917  0.000000000
    -4.923515241  8.527778550  0.000000000     0.000000000  0.117263833  0.000000000
     0.000000000  0.000000000 16.000000000     0.000000000  0.000000000  0.062500000

  length of vectors
     9.847030483  9.847030483 16.000000000     0.117263833  0.117263833  0.062500000


 
 k-points in units of 2pi/SCALE and weight: Fully automatic mesh                    
   0.00000000  0.00000000  0.00000000       0.013
   0.02031069  0.01172638  0.00000000       0.080
   0.04062138  0.02345277  0.00000000       0.080
   0.02031069  0.03517915  0.00000000       0.080
   0.04062138  0.04690553  0.00000000       0.080
   0.00000000  0.00000000  0.02083333       0.027
   0.02031069  0.01172638  0.02083333       0.080
   0.00000000  0.02345277  0.02083333       0.080
   0.04062138  0.02345277  0.02083333       0.080
   0.00000000  0.04690553  0.02083333       0.080
   0.02031069  0.03517915  0.02083333       0.160
   0.04062138  0.04690553  0.02083333       0.160
 
 k-points in reciprocal lattice and weights: Fully automatic mesh                    
   0.00000000  0.00000000  0.00000000       0.013
   0.20000000  0.00000000  0.00000000       0.080
   0.40000000  0.00000000  0.00000000       0.080
   0.20000000  0.20000000  0.00000000       0.080
   0.40000000  0.20000000  0.00000000       0.080
   0.00000000  0.00000000  0.33333333       0.027
   0.20000000  0.00000000  0.33333333       0.080
   0.00000000  0.20000000  0.33333333       0.080
   0.40000000  0.00000000  0.33333333       0.080
   0.00000000  0.40000000  0.33333333       0.080
   0.20000000  0.20000000  0.33333333       0.160
   0.40000000  0.20000000  0.33333333       0.160
 
 position of ions in fractional coordinates (direct lattice) 
   0.22222222  0.11111111  0.46118284
   0.55555556  0.11111111  0.46118284
   0.88888889  0.11111111  0.46118284
   0.22222222  0.44444444  0.46118284
   0.55555556  0.44444444  0.46118284
   0.88888889  0.44444444  0.46118284
   0.22222222  0.77777778  0.46118284
   0.55555556  0.77777778  0.46118284
   0.88888889  0.77777778  0.46118284
   0.11111111  0.22222222  0.53881716
   0.44444444  0.22222222  0.53881716
   0.77777778  0.22222222  0.53881716
   0.11111111  0.55555556  0.53881716
   0.44444444  0.55555556  0.53881716
   0.77777778  0.55555556  0.53881716
   0.11111111  0.88888889  0.53881716
   0.44444444  0.88888889  0.53881716
   0.77777778  0.88888889  0.53881716
 
 position of ions in cartesian coordinates  (Angst):
   1.64117175  0.94753095  7.37892542
   4.92351524  0.94753095  7.37892542
   8.20585874  0.94753095  7.37892542
   0.00000000  3.79012380  7.37892542
   3.28234349  3.79012380  7.37892542
   6.56468699  3.79012380  7.37892542
  -1.64117175  6.63271665  7.37892542
   1.64117175  6.63271665  7.37892542
   4.92351524  6.63271665  7.37892542
   0.00000000  1.89506190  8.62107458
   3.28234349  1.89506190  8.62107458
   6.56468699  1.89506190  8.62107458
  -1.64117175  4.73765475  8.62107458
   1.64117175  4.73765475  8.62107458
   4.92351524  4.73765475  8.62107458
  -3.28234349  7.58024760  8.62107458
   0.00000000  7.58024760  8.62107458
   3.28234349  7.58024760  8.62107458
 


--------------------------------------------------------------------------------------------------------


 k-point   1 :   0.0000 0.0000 0.0000  plane waves:   14775
 k-point   2 :   0.2000 0.0000 0.0000  plane waves:   14831
 k-point   3 :   0.4000 0.0000 0.0000  plane waves:   14812
 k-point   4 :   0.2000 0.2000 0.0000  plane waves:   14830
 k-point   5 :   0.4000 0.2000 0.0000  plane waves:   14808
 k-point   6 :   0.0000 0.0000 0.3333  plane waves:   14888
 k-point   7 :   0.2000 0.0000 0.3333  plane waves:   14848
 k-point   8 :   0.0000 0.2000 0.3333  plane waves:   14848
 k-point   9 :   0.4000 0.0000 0.3333  plane waves:   14807
 k-point  10 :   0.0000 0.4000 0.3333  plane waves:   14807
 k-point  11 :   0.2000 0.2000 0.3333  plane waves:   14826
 k-point  12 :   0.4000 0.2000 0.3333  plane waves:   14800

 maximum and minimum number of plane-waves per node :     14888    14775

 maximum number of plane-waves:     14888
 maximum index in each direction: 
   IXMAX=   13   IYMAX=   13   IZMAX=   22
   IXMIN=  -13   IYMIN=  -13   IZMIN=  -22


 serial   3D FFT for wavefunctions
 parallel 3D FFT for charge:
    minimum data exchange during FFTs selected (reduces bandwidth)


 total amount of memory used by VASP MPI-rank0   109952. kBytes
=======================================================================

   base      :      30000. kBytes
   nonl-proj :      30030. kBytes
   fftplans  :      20821. kBytes
   grid      :      17124. kBytes
   one-center:        279. kBytes
   wavefun   :      11698. kBytes
 
     INWAV:  cpu time      0.0000: real time      0.0000
 Broyden mixing: mesh for mixing (old mesh)
   NGX = 27   NGY = 27   NGZ = 45
  (NGX  =108   NGY  =108   NGZ  =180)
  gives a total of  32805 points

 initial charge density was supplied:
 charge density of overlapping atoms calculated
 number of electron      90.0000000 magnetization 
 keeping initial charge density in first step


--------------------------------------------------------------------------------------------------------


 Maximum index for augmentation-charges         3859 (set IRDMAX)


--------------------------------------------------------------------------------------------------------


 First call to EWALD:  gamma=   0.161
 Maximum number of real-space cells 3x 3x 2
 Maximum number of reciprocal cells 3x 3x 4

    FEWALD:  cpu time      0.0011: real time      0.0011


--------------------------------------- Ionic step        1  -------------------------------------------




--------------------------------------- Iteration      1(   1)  ---------------------------------------


    POTLOK:  cpu time      0.0863: real time      0.1299
    SETDIJ:  cpu time      0.3279: real time      0.3282
     EDDAV:  cpu time      4.3785: real time      4.3889
       DOS:  cpu time      0.0013: real time      0.0013
    --------------------------------------------
      LOOP:  cpu time      4.7940: real time      4.8483

 eigenvalue-minimisations  :  1536
 total energy-change (2. order) : 0.5025535E+03  (-0.2149489E+04)
 number of electron      90.0000000 magnetization 
 augmentation part       90.0000000 magnetization 

 Free energy of the ion-electron system (eV)
  ---------------------------------------------------
  alpha Z        PSCENC =        33.39070328
  Ewald energy   TEWEN  =      4809.80180203
  -Hartree energ DENC   =     -7500.13344900
  -exchange      EXHF   =         0.00000000
  -V(xc)+E(xc)   XCENC  =       -68.13801141
  PAW double counting   =      2645.59571237    -2368.77444150
  entropy T*S    EENTRO =        -0.00153724
  eigenvalues    EBANDS =      -217.86840280
  atomic energy  EATOM  =      3168.68112882
  Solvation  Ediel_sol  =         0.00000000
  ---------------------------------------------------
  free energy    TOTEN  =       502.55350455 eV

  energy without entropy =      502.55504179  energy(sigma->0) =      502.55427317


--------------------------------------------------------------------------------------------------------




--------------------------------------- Iteration      1(   2)  ---------------------------------------


     EDDAV:  cpu time      5.8645: real time      5.8800
       DOS:  cpu time      0.0005: real time      0.0005
    --------------------------------------------
      LOOP:  cpu time      5.8650: real time      5.8805

 eigenvalue-minimisations  :  2272
 total energy-change (2. order) :-0.5279433E+03  (-0.5108151E+03)
 number of electron      90.0000000 magnetization 
 augmentation part       90.0000000 magnetization 

 Free energy of the ion-electron system (eV)
  ---------------------------------------------------
  alpha Z        PSCENC =        33.39070328
  Ewald energy   TEWEN  =      4809.80180203
  -Hartree energ DENC   =     -7500.13344900
  -exchange      EXHF   =         0.00000000
  -V(xc)+E(xc)   XCENC  =       -68.13801141
  PAW double counting   =      2645.59571237    -2368.77444150
  entropy T*S    EENTRO =        -0.00000000
  eigenvalues    EBANDS =      -745.81324593
  atomic energy  EATOM  =      3168.68112882
  Solvation  Ediel_sol  =         0.00000000
  ---------------------------------------------------
  free energy    TOTEN  =       -25.38980134 eV

  energy without entropy =      -25.38980134  energy(sigma->0) =      -25.38980134


--------------------------------------------------------------------------------------------------------




--------------------------------------- Iteration      1(   3)  ---------------------------------------


     EDDAV:  cpu time      5.1419: real time      5.1541
       DOS:  cpu time      0.0005: real time      0.0005
    --------------------------------------------
      LOOP:  cpu time      5.1424: real time      5.1546

 eigenvalue-minimisations  :  1920
 total energy-change (2. order) :-0.6771279E+02  (-0.6709172E+02)
 number of electron      90.0000000 magnetization 
 augmentation part       90.0000000 magnetization 

 Free energy of the ion-electron system (eV)
  ---------------------------------------------------
  alpha Z        PSCENC =        33.39070328
  Ewald energy   TEWEN  =      4809.80180203
  -Hartree energ DENC   =     -7500.13344900
  -exchange      EXHF   =         0.00000000
  -V(xc)+E(xc)   XCENC  =       -68.13801141
  PAW double counting   =      2645.59571237    -2368.77444150
  entropy T*S    EENTRO =        -0.00000000
  eigenvalues    EBANDS =      -813.52603397
  atomic energy  EATOM  =      3168.68112882
  Solvation  Ediel_sol  =         0.00000000
  ---------------------------------------------------
  free energy    TOTEN  =       -93.10258938 eV

  energy without entropy =      -93.10258938  energy(sigma->0) =      -93.10258938


--------------------------------------------------------------------------------------------------------




--------------------------------------- Iteration      1(   4)  ---------------------------------------


     EDDAV:  cpu time      6.8565: real time      6.8729
       DOS:  cpu time      0.0005: real time      0.0005
    --------------------------------------------
      LOOP:  cpu time      6.8571: real time      6.8734

 eigenvalue-minimisations  :  2752
 total energy-change (2. order) :-0.3924458E+01  (-0.3917411E+01)
 number of electron      90.0000000 magnetization 
 augmentation part       90.0000000 magnetization 

 Free energy of the ion-electron system (eV)
  ---------------------------------------------------
  alpha Z        PSCENC =        33.39070328
  Ewald energy   TEWEN  =      4809.80180203
  -Hartree energ DENC   =     -7500.13344900
  -exchange      EXHF   =         0.00000000
  -V(xc)+E(xc)   XCENC  =       -68.13801141
  PAW double counting   =      2645.59571237    -2368.77444150
  entropy T*S    EENTRO =        -0.00000000
  eigenvalues    EBANDS =      -817.45049242
  atomic energy  EATOM  =      3168.68112882
  Solvation  Ediel_sol  =         0.00000000
  ---------------------------------------------------
  free energy    TOTEN  =       -97.02704783 eV

  energy without entropy =      -97.02704783  energy(sigma->0) =      -97.02704783


--------------------------------------------------------------------------------------------------------




--------------------------------------- Iteration      1(   5)  ---------------------------------------


     EDDAV:  cpu time      5.8247: real time      5.8395
       DOS:  cpu time      0.0005: real time      0.0005
    --------------------------------------------
      LOOP:  cpu time      5.8252: real time      5.8400

 eigenvalue-minimisations  :  2256
 total energy-change (2. order) :-0.4374641E-01  (-0.4371835E-01)
 number of electron      90.0000000 magnetization 
 augmentation part       90.0000000 magnetization 

 Free energy of the ion-electron system (eV)
  ---------------------------------------------------
  alpha Z        PSCENC =        33.39070328
  Ewald energy   TEWEN  =      4809.80180203
  -Hartree energ DENC   =     -7500.13344900
  -exchange      EXHF   =         0.00000000
  -V(xc)+E(xc)   XCENC  =       -68.13801141
  PAW double counting   =      2645.59571237    -2368.77444150
  entropy T*S    EENTRO =        -0.00000000
  eigenvalues    EBANDS =      -817.49423883
  atomic energy  EATOM  =      3168.68112882
  Solvation  Ediel_sol  =         0.00000000
  ---------------------------------------------------
  free energy    TOTEN  =       -97.07079424 eV

  energy without entropy =      -97.07079424  energy(sigma->0) =      -97.07079424


--------------------------------------------------------------------------------------------------------




--------------------------------------- Iteration      1(   6)  ---------------------------------------


     EDDAV:  cpu time      6.9072: real time      6.9229
       DOS:  cpu time      0.0005: real time      0.0005
    --------------------------------------------
      LOOP:  cpu time      6.9078: real time      6.9235

 eigenvalue-minimisations  :  2784
 total energy-change (2. order) :-0.2386672E-02  (-0.2386376E-02)
 number of electron      90.0000000 magnetization 
 augmentation part       90.0000000 magnetization 

 Free energy of the ion-electron system (eV)
  ---------------------------------------------------
  alpha Z        PSCENC =        33.39070328
  Ewald energy   TEWEN  =      4809.80180203
  -Hartree energ DENC   =     -7500.13344900
  -exchange      EXHF   =         0.00000000
  -V(xc)+E(xc)   XCENC  =       -68.13801141
  PAW double counting   =      2645.59571237    -2368.77444150
  entropy T*S    EENTRO =        -0.00000000
  eigenvalues    EBANDS =      -817.49662550
  atomic energy  EATOM  =      3168.68112882
  Solvation  Ediel_sol  =         0.00000000
  ---------------------------------------------------
  free energy    TOTEN  =       -97.07318091 eV

  energy without entropy =      -97.07318091  energy(sigma->0) =      -97.07318091


--------------------------------------------------------------------------------------------------------




--------------------------------------- Iteration      1(   7)  ---------------------------------------


     EDDAV:  cpu time      7.6165: real time      7.6316
       DOS:  cpu time      0.0005: real time      0.0005
    --------------------------------------------
      LOOP:  cpu time      7.6171: real time      7.6321

 eigenvalue-minimisations  :  2400
 total energy-change (2. order) :-0.3313139E-04  (-0.3312921E-04)
 number of electron      90.0000000 magnetization 
 augmentation part       90.0000000 magnetization 

 Free energy of the ion-electron system (eV)
  ---------------------------------------------------
  alpha Z        PSCENC =        33.39070328
  Ewald energy   TEWEN  =      4809.80180203
  -Hartree energ DENC   =     -7500.13344900
  -exchange      EXHF   =         0.00000000
  -V(xc)+E(xc)   XCENC  =       -68.13801141
  PAW double counting   =      2645.59571237    -2368.77444150
  entropy T*S    EENTRO =        -0.00000000
  eigenvalues    EBANDS =      -817.49665864
  atomic energy  EATOM  =      3168.68112882
  Solvation  Ediel_sol  =         0.00000000
  ---------------------------------------------------
  free energy    TOTEN  =       -97.07321404 eV

  energy without entropy =      -97.07321404  energy(sigma->0) =      -97.07321404


--------------------------------------------------------------------------------------------------------




--------------------------------------- Iteration      1(   8)  ---------------------------------------


     EDDAV:  cpu time     20.0964: real time     20.1339
       DOS:  cpu time      0.0006: real time      0.0006
    --------------------------------------------
      LOOP:  cpu time     20.0970: real time     20.1345

 eigenvalue-minimisations  :  2768
 total energy-change (2. order) :-0.1375834E-05  (-0.1375472E-05)
 number of electron      90.0000000 magnetization 
 augmentation part       90.0000000 magnetization 

 Free energy of the ion-electron system (eV)
  ---------------------------------------------------
  alpha Z        PSCENC =        33.39070328
  Ewald energy   TEWEN  =      4809.80180203
  -Hartree energ DENC   =     -7500.13344900
  -exchange      EXHF   =         0.00000000
  -V(xc)+E(xc)   XCENC  =       -68.13801141
  PAW double counting   =      2645.59571237    -2368.77444150
  entropy T*S    EENTRO =        -0.00000000
  eigenvalues    EBANDS =      -817.49666001
  atomic energy  EATOM  =      3168.68112882
  Solvation  Ediel_sol  =         0.00000000
  ---------------------------------------------------
  free energy    TOTEN  =       -97.07321542 eV

  energy without entropy =      -97.07321542  energy(sigma->0) =      -97.07321542


--------------------------------------------------------------------------------------------------------




--------------------------------------- Iteration      1(   9)  ---------------------------------------


     EDDAV:  cpu time     17.3372: real time     17.3703
       DOS:  cpu time      0.0006: real time      0.0006
    --------------------------------------------
      LOOP:  cpu time     17.3379: real time     17.3710

 eigenvalue-minimisations  :  2192
 total energy-change (2. order) :-0.3870127E-07  (-0.3857234E-07)
 number of electron      90.0000000 magnetization 
 augmentation part       90.0000000 magnetization 

 Free energy of the ion-electron system (eV)
  ---------------------------------------------------
  alpha Z        PSCENC =        33.39070328
  Ewald energy   TEWEN  =      4809.80180203
  -Hartree energ DENC   =     -7500.13344900
  -exchange      EXHF   =         0.00000000
  -V(xc)+E(xc)   XCENC  =       -68.13801141
  PAW double counting   =      2645.59571237    -2368.77444150
  entropy T*S    EENTRO =        -0.00000000
  eigenvalues    EBANDS =      -817.49666005
  atomic energy  EATOM  =      3168.68112882
  Solvation  Ediel_sol  =         0.00000000
  ---------------------------------------------------
  free energy    TOTEN  =       -97.07321546 eV

  energy without entropy =      -97.07321546  energy(sigma->0) =      -97.07321546


--------------------------------------------------------------------------------------------------------




--------------------------------------- Iteration      1(  10)  ---------------------------------------


     EDDAV:  cpu time     15.5629: real time     15.5938
       DOS:  cpu time      0.0008: real time      0.0008
    --------------------------------------------
      LOOP:  cpu time     15.5637: real time     15.5946

 eigenvalue-minimisations  :  1968
 total energy-change (2. order) :-0.2070010E-08  (-0.1968547E-08)
 number of electron      90.0000000 magnetization 
 augmentation part       90.0000000 magnetization 

 Free energy of the ion-electron system (eV)
  ---------------------------------------------------
  alpha Z        PSCENC =        33.39070328
  Ewald energy   TEWEN  =      4809.80180203
  -Hartree energ DENC   =     -7500.13344900
  -exchange      EXHF   =         0.00000000
  -V(xc)+E(xc)   XCENC  =       -68.13801141
  PAW double counting   =      2645.59571237    -2368.77444150
  entropy T*S    EENTRO =        -0.00000000
  eigenvalues    EBANDS =      -817.49666005
  atomic energy  EATOM  =      3168.68112882
  Solvation  Ediel_sol  =         0.00000000
  ---------------------------------------------------
  free energy    TOTEN  =       -97.07321546 eV

  energy without entropy =      -97.07321546  energy(sigma->0) =      -97.07321546


--------------------------------------------------------------------------------------------------------




--------------------------------------- Iteration      1(  11)  ---------------------------------------


     EDDAV:  cpu time     12.0763: real time     12.0993
       DOS:  cpu time      0.0010: real time      0.0009
    --------------------------------------------
      LOOP:  cpu time     12.0773: real time     12.1003

 eigenvalue-minimisations  :  1376
 total energy-change (2. order) :-0.6343726E-09  (-0.2817840E-09)
 number of electron      90.0000000 magnetization 
 augmentation part       90.0000000 magnetization 

 Free energy of the ion-electron system (eV)
  ---------------------------------------------------
  alpha Z        PSCENC =        33.39070328
  Ewald energy   TEWEN  =      4809.80180203
  -Hartree energ DENC   =     -7500.13344900
  -exchange      EXHF   =         0.00000000
  -V(xc)+E(xc)   XCENC  =       -68.13801141
  PAW double counting   =      2645.59571237    -2368.77444150
  entropy T*S    EENTRO =        -0.00000000
  eigenvalues    EBANDS =      -817.49666005
  atomic energy  EATOM  =      3168.68112882
  Solvation  Ediel_sol  =         0.00000000
  ---------------------------------------------------
  free energy    TOTEN  =       -97.07321546 eV

  energy without entropy =      -97.07321546  energy(sigma->0) =      -97.07321546


--------------------------------------------------------------------------------------------------------




--------------------------------------- Iteration      1(  12)  ---------------------------------------


     EDDAV:  cpu time     12.0394: real time     12.0621
       DOS:  cpu time      0.0010: real time      0.0010
    CHARGE:  cpu time      0.8639: real time      0.8659
    MIXING:  cpu time      0.0357: real time      0.0357
    --------------------------------------------
      LOOP:  cpu time     12.9400: real time     12.9648

 eigenvalue-minimisations  :  1376
 total energy-change (2. order) :-0.2105480E-09  (-0.1237098E-09)
 number of electron      90.0000002 magnetization 
 augmentation part       -9.7906752 magnetization 

 Broyden mixing:
  rms(total) = 0.74607E+00    rms(broyden)= 0.74596E+00
  rms(prec ) = 0.82753E+00
  weight for this iteration     100.00

 Free energy of the ion-electron system (eV)
  ---------------------------------------------------
  alpha Z        PSCENC =        33.39070328
  Ewald energy   TEWEN  =      4809.80180203
  -Hartree energ DENC   =     -7500.13344900
  -exchange      EXHF   =         0.00000000
  -V(xc)+E(xc)   XCENC  =       -68.13801141
  PAW double counting   =      2645.59571237    -2368.77444150
  entropy T*S    EENTRO =        -0.00000000
  eigenvalues    EBANDS =      -817.49666005
  atomic energy  EATOM  =      3168.68112882
  Solvation  Ediel_sol  =         0.00000000
  ---------------------------------------------------
  free energy    TOTEN  =       -97.07321546 eV

  energy without entropy =      -97.07321546  energy(sigma->0) =      -97.07321546


--------------------------------------------------------------------------------------------------------




--------------------------------------- Iteration      1(  13)  ---------------------------------------


    POTLOK:  cpu time      0.1833: real time      0.1838
    SETDIJ:  cpu time      0.4438: real time      0.4444
     EDDAV:  cpu time     15.2098: real time     15.2389
       DOS:  cpu time      0.0006: real time      0.0006
    CHARGE:  cpu time      0.8927: real time      0.8944
    MIXING:  cpu time      0.0297: real time      0.0297
    --------------------------------------------
      LOOP:  cpu time     16.7598: real time     16.7920

 eigenvalue-minimisations  :  1920
 total energy-change (2. order) : 0.2353162E+00  (-0.3883769E-02)
 number of electron      90.0000002 magnetization 
 augmentation part       -9.7691792 magnetization 

 Broyden mixing:
  rms(total) = 0.66351E+00    rms(broyden)= 0.66351E+00
  rms(prec ) = 0.73460E+00
  weight for this iteration     100.00

 eigenvalues of (default mixing * dielectric matrix)
  average eigenvalue GAMMA=   8.8673
  8.8673

 Free energy of the ion-electron system (eV)
  ---------------------------------------------------
  alpha Z        PSCENC =        33.39070328
  Ewald energy   TEWEN  =      4809.80180203
  -Hartree energ DENC   =     -7508.06886152
  -exchange      EXHF   =         0.00000000
  -V(xc)+E(xc)   XCENC  =       -67.60353148
  PAW double counting   =      2702.49310345    -2425.85462479
  entropy T*S    EENTRO =        -0.00000000
  eigenvalues    EBANDS =      -809.67761906
  atomic energy  EATOM  =      3168.68112882
  Solvation  Ediel_sol  =         0.00000000
  ---------------------------------------------------
  free energy    TOTEN  =       -96.83789927 eV

  energy without entropy =      -96.83789927  energy(sigma->0) =      -96.83789927


--------------------------------------------------------------------------------------------------------




--------------------------------------- Iteration      1(  14)  ---------------------------------------


    POTLOK:  cpu time      0.1823: real time      0.1828
    SETDIJ:  cpu time      0.4336: real time      0.4343
     EDDAV:  cpu time     14.7894: real time     14.8190
       DOS:  cpu time      0.0010: real time      0.0010
    CHARGE:  cpu time      0.8084: real time      0.8101
    MIXING:  cpu time      0.0272: real time      0.0272
    --------------------------------------------
      LOOP:  cpu time     16.2419: real time     16.2744

 eigenvalue-minimisations  :  1840
 total energy-change (2. order) : 0.6887059E+00  (-0.2126477E+00)
 number of electron      90.0000002 magnetization 
 augmentation part       -9.6163713 magnetization 

 Broyden mixing:
  rms(total) = 0.88555E-01    rms(broyden)= 0.88552E-01
  rms(prec ) = 0.11092E+00
  weight for this iteration     100.00

 eigenvalues of (default mixing * dielectric matrix)
  average eigenvalue GAMMA=   7.5598
  6.7437  8.3759

 Free energy of the ion-electron system (eV)
  ---------------------------------------------------
  alpha Z        PSCENC =        33.39070328
  Ewald energy   TEWEN  =      4809.80180203
  -Hartree energ DENC   =     -7567.52499301
  -exchange      EXHF   =         0.00000000
  -V(xc)+E(xc)   XCENC  =       -63.27740507
  PAW double counting   =      3154.65736606    -2879.64509856
  entropy T*S    EENTRO =        -0.00000000
  eigenvalues    EBANDS =      -752.23269696
  atomic energy  EATOM  =      3168.68112882
  Solvation  Ediel_sol  =         0.00000000
  ---------------------------------------------------
  free energy    TOTEN  =       -96.14919341 eV

  energy without entropy =      -96.14919341  energy(sigma->0) =      -96.14919341


--------------------------------------------------------------------------------------------------------




--------------------------------------- Iteration      1(  15)  ---------------------------------------


    POTLOK:  cpu time      0.1876: real time      0.1881
    SETDIJ:  cpu time      0.4451: real time      0.4458
     EDDAV:  cpu time     14.6479: real time     14.6760
       DOS:  cpu time      0.0010: real time      0.0010
    CHARGE:  cpu time      0.8771: real time      0.8791
    MIXING:  cpu time      0.0248: real time      0.0249
    --------------------------------------------
      LOOP:  cpu time     16.1835: real time     16.2148

 eigenvalue-minimisations  :  1840
 total energy-change (2. order) : 0.4506676E-01  (-0.2883406E-01)
 number of electron      90.0000002 magnetization 
 augmentation part       -9.6778637 magnetization 

 Broyden mixing:
  rms(total) = 0.36128E-01    rms(broyden)= 0.36126E-01
  rms(prec ) = 0.39088E-01
  weight for this iteration     100.00

 eigenvalues of (default mixing * dielectric matrix)
  average eigenvalue GAMMA=   5.3890
  9.0446  6.4738  0.6485

 Free energy of the ion-electron system (eV)
  ---------------------------------------------------
  alpha Z        PSCENC =        33.39070328
  Ewald energy   TEWEN  =      4809.80180203
  -Hartree energ DENC   =     -7548.27780427
  -exchange      EXHF   =         0.00000000
  -V(xc)+E(xc)   XCENC  =       -63.57864003
  PAW double counting   =      3143.68817584    -2868.61944558
  entropy T*S    EENTRO =        -0.00000000
  eigenvalues    EBANDS =      -771.19004673
  atomic energy  EATOM  =      3168.68112882
  Solvation  Ediel_sol  =         0.00000000
  ---------------------------------------------------
  free energy    TOTEN  =       -96.10412665 eV

  energy without entropy =      -96.10412665  energy(sigma->0) =      -96.10412665


--------------------------------------------------------------------------------------------------------




--------------------------------------- Iteration      1(  16)  ---------------------------------------


    POTLOK:  cpu time      0.1719: real time      0.1722
    SETDIJ:  cpu time      0.4311: real time      0.4320
     EDDAV:  cpu time     16.7621: real time     16.7946
       DOS:  cpu time      0.0013: real time      0.0013
    CHARGE:  cpu time      0.8760: real time      0.8775
    MIXING:  cpu time      0.0262: real time      0.0262
    --------------------------------------------
      LOOP:  cpu time     18.2685: real time     18.3037

 eigenvalue-minimisations  :  2208
 total energy-change (2. order) :-0.2586439E-02  (-0.2651221E-02)
 number of electron      90.0000002 magnetization 
 augmentation part       -9.7017531 magnetization 

 Broyden mixing:
  rms(total) = 0.22257E-01    rms(broyden)= 0.22256E-01
  rms(prec ) = 0.26133E-01
  weight for this iteration     100.00

 eigenvalues of (default mixing * dielectric matrix)
  average eigenvalue GAMMA=   4.4181
  8.9214  6.1104  1.3203  1.3203

 Free energy of the ion-electron system (eV)
  ---------------------------------------------------
  alpha Z        PSCENC =        33.39070328
  Ewald energy   TEWEN  =      4809.80180203
  -Hartree energ DENC   =     -7546.40580080
  -exchange      EXHF   =         0.00000000
  -V(xc)+E(xc)   XCENC  =       -63.50231589
  PAW double counting   =      3155.19211018    -2880.15528028
  entropy T*S    EENTRO =        -0.00000000
  eigenvalues    EBANDS =      -773.10906043
  atomic energy  EATOM  =      3168.68112882
  Solvation  Ediel_sol  =         0.00000000
  ---------------------------------------------------
  free energy    TOTEN  =       -96.10671309 eV

  energy without entropy =      -96.10671309  energy(sigma->0) =      -96.10671309


--------------------------------------------------------------------------------------------------------




--------------------------------------- Iteration      1(  17)  ---------------------------------------


    POTLOK:  cpu time      0.1740: real time      0.1744
    SETDIJ:  cpu time      0.4280: real time      0.4288
     EDDAV:  cpu time     16.9980: real time     17.0295
       DOS:  cpu time      0.0007: real time      0.0007
    CHARGE:  cpu time      0.8952: real time      0.8969
    MIXING:  cpu time      0.0491: real time      0.0492
    --------------------------------------------
      LOOP:  cpu time     18.5451: real time     18.5795

 eigenvalue-minimisations  :  2192
 total energy-change (2. order) : 0.1258774E-02  (-0.4449758E-03)
 number of electron      90.0000002 magnetization 
 augmentation part       -9.6971037 magnetization 

 Broyden mixing:
  rms(total) = 0.18947E-01    rms(broyden)= 0.18947E-01
  rms(prec ) = 0.20766E-01
  weight for this iteration     100.00

 eigenvalues of (default mixing * dielectric matrix)
  average eigenvalue GAMMA=   5.0696
  9.3888  8.7851  5.1801  1.0469  0.9469

 Free energy of the ion-electron system (eV)
  ---------------------------------------------------
  alpha Z        PSCENC =        33.39070328
  Ewald energy   TEWEN  =      4809.80180203
  -Hartree energ DENC   =     -7548.60057037
  -exchange      EXHF   =         0.00000000
  -V(xc)+E(xc)   XCENC  =       -63.49806485
  PAW double counting   =      3154.22745357    -2879.17997371
  entropy T*S    EENTRO =        -0.00000000
  eigenvalues    EBANDS =      -770.92793308
  atomic energy  EATOM  =      3168.68112882
  Solvation  Ediel_sol  =         0.00000000
  ---------------------------------------------------
  free energy    TOTEN  =       -96.10545432 eV

  energy without entropy =      -96.10545432  energy(sigma->0) =      -96.10545432


--------------------------------------------------------------------------------------------------------




--------------------------------------- Iteration      1(  18)  ---------------------------------------


    POTLOK:  cpu time      0.1571: real time      0.1575
    SETDIJ:  cpu time      0.4448: real time      0.4456
     EDDAV:  cpu time     17.3787: real time     17.4121
       DOS:  cpu time      0.0007: real time      0.0007
    CHARGE:  cpu time      0.9138: real time      0.9160
    MIXING:  cpu time      0.0314: real time      0.0314
    --------------------------------------------
      LOOP:  cpu time     18.9264: real time     18.9633

 eigenvalue-minimisations  :  2272
 total energy-change (2. order) : 0.2286757E-03  (-0.2424529E-03)
 number of electron      90.0000002 magnetization 
 augmentation part       -9.7027817 magnetization 

 Broyden mixing:
  rms(total) = 0.29525E-02    rms(broyden)= 0.29519E-02
  rms(prec ) = 0.34493E-02
  weight for this iteration     100.00

 eigenvalues of (default mixing * dielectric matrix)
  average eigenvalue GAMMA=   4.4264
  9.8951  7.2515  5.5476  1.8059  0.9408  1.1175

 Free energy of the ion-electron system (eV)
  ---------------------------------------------------
  alpha Z        PSCENC =        33.39070328
  Ewald energy   TEWEN  =      4809.80180203
  -Hartree energ DENC   =     -7549.10850021
  -exchange      EXHF   =         0.00000000
  -V(xc)+E(xc)   XCENC  =       -63.49711335
  PAW double counting   =      3157.75993689    -2882.69147116
  entropy T*S    EENTRO =        -0.00000000
  eigenvalues    EBANDS =      -770.44171193
  atomic energy  EATOM  =      3168.68112882
  Solvation  Ediel_sol  =         0.00000000
  ---------------------------------------------------
  free energy    TOTEN  =       -96.10522564 eV

  energy without entropy =      -96.10522564  energy(sigma->0) =      -96.10522564


--------------------------------------------------------------------------------------------------------




--------------------------------------- Iteration      1(  19)  ---------------------------------------


    POTLOK:  cpu time      0.1751: real time      0.1757
    SETDIJ:  cpu time      0.3451: real time      0.3454
     EDDAV:  cpu time     16.2878: real time     16.3195
       DOS:  cpu time      0.0007: real time      0.0007
    CHARGE:  cpu time      0.5916: real time      0.5928
    MIXING:  cpu time      0.0059: real time      0.0059
    --------------------------------------------
      LOOP:  cpu time     17.4061: real time     17.4399

 eigenvalue-minimisations  :  2192
 total energy-change (2. order) :-0.9385506E-05  (-0.2106642E-04)
 number of electron      90.0000002 magnetization 
 augmentation part       -9.7030326 magnetization 

 Broyden mixing:
  rms(total) = 0.28965E-02    rms(broyden)= 0.28964E-02
  rms(prec ) = 0.32197E-02
  weight for this iteration     100.00

 eigenvalues of (default mixing * dielectric matrix)
  average eigenvalue GAMMA=   4.2044
  9.9055  6.8815  6.2270  3.6410  1.0933  0.9399  0.7424

 Free energy of the ion-electron system (eV)
  ---------------------------------------------------
  alpha Z        PSCENC =        33.39070328
  Ewald energy   TEWEN  =      4809.80180203
  -Hartree energ DENC   =     -7549.32456626
  -exchange      EXHF   =         0.00000000
  -V(xc)+E(xc)   XCENC  =       -63.48072135
  PAW double counting   =      3159.32442305    -2884.26212494
  entropy T*S    EENTRO =        -0.00000000
  eigenvalues    EBANDS =      -770.23587964
  atomic energy  EATOM  =      3168.68112882
  Solvation  Ediel_sol  =         0.00000000
  ---------------------------------------------------
  free energy    TOTEN  =       -96.10523503 eV

  energy without entropy =      -96.10523503  energy(sigma->0) =      -96.10523503


--------------------------------------------------------------------------------------------------------




--------------------------------------- Iteration      1(  20)  ---------------------------------------


    POTLOK:  cpu time      0.0845: real time      0.0846
    SETDIJ:  cpu time      0.3410: real time      0.3416
     EDDAV:  cpu time     16.6905: real time     16.7213
       DOS:  cpu time      0.0007: real time      0.0007
    CHARGE:  cpu time      0.8675: real time      0.8696
    MIXING:  cpu time      0.0318: real time      0.0318
    --------------------------------------------
      LOOP:  cpu time     18.0160: real time     18.0496

 eigenvalue-minimisations  :  2384
 total energy-change (2. order) : 0.2718434E-07  (-0.2316426E-05)
 number of electron      90.0000002 magnetization 
 augmentation part       -9.7034289 magnetization 

 Broyden mixing:
  rms(total) = 0.15276E-02    rms(broyden)= 0.15275E-02
  rms(prec ) = 0.17089E-02
  weight for this iteration     100.00

 eigenvalues of (default mixing * dielectric matrix)
  average eigenvalue GAMMA=   4.4916
 10.4289  8.6031  7.6706  5.0683  0.9133  1.0345  1.0345  1.1792

 Free energy of the ion-electron system (eV)
  ---------------------------------------------------
  alpha Z        PSCENC =        33.39070328
  Ewald energy   TEWEN  =      4809.80180203
  -Hartree energ DENC   =     -7549.23506043
  -exchange      EXHF   =         0.00000000
  -V(xc)+E(xc)   XCENC  =       -63.48986273
  PAW double counting   =      3159.05867327    -2883.98954459
  entropy T*S    EENTRO =        -0.00000000
  eigenvalues    EBANDS =      -770.32307464
  atomic energy  EATOM  =      3168.68112882
  Solvation  Ediel_sol  =         0.00000000
  ---------------------------------------------------
  free energy    TOTEN  =       -96.10523500 eV

  energy without entropy =      -96.10523500  energy(sigma->0) =      -96.10523500


--------------------------------------------------------------------------------------------------------




--------------------------------------- Iteration      1(  21)  ---------------------------------------


    POTLOK:  cpu time      0.1738: real time      0.1742
    SETDIJ:  cpu time      0.4385: real time      0.4391
     EDDAV:  cpu time     13.4357: real time     13.4616
       DOS:  cpu time      0.0012: real time      0.0012
    CHARGE:  cpu time      0.8805: real time      0.8822
    MIXING:  cpu time      0.0340: real time      0.0340
    --------------------------------------------
      LOOP:  cpu time     14.9636: real time     14.9924

 eigenvalue-minimisations  :  1904
 total energy-change (2. order) : 0.6249211E-06  (-0.4314573E-05)
 number of electron      90.0000002 magnetization 
 augmentation part       -9.7039188 magnetization 

 Broyden mixing:
  rms(total) = 0.44344E-03    rms(broyden)= 0.44328E-03
  rms(prec ) = 0.51358E-03
  weight for this iteration     100.00

 eigenvalues of (default mixing * dielectric matrix)
  average eigenvalue GAMMA=   4.8180
 10.0866  8.1854  8.1854  7.9434  4.9809  1.0257  1.0257  0.9643  0.9643

 Free energy of the ion-electron system (eV)
  ---------------------------------------------------
  alpha Z        PSCENC =        33.39070328
  Ewald energy   TEWEN  =      4809.80180203
  -Hartree energ DENC   =     -7549.02022061
  -exchange      EXHF   =         0.00000000
  -V(xc)+E(xc)   XCENC  =       -63.50021694
  PAW double counting   =      3158.72270643    -2883.64673626
  entropy T*S    EENTRO =        -0.00000000
  eigenvalues    EBANDS =      -770.53440112
  atomic energy  EATOM  =      3168.68112882
  Solvation  Ediel_sol  =         0.00000000
  ---------------------------------------------------
  free energy    TOTEN  =       -96.10523437 eV

  energy without entropy =      -96.10523437  energy(sigma->0) =      -96.10523437


--------------------------------------------------------------------------------------------------------




--------------------------------------- Iteration      1(  22)  ---------------------------------------


    POTLOK:  cpu time      0.1841: real time      0.1845
    SETDIJ:  cpu time      0.4236: real time      0.4245
     EDDAV:  cpu time     15.2107: real time     15.2395
       DOS:  cpu time      0.0006: real time      0.0006
    CHARGE:  cpu time      0.5904: real time      0.5916
    MIXING:  cpu time      0.0064: real time      0.0065
    --------------------------------------------
      LOOP:  cpu time     16.4158: real time     16.4471

 eigenvalue-minimisations  :  1984
 total energy-change (2. order) : 0.1752432E-05  (-0.6149662E-06)
 number of electron      90.0000002 magnetization 
 augmentation part       -9.7039188 magnetization 

 Broyden mixing:
  rms(total) = 0.30803E-03    rms(broyden)= 0.30796E-03
  rms(prec ) = 0.34923E-03
  weight for this iteration     100.00

 eigenvalues of (default mixing * dielectric matrix)
  average eigenvalue GAMMA=   4.6496
 10.9224 10.0096  8.2370  7.2200  5.0075  0.9512  0.9599  1.0235  1.0235  1.1415

 Free energy of the ion-electron system (eV)
  ---------------------------------------------------
  alpha Z        PSCENC =        33.39070328
  Ewald energy   TEWEN  =      4809.80180203
  -Hartree energ DENC   =     -7549.00326360
  -exchange      EXHF   =         0.00000000
  -V(xc)+E(xc)   XCENC  =       -63.50119703
  PAW double counting   =      3158.50035956    -2883.42331658
  entropy T*S    EENTRO =        -0.00000000
  eigenvalues    EBANDS =      -770.55144910
  atomic energy  EATOM  =      3168.68112882
  Solvation  Ediel_sol  =         0.00000000
  ---------------------------------------------------
  free energy    TOTEN  =       -96.10523262 eV

  energy without entropy =      -96.10523262  energy(sigma->0) =      -96.10523262


--------------------------------------------------------------------------------------------------------




--------------------------------------- Iteration      1(  23)  ---------------------------------------


    POTLOK:  cpu time      0.0851: real time      0.0852
    SETDIJ:  cpu time      0.4119: real time      0.4127
     EDDAV:  cpu time     15.5606: real time     15.6318
       DOS:  cpu time      0.0005: real time      0.0005
    --------------------------------------------
      LOOP:  cpu time     16.0581: real time     16.1303

 eigenvalue-minimisations  :  2192
 total energy-change (2. order) :-0.7611379E-07  (-0.8565455E-07)
 number of electron      90.0000002 magnetization 
 augmentation part       -9.7039188 magnetization 

 Free energy of the ion-electron system (eV)
  ---------------------------------------------------
  alpha Z        PSCENC =        33.39070328
  Ewald energy   TEWEN  =      4809.80180203
  -Hartree energ DENC   =     -7549.01485202
  -exchange      EXHF   =         0.00000000
  -V(xc)+E(xc)   XCENC  =       -63.50321363
  PAW double counting   =      3158.37806552    -2883.29893002
  entropy T*S    EENTRO =        -0.00000000
  eigenvalues    EBANDS =      -770.53993668
  atomic energy  EATOM  =      3168.68112882
  Solvation  Ediel_sol  =         0.00000000
  ---------------------------------------------------
  free energy    TOTEN  =       -96.10523270 eV

  energy without entropy =      -96.10523270  energy(sigma->0) =      -96.10523270


--------------------------------------------------------------------------------------------------------




 average (electrostatic) potential at core
  the test charge radii are     1.0220
  (the norm of the test charge is              1.0000)
       1 -82.5746       2 -82.5746       3 -82.5746       4 -82.5746       5 -82.5746
       6 -82.5746       7 -82.5746       8 -82.5746       9 -82.5746      10 -82.5746
      11 -82.5746      12 -82.5746      13 -82.5746      14 -82.5746      15 -82.5746
      16 -82.5746      17 -82.5746      18 -82.5746
 
 
 
 E-fermi :  -3.3333     XC(G=0):  -3.2863     alpha+bet : -2.8518

 Fermi energy:        -3.3332927158

 k-point     1 :       0.0000    0.0000    0.0000
  band No.  band energies     occupation 
      1     -17.4730      2.00000
      2     -15.7479      2.00000
      3     -15.7479      2.00000
      4     -15.7479      2.00000
      5     -15.7479      2.00000
      6     -15.7479      2.00000
      7     -15.7479      2.00000
      8     -13.0045      2.00000
      9     -13.0045      2.00000
     10     -13.0045      2.00000
     11     -13.0045      2.00000
     12     -10.4006      2.00000
     13     -10.4006      2.00000
     14     -10.4006      2.00000
     15     -10.4006      2.00000
     16     -10.4006      2.00000
     17     -10.4006      2.00000
     18      -9.7592      2.00000
     19      -8.6986      2.00000
     20      -8.6986      2.00000
     21      -7.4003      2.00000
     22      -7.4003      2.00000
     23      -7.4003      2.00000
     24      -7.4003      2.00000
     25      -7.4003      2.00000
     26      -7.4003      2.00000
     27      -5.2693      2.00000
     28      -5.2693      2.00000
     29      -5.2693      2.00000
     30      -5.2693      2.00000
     31      -5.2693      2.00000
     32      -5.2693      2.00000
     33      -5.0904      2.00000
     34      -5.0904      2.00000
     35      -5.0904      2.00000
     36      -5.0904      2.00000
     37      -3.7666      2.00000
     38      -3.6348      2.00000
     39      -3.6348      2.00000
     40      -3.6348      2.00000
     41      -3.6348      2.00000
     42      -3.6348      2.00000
     43      -3.6348      2.00000
     44      -3.4968      2.00000
     45      -3.4968      2.00000
     46      -1.4399      0.00000
     47      -1.4399      0.00000
     48      -1.4399      0.00000
     49      -1.4399      0.00000
     50      -1.4399      0.00000
     51      -1.4399      0.00000
     52      -1.1851      0.00000
     53      -1.1851      0.00000
     54       0.3741      0.00000
     55       0.5271      0.00000
     56       0.5271      0.00000
     57       0.7479      0.00000
     58       0.7479      0.00000
     59       0.7479      0.00000
     60       0.7479      0.00000
     61       0.7479      0.00000
     62       0.7479      0.00000
     63       2.0389      0.00000
     64       2.0511      0.00000

 k-point     2 :       0.2000    0.0000    0.0000
  band No.  band energies     occupation 
      1     -17.4015      2.00000
      2     -16.3505      2.00000
      3     -16.0108      2.00000
      4     -16.0108      2.00000
      5     -15.3618      2.00000
      6     -15.3618      2.00000
      7     -15.0686      2.00000
      8     -13.6414      2.00000
      9     -13.6414      2.00000
     10     -12.4214      2.00000
     11     -12.4214      2.00000
     12     -11.3976      2.00000
     13     -10.9030      2.00000
     14     -10.9030      2.00000
     15      -9.9682      2.00000
     16      -9.9682      2.00000
     17      -9.7114      2.00000
     18      -9.6295      2.00000
     19      -8.4698      2.00000
     20      -8.4698      2.00000
     21      -7.4285      2.00000
     22      -7.4285      2.00000
     23      -7.3739      2.00000
     24      -7.1906      2.00000
     25      -7.1906      2.00000
     26      -6.9956      2.00000
     27      -5.7955      2.00000
     28      -5.7955      2.00000
     29      -5.5960      2.00000
     30      -5.5960      2.00000
     31      -5.5056      2.00000
     32      -5.5013      2.00000
     33      -5.5013      2.00000
     34      -4.9284      2.00000
     35      -4.6665      2.00000
     36      -4.6665      2.00000
     37      -4.1379      2.00000
     38      -4.1012      2.00000
     39      -3.8241      2.00000
     40      -3.8241      2.00000
     41      -3.7244      2.00000
     42      -3.6605      2.00000
     43      -3.4588      2.00000
     44      -3.4588      2.00000
     45      -3.4134      2.00000
     46      -1.4200      0.00000
     47      -1.2264      0.00000
     48      -1.0448      0.00000
     49      -1.0448      0.00000
     50      -0.9829      0.00000
     51      -0.9829      0.00000
     52      -0.9751      0.00000
     53      -0.9751      0.00000
     54       0.3065      0.00000
     55       0.3249      0.00000
     56       0.6078      0.00000
     57       0.6078      0.00000
     58       0.7361      0.00000
     59       0.9811      0.00000
     60       1.2329      0.00000
     61       1.2329      0.00000
     62       1.4505      0.00000
     63       1.6565      0.00000
     64       1.6574      0.00000

 k-point     3 :       0.4000    0.0000    0.0000
  band No.  band energies     occupation 
      1     -17.1880      2.00000
      2     -16.8355      2.00000
      3     -16.1437      2.00000
      4     -16.1437      2.00000
      5     -14.8651      2.00000
      6     -14.8651      2.00000
      7     -14.4720      2.00000
      8     -14.2794      2.00000
      9     -14.2794      2.00000
     10     -12.1887      2.00000
     11     -11.9010      2.00000
     12     -11.9010      2.00000
     13     -11.4061      2.00000
     14     -11.4061      2.00000
     15      -9.7179      2.00000
     16      -9.7179      2.00000
     17      -9.5846      2.00000
     18      -9.4602      2.00000
     19      -7.8506      2.00000
     20      -7.8506      2.00000
     21      -7.2660      2.00000
     22      -7.2660      2.00000
     23      -7.1367      2.00000
     24      -7.1367      2.00000
     25      -6.5694      2.00000
     26      -6.5603      2.00000
     27      -6.4099      2.00000
     28      -6.4099      2.00000
     29      -6.1105      2.00000
     30      -6.1105      2.00000
     31      -6.0000      2.00000
     32      -6.0000      2.00000
     33      -5.6260      2.00000
     34      -5.3201      2.00000
     35      -4.6293      2.00000
     36      -4.5063      2.00000
     37      -4.3289      2.00000
     38      -4.3289      2.00000
     39      -4.0502      2.00000
     40      -4.0499      2.00000
     41      -4.0499      2.00000
     42      -3.6097      2.00000
     43      -3.4674      2.00000
     44      -3.3789      2.00000
     45      -3.3789      2.00000
     46      -1.3727      0.00000
     47      -0.7476      0.00000
     48      -0.4967      0.00000
     49      -0.4967      0.00000
     50      -0.3288      0.00000
     51      -0.3288      0.00000
     52      -0.1748      0.00000
     53      -0.1138      0.00000
     54      -0.1138      0.00000
     55       0.1876      0.00000
     56       0.6175      0.00000
     57       0.6175      0.00000
     58       1.0593      0.00000
     59       1.0593      0.00000
     60       1.0777      0.00000
     61       1.0777      0.00000
     62       1.2196      0.00000
     63       1.5149      0.00000
     64       1.5149      0.00000

 k-point     4 :       0.2000    0.2000    0.0000
  band No.  band energies     occupation 
      1     -17.2590      2.00000
      2     -16.5566      2.00000
      3     -16.5566      2.00000
      4     -15.5443      2.00000
      5     -15.5443      2.00000
      6     -14.6858      2.00000
      7     -14.6858      2.00000
      8     -14.2964      2.00000
      9     -13.8689      2.00000
     10     -12.3686      2.00000
     11     -11.8413      2.00000
     12     -11.8413      2.00000
     13     -11.7547      2.00000
     14     -10.4687      2.00000
     15     -10.4687      2.00000
     16      -9.6235      2.00000
     17      -9.4787      2.00000
     18      -9.4787      2.00000
     19      -8.1289      2.00000
     20      -7.9674      2.00000
     21      -7.2307      2.00000
     22      -7.2307      2.00000
     23      -7.0560      2.00000
     24      -7.0560      2.00000
     25      -6.7953      2.00000
     26      -6.7953      2.00000
     27      -6.4312      2.00000
     28      -6.4312      2.00000
     29      -6.1434      2.00000
     30      -5.9061      2.00000
     31      -5.9061      2.00000
     32      -5.7605      2.00000
     33      -5.0748      2.00000
     34      -5.0748      2.00000
     35      -4.9323      2.00000
     36      -4.6713      2.00000
     37      -4.3752      2.00000
     38      -4.3752      2.00000
     39      -4.2089      2.00000
     40      -4.0112      2.00000
     41      -3.6457      2.00000
     42      -3.5806      2.00000
     43      -3.5806      2.00000
     44      -3.4017      2.00000
     45      -3.4017      2.00000
     46      -0.9368      0.00000
     47      -0.9368      0.00000
     48      -0.6490      0.00000
     49      -0.6156      0.00000
     50      -0.6156      0.00000
     51      -0.6136      0.00000
     52      -0.3352      0.00000
     53      -0.3352      0.00000
     54       0.2305      0.00000
     55       0.2305      0.00000
     56       0.3260      0.00000
     57       0.6380      0.00000
     58       0.9702      0.00000
     59       0.9702      0.00000
     60       1.0696      0.00000
     61       1.4898      0.00000
     62       1.5374      0.00000
     63       1.5590      0.00000
     64       1.6160      0.00000

 k-point     5 :       0.4000    0.2000    0.0000
  band No.  band energies     occupation 
      1     -16.9759      2.00000
      2     -16.9759      2.00000
      3     -16.6256      2.00000
      4     -15.6060      2.00000
      5     -14.9636      2.00000
      6     -14.9636      2.00000
      7     -14.3073      2.00000
      8     -14.2573      2.00000
      9     -14.2573      2.00000
     10     -12.3169      2.00000
     11     -12.1768      2.00000
     12     -12.1768      2.00000
     13     -11.0730      2.00000
     14     -11.0730      2.00000
     15     -10.2830      2.00000
     16      -9.4905      2.00000
     17      -9.4905      2.00000
     18      -9.4444      2.00000
     19      -7.4897      2.00000
     20      -7.4897      2.00000
     21      -7.2005      2.00000
     22      -7.2005      2.00000
     23      -7.1015      2.00000
     24      -6.8573      2.00000
     25      -6.8121      2.00000
     26      -6.6594      2.00000
     27      -6.6594      2.00000
     28      -6.6198      2.00000
     29      -6.0579      2.00000
     30      -6.0579      2.00000
     31      -6.0242      2.00000
     32      -6.0242      2.00000
     33      -5.8538      2.00000
     34      -5.3262      2.00000
     35      -4.7013      2.00000
     36      -4.5681      2.00000
     37      -4.5681      2.00000
     38      -4.5528      2.00000
     39      -4.5528      2.00000
     40      -3.8266      2.00000
     41      -3.8266      2.00000
     42      -3.5143      2.00000
     43      -3.5143      2.00000
     44      -3.4953      2.00000
     45      -3.4047      2.00000
     46      -0.8692      0.00000
     47      -0.1948      0.00000
     48      -0.1948      0.00000
     49      -0.1423      0.00000
     50      -0.1423      0.00000
     51      -0.0978      0.00000
     52      -0.0978      0.00000
     53       0.1075      0.00000
     54       0.1320      0.00000
     55       0.2438      0.00000
     56       0.3152      0.00000
     57       0.3152      0.00000
     58       0.4577      0.00000
     59       0.6189      0.00000
     60       0.6189      0.00000
     61       0.9454      0.00000
     62       1.0995      0.00000
     63       1.0995      0.00000
     64       1.6016      0.00000

 k-point     6 :       0.0000    0.0000    0.3333
  band No.  band energies     occupation 
      1     -17.4730      2.00000
      2     -15.7479      2.00000
      3     -15.7479      2.00000
      4     -15.7479      2.00000
      5     -15.7479      2.00000
      6     -15.7479      2.00000
      7     -15.7479      2.00000
      8     -13.0047      2.00000
      9     -13.0047      2.00000
     10     -13.0047      2.00000
     11     -13.0047      2.00000
     12     -10.4007      2.00000
     13     -10.4007      2.00000
     14     -10.4007      2.00000
     15     -10.4006      2.00000
     16     -10.4006      2.00000
     17     -10.4006      2.00000
     18      -9.7592      2.00000
     19      -8.6989      2.00000
     20      -8.6989      2.00000
     21      -7.4004      2.00000
     22      -7.4004      2.00000
     23      -7.4004      2.00000
     24      -7.4003      2.00000
[...]
      6.564687  1.895062  8.621075    -0.009362   -0.169094    0.000000  
     -1.641172  4.737655  8.621075    -0.050440    0.098621   -0.000000  
      1.641172  4.737655  8.621075     0.284771    0.070044    0.000000  
      4.923515  4.737655  8.621075     0.104372   -0.168665   -0.000000  
     -3.282343  7.580248  8.621075    -0.275409    0.099049    0.000000  
      0.000000  7.580248  8.621075    -0.099801   -0.205969   -0.000000  
      3.282343  7.580248  8.621075     0.038265    0.106919    0.000000  
 
  44 f  =    3.757572 THz    23.609519 2PiTHz  125.339101 cm-1    15.540061 meV
             X         Y         Z           dx          dy          dz
      1.641172  0.947531  7.378925     0.188630   -0.155707   -0.000000  
      4.923515  0.947531  7.378925     0.269673   -0.033632    0.000000  
      8.205859  0.947531  7.378925     0.054972    0.189339   -0.000000  
      0.000000  3.790124  7.378925     0.096910   -0.098935    0.000000  
      3.282343  3.790124  7.378925     0.069415   -0.164855    0.000000  
      6.564687  3.790124  7.378925    -0.026540    0.263790   -0.000000  
     -1.641172  6.632717  7.378925    -0.124387   -0.024484    0.000000  
      1.641172  6.632717  7.378925    -0.162090   -0.108083   -0.000000  
      4.923515  6.632717  7.378925    -0.366583    0.132567    0.000000  
      0.000000  1.895062  8.621075     0.221317   -0.089275   -0.000000  
      3.282343  1.895062  8.621075     0.219250   -0.175935    0.000000  
      6.564687  1.895062  8.621075     0.114247    0.265211   -0.000000  
     -1.641172  4.737655  8.621075     0.110026   -0.004757   -0.000000  
      1.641172  4.737655  8.621075     0.085213   -0.130815    0.000000  
      4.923515  4.737655  8.621075    -0.120687    0.135572   -0.000000  
     -3.282343  7.580248  8.621075    -0.199460   -0.134396    0.000000  
      0.000000  7.580248  8.621075    -0.100630   -0.046297    0.000000  
      3.282343  7.580248  8.621075    -0.329276    0.180693    0.000000  
 
  45 f  =    3.757572 THz    23.609519 2PiTHz  125.339101 cm-1    15.540061 meV
             X         Y         Z           dx          dy          dz
      1.641172  0.947531  7.378925    -0.142612    0.223334   -0.000000  
      4.923515  0.947531  7.378925     0.033953   -0.036355   -0.000000  
      8.205859  0.947531  7.378925    -0.244640   -0.186979   -0.000000  
      0.000000  3.790124  7.378925    -0.068502   -0.070181   -0.000000  
      3.282343  3.790124  7.378925     0.264207   -0.059419    0.000000  
      6.564687  3.790124  7.378925     0.181709    0.129601   -0.000000  
     -1.641172  6.632717  7.378925    -0.019568    0.246399    0.000000  
      1.641172  6.632717  7.378925    -0.039097   -0.352935    0.000000  
      4.923515  6.632717  7.378925     0.034550    0.106536   -0.000000  
      0.000000  1.895062  8.621075    -0.309266   -0.061945    0.000000  
      3.282343  1.895062  8.621075     0.034340   -0.035146   -0.000000  
      6.564687  1.895062  8.621075    -0.054509    0.097091   -0.000000  
     -1.641172  4.737655  8.621075     0.105135    0.238199    0.000000  
      1.641172  4.737655  8.621075     0.095914   -0.346117   -0.000000  
      4.923515  4.737655  8.621075     0.192855    0.107918    0.000000  
     -3.282343  7.580248  8.621075    -0.041405    0.249026   -0.000000  
      0.000000  7.580248  8.621075     0.116411   -0.045974    0.000000  
      3.282343  7.580248  8.621075    -0.139475   -0.203053    0.000000  
 
  46 f  =    2.575910 THz    16.184919 2PiTHz   85.923104 cm-1    10.653102 meV
             X         Y         Z           dx          dy          dz
      1.641172  0.947531  7.378925    -0.042281   -0.143631   -0.090881  
      4.923515  0.947531  7.378925     0.031855   -0.076880   -0.226266  
      8.205859  0.947531  7.378925     0.010426   -0.026974   -0.118174  
      0.000000  3.790124  7.378925    -0.116956    0.059847   -0.010396  
      3.282343  3.790124  7.378925     0.052595    0.071509   -0.295459  
      6.564687  3.790124  7.378925     0.064361    0.102251    0.151127  
     -1.641172  6.632717  7.378925    -0.063021   -0.044536    0.413634  
      1.641172  6.632717  7.378925    -0.022080    0.041380   -0.060246  
      4.923515  6.632717  7.378925     0.085101    0.017034    0.236662  
      0.000000  1.895062  8.621075     0.008331   -0.011585   -0.127228  
      3.282343  1.895062  8.621075     0.023328    0.045651   -0.338281  
      6.564687  1.895062  8.621075    -0.031660   -0.074990   -0.137535  
     -1.641172  4.737655  8.621075     0.043246   -0.090689    0.337982  
      1.641172  4.737655  8.621075     0.065398   -0.037584   -0.189181  
      4.923515  4.737655  8.621075    -0.108644   -0.089489    0.062973  
     -3.282343  7.580248  8.621075    -0.033738    0.112574    0.326716  
      0.000000  7.580248  8.621075     0.100313    0.101074    0.064255  
      3.282343  7.580248  8.621075    -0.066575    0.045038    0.000300  
 
  47 f  =    2.575910 THz    16.184919 2PiTHz   85.923104 cm-1    10.653102 meV
             X         Y         Z           dx          dy          dz
      1.641172  0.947531  7.378925    -0.046892   -0.009754    0.012164  
      4.923515  0.947531  7.378925     0.018841   -0.130906    0.061536  
      8.205859  0.947531  7.378925     0.028051   -0.054409    0.152332  
      0.000000  3.790124  7.378925     0.029253   -0.005930    0.085578  
      3.282343  3.790124  7.378925    -0.118947   -0.003569   -0.292584  
      6.564687  3.790124  7.378925     0.089694   -0.042213   -0.361708  
     -1.641172  6.632717  7.378925     0.090895    0.057978    0.140251  
      1.641172  6.632717  7.378925    -0.042802    0.051967    0.349545  
      4.923515  6.632717  7.378925    -0.048093    0.136836   -0.147114  
      0.000000  1.895062  8.621075     0.027241    0.005737    0.105365  
      3.282343  1.895062  8.621075     0.003720    0.089952   -0.139872  
      6.564687  1.895062  8.621075    -0.030961    0.130039   -0.081139  
     -1.641172  4.737655  8.621075    -0.109508   -0.065588   -0.061842  
      1.641172  4.737655  8.621075     0.088412   -0.109224    0.086352  
      4.923515  4.737655  8.621075     0.021096   -0.050294   -0.452432  
     -3.282343  7.580248  8.621075    -0.057451   -0.020815   -0.005213  
      0.000000  7.580248  8.621075    -0.048337    0.044557    0.347067  
      3.282343  7.580248  8.621075     0.105789   -0.024363    0.201713  
 
  48 f  =    2.575910 THz    16.184919 2PiTHz   85.923104 cm-1    10.653102 meV
             X         Y         Z           dx          dy          dz
      1.641172  0.947531  7.378925    -0.057482   -0.041354   -0.140195  
      4.923515  0.947531  7.378925     0.068025    0.009343   -0.165852  
      8.205859  0.947531  7.378925    -0.010543   -0.126442    0.261167  
      0.000000  3.790124  7.378925     0.039675   -0.027073   -0.225140  
      3.282343  3.790124  7.378925     0.049177    0.090600   -0.015583  
      6.564687  3.790124  7.378925    -0.088852   -0.010855   -0.041890  
     -1.641172  6.632717  7.378925    -0.038634    0.035842   -0.245583  
      1.641172  6.632717  7.378925     0.146334    0.052209    0.182084  
      4.923515  6.632717  7.378925    -0.107700    0.017730    0.390992  
      0.000000  1.895062  8.621075     0.083406    0.084476   -0.043907  
      3.282343  1.895062  8.621075    -0.000384   -0.037381   -0.223337  
      6.564687  1.895062  8.621075    -0.083021    0.032695    0.028916  
     -1.641172  4.737655  8.621075     0.045036    0.026236   -0.261990  
      1.641172  4.737655  8.621075    -0.064021   -0.081034   -0.035104  
      4.923515  4.737655  8.621075     0.018985   -0.106591    0.188293  
     -3.282343  7.580248  8.621075     0.147042    0.048338    0.006188  
      0.000000  7.580248  8.621075    -0.102391    0.022115   -0.144386  
      3.282343  7.580248  8.621075    -0.044651    0.011145    0.485327  
 
  49 f  =    2.575910 THz    16.184919 2PiTHz   85.923104 cm-1    10.653102 meV
             X         Y         Z           dx          dy          dz
      1.641172  0.947531  7.378925    -0.106180    0.058375   -0.021976  
      4.923515  0.947531  7.378925    -0.003493    0.017376   -0.424013  
      8.205859  0.947531  7.378925     0.109672    0.019735    0.016566  
      0.000000  3.790124  7.378925     0.035209   -0.002616    0.454656  
      3.282343  3.790124  7.378925    -0.090342    0.088159    0.099359  
      6.564687  3.790124  7.378925     0.055133    0.071864   -0.025401  
     -1.641172  6.632717  7.378925    -0.019331   -0.107894   -0.115925  
      1.641172  6.632717  7.378925     0.051047   -0.130239    0.047378  
      4.923515  6.632717  7.378925    -0.031716   -0.014761   -0.030643  
      0.000000  1.895062  8.621075     0.004161   -0.113294    0.273672  
      3.282343  1.895062  8.621075     0.099489   -0.090135   -0.191429  
      6.564687  1.895062  8.621075    -0.103650   -0.051562   -0.227086  
     -1.641172  4.737655  8.621075    -0.103206    0.080403    0.191050  
      1.641172  4.737655  8.621075     0.071882    0.057513    0.353467  
      4.923515  4.737655  8.621075     0.031325    0.002219   -0.001880  
     -3.282343  7.580248  8.621075     0.031769   -0.005951   -0.126381  
      0.000000  7.580248  8.621075    -0.035486    0.111075   -0.271792  
      3.282343  7.580248  8.621075     0.003717    0.009731    0.000379  
 
  50 f  =    2.575910 THz    16.184919 2PiTHz   85.923104 cm-1    10.653102 meV
             X         Y         Z           dx          dy          dz
      1.641172  0.947531  7.378925     0.048155   -0.051826    0.353205  
      4.923515  0.947531  7.378925    -0.149340   -0.022280   -0.110377  
      8.205859  0.947531  7.378925     0.101185   -0.064066   -0.254190  
      0.000000  3.790124  7.378925     0.085271   -0.015723   -0.101137  
      3.282343  3.790124  7.378925    -0.025006   -0.036533    0.179389  
      6.564687  3.790124  7.378925    -0.060265    0.086679   -0.346495  
     -1.641172  6.632717  7.378925    -0.076180    0.100600    0.074801  
      1.641172  6.632717  7.378925     0.012111   -0.034853   -0.006711  
      4.923515  6.632717  7.378925     0.064069    0.038003    0.211514  
      0.000000  1.895062  8.621075    -0.144031    0.047233    0.001246  
      3.282343  1.895062  8.621075     0.105017   -0.003194    0.233675  
      6.564687  1.895062  8.621075     0.039014    0.038128   -0.425194  
     -1.641172  4.737655  8.621075    -0.044623   -0.085329   -0.227886  
      1.641172  4.737655  8.621075    -0.063178    0.018744    0.079581  
      4.923515  4.737655  8.621075     0.107802   -0.076756    0.024403  
     -3.282343  7.580248  8.621075     0.024164   -0.056872    0.345613  
      0.000000  7.580248  8.621075     0.036229    0.029523   -0.025649  
      3.282343  7.580248  8.621075    -0.060393    0.088523   -0.005789  
 
  51 f  =    2.575910 THz    16.184919 2PiTHz   85.923104 cm-1    10.653102 meV
             X         Y         Z           dx          dy          dz
      1.641172  0.947531  7.378925     0.087471   -0.002440   -0.350664  
      4.923515  0.947531  7.378925    -0.014934   -0.067840    0.042479  
      8.205859  0.947531  7.378925    -0.072536   -0.066071   -0.325574  
      0.000000  3.790124  7.378925     0.062573    0.154696   -0.034690  
      3.282343  3.790124  7.378925    -0.020370    0.078060    0.247117  
      6.564687  3.790124  7.378925    -0.042204    0.059178    0.011535  
     -1.641172  6.632717  7.378925     0.092906   -0.011989    0.078457  
      1.641172  6.632717  7.378925    -0.045267   -0.056738    0.339129  
      4.923515  6.632717  7.378925    -0.047639   -0.086857   -0.007789  
      0.000000  1.895062  8.621075    -0.002151   -0.078517   -0.414909  
      3.282343  1.895062  8.621075    -0.083965   -0.093955   -0.033719  
      6.564687  1.895062  8.621075     0.086116   -0.028631   -0.132553  
     -1.641172  4.737655  8.621075    -0.001220   -0.039677    0.033713  
      1.641172  4.737655  8.621075    -0.056428   -0.070476    0.317039  
      4.923515  4.737655  8.621075     0.057648    0.027182    0.177625  
     -3.282343  7.580248  8.621075    -0.029687    0.099107   -0.184485  
      0.000000  7.580248  8.621075    -0.055497    0.051334    0.237284  
      3.282343  7.580248  8.621075     0.085185    0.133632    0.000006  
 
  52 f  =    0.000000 THz     0.000002 2PiTHz    0.000012 cm-1     0.000001 meV
             X         Y         Z           dx          dy          dz
      1.641172  0.947531  7.378925     0.040913    0.000519    0.232124  
      4.923515  0.947531  7.378925     0.040913    0.000519    0.232124  
      8.205859  0.947531  7.378925     0.040913    0.000519    0.232124  
      0.000000  3.790124  7.378925     0.040913    0.000519    0.232124  
      3.282343  3.790124  7.378925     0.040913    0.000519    0.232124  
      6.564687  3.790124  7.378925     0.040913    0.000519    0.232124  
     -1.641172  6.632717  7.378925     0.040913    0.000519    0.232124  
      1.641172  6.632717  7.378925     0.040913    0.000519    0.232124  
      4.923515  6.632717  7.378925     0.040913    0.000519    0.232124  
      0.000000  1.895062  8.621075     0.040913    0.000519    0.232124  
      3.282343  1.895062  8.621075     0.040913    0.000519    0.232124  
      6.564687  1.895062  8.621075     0.040913    0.000519    0.232124  
     -1.641172  4.737655  8.621075     0.040913    0.000519    0.232124  
      1.641172  4.737655  8.621075     0.040913    0.000519    0.232124  
      4.923515  4.737655  8.621075     0.040913    0.000519    0.232124  
     -3.282343  7.580248  8.621075     0.040913    0.000519    0.232124  
      0.000000  7.580248  8.621075     0.040913    0.000519    0.232124  
      3.282343  7.580248  8.621075     0.040913    0.000519    0.232124  
 
  53 f  =    0.000000 THz     0.000001 2PiTHz    0.000005 cm-1     0.000001 meV
             X         Y         Z           dx          dy          dz
      1.641172  0.947531  7.378925     0.153492   -0.176876   -0.026658  
      4.923515  0.947531  7.378925     0.153492   -0.176876   -0.026658  
      8.205859  0.947531  7.378925     0.153492   -0.176876   -0.026658  
      0.000000  3.790124  7.378925     0.153492   -0.176876   -0.026658  
      3.282343  3.790124  7.378925     0.153492   -0.176876   -0.026658  
      6.564687  3.790124  7.378925     0.153492   -0.176876   -0.026658  
     -1.641172  6.632717  7.378925     0.153492   -0.176876   -0.026658  
      1.641172  6.632717  7.378925     0.153492   -0.176876   -0.026658  
      4.923515  6.632717  7.378925     0.153492   -0.176876   -0.026658  
      0.000000  1.895062  8.621075     0.153492   -0.176876   -0.026658  
      3.282343  1.895062  8.621075     0.153492   -0.176876   -0.026658  
      6.564687  1.895062  8.621075     0.153492   -0.176876   -0.026658  
     -1.641172  4.737655  8.621075     0.153492   -0.176876   -0.026658  
      1.641172  4.737655  8.621075     0.153492   -0.176876   -0.026658  
      4.923515  4.737655  8.621075     0.153492   -0.176876   -0.026658  
     -3.282343  7.580248  8.621075     0.153492   -0.176876   -0.026658  
      0.000000  7.580248  8.621075     0.153492   -0.176876   -0.026658  
      3.282343  7.580248  8.621075     0.153492   -0.176876   -0.026658  
 
  54 f  =    0.000000 THz     0.000000 2PiTHz    0.000002 cm-1     0.000000 meV
             X         Y         Z           dx          dy          dz
      1.641172  0.947531  7.378925    -0.174132   -0.155789    0.031040  
      4.923515  0.947531  7.378925    -0.174132   -0.155789    0.031040  
      8.205859  0.947531  7.378925    -0.174132   -0.155789    0.031040  
      0.000000  3.790124  7.378925    -0.174132   -0.155789    0.031040  
      3.282343  3.790124  7.378925    -0.174132   -0.155789    0.031040  
      6.564687  3.790124  7.378925    -0.174132   -0.155789    0.031040  
     -1.641172  6.632717  7.378925    -0.174132   -0.155789    0.031040  
      1.641172  6.632717  7.378925    -0.174132   -0.155789    0.031040  
      4.923515  6.632717  7.378925    -0.174132   -0.155789    0.031040  
      0.000000  1.895062  8.621075    -0.174132   -0.155789    0.031040  
      3.282343  1.895062  8.621075    -0.174132   -0.155789    0.031040  
      6.564687  1.895062  8.621075    -0.174132   -0.155789    0.031040  
     -1.641172  4.737655  8.621075    -0.174132   -0.155789    0.031040  
      1.641172  4.737655  8.621075    -0.174132   -0.155789    0.031040  
      4.923515  4.737655  8.621075    -0.174132   -0.155789    0.031040  
     -3.282343  7.580248  8.621075    -0.174132   -0.155789    0.031040  
      0.000000  7.580248  8.621075    -0.174132   -0.155789    0.031040  
      3.282343  7.580248  8.621075    -0.174132   -0.155789    0.031040  
 


--------------------------------------------------------------------------------------------------------



 ELASTIC MODULI CONTR FROM IONIC RELAXATION (kBar)
 Direction    XX          YY          ZZ          XY          YZ          ZX
 --------------------------------------------------------------------------------
 XX         -30.6298    -12.2108    -75.1212     -0.0000    -39.1349      0.0000
 YY         -12.2108    -30.6298    -75.1212      0.0000     39.1349      0.0000
 ZZ         -75.1212    -75.1212   -263.4508      0.0000     -0.0000      0.0000
 XY          -0.0000      0.0000      0.0000     -9.2095     -0.0000    -39.3101
 YZ         -39.1349     39.1349      0.0000     -0.0000   -166.2998     -0.0000
 ZX           0.0000      0.0000      0.0000    -39.3101     -0.0000   -167.7921
 --------------------------------------------------------------------------------



--------------------------------------------------------------------------------------------------------


     LOOP+:  cpu time   1839.4389: real time   1842.9152
    4ORBIT:  cpu time      0.0000: real time      0.0000



 total charge

# of ion       s       p       d       tot
------------------------------------------
    1        1.216   1.532   0.096   2.845
    2        1.216   1.532   0.096   2.845
    3        1.216   1.532   0.096   2.845
    4        1.216   1.532   0.096   2.845
    5        1.216   1.532   0.096   2.845
    6        1.216   1.532   0.096   2.845
    7        1.216   1.532   0.096   2.845
    8        1.216   1.532   0.096   2.845
    9        1.216   1.532   0.096   2.845
   10        1.216   1.532   0.096   2.845
   11        1.216   1.532   0.096   2.845
   12        1.216   1.532   0.096   2.845
   13        1.216   1.532   0.096   2.845
   14        1.216   1.532   0.096   2.845
   15        1.216   1.532   0.096   2.845
   16        1.216   1.532   0.096   2.845
   17        1.216   1.532   0.096   2.845
   18        1.216   1.532   0.096   2.845
--------------------------------------------------
tot         21.892  27.583   1.733  51.208
 

 total amount of memory used by VASP MPI-rank0   109952. kBytes
=======================================================================

   base      :      30000. kBytes
   nonl-proj :      30030. kBytes
   fftplans  :      20821. kBytes
   grid      :      17124. kBytes
   one-center:        279. kBytes
   wavefun   :      11698. kBytes
 
  
  
 General timing and accounting informations for this job:
 ========================================================
  
                  Total CPU time used (sec):     1842.648
                            User time (sec):     1831.593
                          System time (sec):       11.055
                         Elapsed time (sec):     1847.387
  
                   Maximum memory used (kb):      585908.
                   Average memory used (kb):          N/A
  
                          Minor page faults:       532320
                          Major page faults:         3229
                 Voluntary context switches:          240
