PROCAR new format
# of k-points:   12         # of bands:   64         # of ions:   18

 k-point     1 :    0.00000000 0.00000000 0.00000000     weight = 0.01333333

band     1 # energy  -17.47284395 # occ.  2.00000000
 
ion      s      p      d    tot
    1  0.029  0.002  0.000  0.031
    2  0.029  0.002  0.000  0.031
    3  0.029  0.002  0.000  0.031
    4  0.029  0.002  0.000  0.031
    5  0.029  0.002  0.000  0.031
    6  0.029  0.002  0.000  0.031
    7  0.029  0.002  0.000  0.031
    8  0.029  0.002  0.000  0.031
    9  0.029  0.002  0.000  0.031
   10  0.029  0.002  0.000  0.031
   11  0.029  0.002  0.000  0.031
   12  0.029  0.002  0.000  0.031
   13  0.029  0.002  0.000  0.031
   14  0.029  0.002  0.000  0.031
   15  0.029  0.002  0.000  0.031
   16  0.029  0.002  0.000  0.031
   17  0.029  0.002  0.000  0.031
   18  0.029  0.002  0.000  0.031
tot    0.522  0.032  0.001  0.554
 
band     2 # energy  -15.74773473 # occ.  2.00000000
 
ion      s      p      d    tot
    1  0.011  0.004  0.000  0.015
    2  0.034  0.003  0.000  0.037
    3  0.041  0.004  0.000  0.046
    4  0.041  0.004  0.000  0.046
    5  0.011  0.004  0.000  0.015
    6  0.034  0.003  0.000  0.037
    7  0.034  0.003  0.000  0.037
    8  0.041  0.004  0.000  0.046
    9  0.011  0.004  0.000  0.015
   10  0.046  0.004  0.000  0.050
   11  0.026  0.003  0.000  0.029
   12  0.014  0.004  0.001  0.019
   13  0.014  0.004  0.001  0.019
   14  0.046  0.004  0.000  0.050
   15  0.026  0.003  0.000  0.029
   16  0.026  0.003  0.000  0.029
   17  0.014  0.004  0.001  0.019
   18  0.046  0.004  0.000  0.050
tot    0.513  0.066  0.006  0.585
 
band     3 # energy  -15.74773473 # occ.  2.00000000
 
ion      s      p      d    tot
    1  0.046  0.003  0.000  0.050
    2  0.023  0.004  0.001  0.028
    3  0.016  0.003  0.000  0.020
    4  0.016  0.003  0.000  0.020
    5  0.046  0.003  0.000  0.050
    6  0.023  0.004  0.001  0.028
    7  0.023  0.004  0.001  0.028
    8  0.016  0.003  0.000  0.020
    9  0.046  0.003  0.000  0.050
   10  0.011  0.004  0.000  0.015
   11  0.031  0.004  0.000  0.036
   12  0.043  0.003  0.000  0.046
   13  0.043  0.003  0.000  0.046
   14  0.011  0.004  0.000  0.015
   15  0.031  0.004  0.000  0.036
   16  0.031  0.004  0.000  0.036
   17  0.043  0.003  0.000  0.046
   18  0.011  0.004  0.000  0.015
tot    0.513  0.066  0.006  0.585
 
band     4 # energy  -15.74773472 # occ.  2.00000000
 
ion      s      p      d    tot
    1  0.030  0.005  0.001  0.035
    2  0.030  0.005  0.001  0.035
    3  0.030  0.005  0.001  0.035
    4  0.003  0.003  0.000  0.007
    5  0.003  0.003  0.000  0.007
    6  0.003  0.003  0.000  0.007
    7  0.053  0.003  0.000  0.056
    8  0.052  0.003  0.000  0.055
    9  0.053  0.003  0.000  0.056
   10  0.055  0.003  0.000  0.058
   11  0.055  0.003  0.000  0.059
   12  0.055  0.003  0.000  0.059
   13  0.007  0.003  0.000  0.010
   14  0.007  0.003  0.000  0.010
   15  0.007  0.003  0.000  0.010
   16  0.023  0.005  0.001  0.029
   17  0.023  0.005  0.001  0.029
   18  0.023  0.005  0.001  0.029
tot    0.513  0.066  0.006  0.585
 
band     5 # energy  -15.74773472 # occ.  2.00000000
 
ion      s      p      d    tot
    1  0.027  0.003  0.000  0.030
    2  0.027  0.003  0.000  0.030
    3  0.027  0.003  0.000  0.030
    4  0.054  0.004  0.000  0.058
    5  0.054  0.004  0.000  0.058
    6  0.054  0.004  0.000  0.058
    7  0.004  0.004  0.001  0.010
    8  0.004  0.004  0.001  0.010
    9  0.004  0.004  0.001  0.010
   10  0.002  0.004  0.001  0.007
   11  0.002  0.004  0.001  0.007
   12  0.002  0.004  0.001  0.007
   13  0.050  0.004  0.000  0.055
   14  0.050  0.004  0.000  0.055
   15  0.050  0.004  0.000  0.055
   16  0.034  0.003  0.000  0.036
   17  0.034  0.003  0.000  0.036
   18  0.034  0.003  0.000  0.036
tot    0.513  0.066  0.006  0.585
 
band     6 # energy  -15.74773472 # occ.  2.00000000
 
ion      s      p      d    tot
    1  0.038  0.005  0.001  0.043
    2  0.047  0.003  0.000  0.050
    3  0.001  0.004  0.000  0.005
    4  0.038  0.005  0.001  0.043
    5  0.047  0.003  0.000  0.050
    6  0.001  0.004  0.000  0.005
    7  0.038  0.005  0.001  0.043
    8  0.047  0.003  0.000  0.050
    9  0.001  0.004  0.000  0.005
   10  0.057  0.003  0.000  0.060
   11  0.015  0.005  0.001  0.021
   12  0.013  0.003  0.000  0.017
   13  0.057  0.003  0.000  0.060
   14  0.015  0.005  0.001  0.021
   15  0.014  0.003  0.000  0.017
   16  0.057  0.003  0.000  0.060
   17  0.015  0.005  0.001  0.021
   18  0.014  0.003  0.000  0.017
tot    0.513  0.066  0.006  0.585
 
band     7 # energy  -15.74773472 # occ.  2.00000000
 
ion      s      p      d    tot
    1  0.019  0.003  0.000  0.022
    2  0.010  0.005  0.001  0.015
    3  0.056  0.004  0.000  0.060
    4  0.019  0.003  0.000  0.022
    5  0.010  0.005  0.001  0.015
    6  0.056  0.004  0.000  0.060
    7  0.019  0.003  0.000  0.022
    8  0.010  0.005  0.001  0.015
    9  0.056  0.004  0.000  0.060
   10  0.000  0.004  0.000  0.005
   11  0.042  0.003  0.000  0.044
   12  0.044  0.004  0.000  0.048
   13  0.000  0.004  0.000  0.005
   14  0.042  0.003  0.000  0.044
   15  0.044  0.004  0.000  0.048
   16  0.000  0.004  0.000  0.005
   17  0.042  0.003  0.000  0.044
   18  0.044  0.004  0.000  0.048
tot    0.513  0.066  0.006  0.585
 
band     8 # energy  -13.00439265 # occ.  2.00000000
 
ion      s      p      d    tot
    1  0.037  0.006  0.001  0.044
    2  0.014  0.005  0.001  0.020
    3  0.037  0.006  0.001  0.044
    4  0.014  0.005  0.001  0.020
    5  0.037  0.006  0.001  0.044
    6  0.037  0.006  0.001  0.044
    7  0.037  0.006  0.001  0.044
    8  0.037  0.006  0.001  0.044
    9  0.014  0.005  0.001  0.020
   10  0.037  0.006  0.001  0.044
   11  0.014  0.005  0.001  0.020
   12  0.037  0.006  0.001  0.044
   13  0.014  0.005  0.001  0.020
   14  0.037  0.006  0.001  0.044
   15  0.037  0.006  0.001  0.044
   16  0.037  0.006  0.001  0.044
   17  0.037  0.006  0.001  0.044
   18  0.014  0.005  0.001  0.020
tot    0.529  0.105  0.017  0.651
 
band     9 # energy  -13.00439265 # occ.  2.00000000
 
ion      s      p      d    tot
    1  0.022  0.006  0.001  0.028
    2  0.045  0.006  0.001  0.053
    3  0.021  0.006  0.001  0.028
    4  0.045  0.006  0.001  0.053
    5  0.021  0.006  0.001  0.028
    6  0.022  0.006  0.001  0.028
    7  0.021  0.006  0.001  0.028
    8  0.022  0.006  0.001  0.028
    9  0.045  0.006  0.001  0.053
   10  0.021  0.006  0.001  0.028
   11  0.045  0.006  0.001  0.053
   12  0.022  0.006  0.001  0.028
   13  0.045  0.006  0.001  0.053
   14  0.022  0.006  0.001  0.028
   15  0.021  0.006  0.001  0.028
   16  0.022  0.006  0.001  0.028
   17  0.021  0.006  0.001  0.028
   18  0.045  0.006  0.001  0.053
tot    0.529  0.105  0.017  0.651
 
band    10 # energy  -13.00439262 # occ.  2.00000000
 
ion      s      p      d    tot
    1  0.058  0.007  0.001  0.066
    2  0.008  0.005  0.001  0.014
    3  0.022  0.006  0.001  0.029
    4  0.008  0.005  0.001  0.014
    5  0.022  0.006  0.001  0.029
    6  0.058  0.007  0.001  0.066
    7  0.022  0.006  0.001  0.029
    8  0.058  0.007  0.001  0.066
    9  0.008  0.005  0.001  0.014
   10  0.058  0.007  0.001  0.066
   11  0.009  0.005  0.001  0.015
   12  0.022  0.006  0.001  0.028
   13  0.009  0.005  0.001  0.015
   14  0.022  0.006  0.001  0.028
   15  0.058  0.007  0.001  0.066
   16  0.022  0.006  0.001  0.028
   17  0.058  0.007  0.001  0.066
   18  0.009  0.005  0.001  0.015
tot    0.529  0.105  0.017  0.651
 
band    11 # energy  -13.00439262 # occ.  2.00000000
 
ion      s      p      d    tot
    1  0.001  0.005  0.001  0.007
    2  0.050  0.007  0.001  0.058
    3  0.037  0.006  0.001  0.044
    4  0.050  0.007  0.001  0.058
    5  0.037  0.006  0.001  0.044
    6  0.001  0.005  0.001  0.007
    7  0.037  0.006  0.001  0.044
    8  0.001  0.005  0.001  0.007
    9  0.050  0.007  0.001  0.058
   10  0.001  0.005  0.001  0.007
   11  0.050  0.007  0.001  0.058
   12  0.037  0.006  0.001  0.044
   13  0.050  0.007  0.001  0.058
   14  0.037  0.006  0.001  0.044
   15  0.001  0.005  0.001  0.007
   16  0.037  0.006  0.001  0.044
   17  0.001  0.005  0.001  0.007
   18  0.050  0.007  0.001  0.058
tot    0.529  0.105  0.017  0.651
 
band    12 # energy  -10.40048291 # occ.  2.00000000
 
ion      s      p      d    tot
    1  0.032  0.009  0.001  0.042
    2  0.032  0.009  0.001  0.042
    3  0.032  0.009  0.001  0.042
    4  0.018  0.008  0.002  0.028
    5  0.018  0.008  0.002  0.028
    6  0.018  0.008  0.002  0.028
    7  0.037  0.005  0.001  0.042
    8  0.036  0.005  0.001  0.042
    9  0.037  0.005  0.001  0.042
   10  0.039  0.007  0.001  0.047
   11  0.040  0.007  0.001  0.047
   12  0.039  0.007  0.001  0.047
   13  0.026  0.005  0.001  0.033
   14  0.026  0.005  0.001  0.032
   15  0.026  0.005  0.001  0.032
   16  0.021  0.010  0.002  0.032
   17  0.021  0.010  0.002  0.032
   18  0.021  0.010  0.002  0.032
tot    0.517  0.131  0.024  0.672
 
band    13 # energy  -10.40048291 # occ.  2.00000000
 
ion      s      p      d    tot
    1  0.026  0.005  0.001  0.032
    2  0.026  0.005  0.001  0.032
    3  0.026  0.005  0.001  0.032
    4  0.040  0.007  0.001  0.047
    5  0.040  0.007  0.001  0.047
    6  0.040  0.007  0.001  0.047
    7  0.021  0.010  0.002  0.033
    8  0.021  0.010  0.002  0.033
    9  0.021  0.010  0.002  0.033
   10  0.018  0.008  0.002  0.028
   11  0.018  0.008  0.002  0.028
   12  0.018  0.008  0.002  0.028
   13  0.032  0.009  0.001  0.042
   14  0.031  0.009  0.001  0.042
   15  0.031  0.009  0.001  0.042
   16  0.037  0.005  0.001  0.042
   17  0.037  0.005  0.001  0.042
   18  0.037  0.005  0.001  0.042
tot    0.517  0.131  0.024  0.672
 
band    14 # energy  -10.40048291 # occ.  2.00000000
 
ion      s      p      d    tot
    1  0.004  0.013  0.002  0.019
    2  0.049  0.008  0.001  0.059
    3  0.032  0.001  0.001  0.034
    4  0.004  0.013  0.002  0.019
    5  0.050  0.008  0.001  0.059
    6  0.032  0.001  0.001  0.034
    7  0.004  0.013  0.002  0.019
    8  0.050  0.008  0.001  0.059
    9  0.032  0.001  0.001  0.034
   10  0.039  0.001  0.001  0.040
   11  0.045  0.010  0.001  0.056
   12  0.003  0.011  0.002  0.016
   13  0.038  0.001  0.001  0.040
   14  0.045  0.010  0.001  0.056
   15  0.003  0.011  0.002  0.016
   16  0.039  0.001  0.001  0.040
   17  0.045  0.010  0.001  0.056
   18  0.003  0.011  0.002  0.016
tot    0.517  0.131  0.024  0.672
 
band    15 # energy  -10.40048291 # occ.  2.00000000
 
ion      s      p      d    tot
    1  0.053  0.002  0.000  0.056
    2  0.008  0.006  0.002  0.016
    3  0.025  0.013  0.002  0.040
    4  0.053  0.002  0.000  0.056
    5  0.008  0.006  0.002  0.016
    6  0.025  0.013  0.002  0.040
    7  0.053  0.002  0.000  0.056
    8  0.008  0.006  0.002  0.016
    9  0.025  0.013  0.002  0.040
   10  0.019  0.014  0.002  0.035
   11  0.012  0.005  0.002  0.019
   12  0.055  0.003  0.000  0.058
   13  0.019  0.014  0.002  0.035
   14  0.012  0.005  0.002  0.019
   15  0.055  0.003  0.000  0.058
   16  0.019  0.014  0.002  0.035
   17  0.012  0.005  0.002  0.019
   18  0.055  0.003  0.000  0.058
tot    0.517  0.131  0.024  0.672
 
band    16 # energy  -10.40048289 # occ.  2.00000000
 
ion      s      p      d    tot
    1  0.050  0.003  0.001  0.054
    2  0.023  0.013  0.002  0.038
    3  0.012  0.006  0.002  0.020
    4  0.012  0.006  0.002  0.020
    5  0.050  0.003  0.001  0.054
    6  0.023  0.013  0.002  0.038
    7  0.023  0.013  0.002  0.038
    8  0.012  0.006  0.002  0.020
    9  0.050  0.003  0.001  0.054
   10  0.013  0.006  0.002  0.020
   11  0.023  0.013  0.002  0.037
   12  0.051  0.003  0.001  0.055
   13  0.051  0.003  0.001  0.055
   14  0.013  0.006  0.002  0.020
   15  0.023  0.013  0.002  0.037
   16  0.023  0.013  0.002  0.037
   17  0.051  0.003  0.001  0.055
   18  0.013  0.006  0.002  0.020
tot    0.517  0.131  0.024  0.672
 
band    17 # energy  -10.40048289 # occ.  2.00000000
 
ion      s      p      d    tot
    1  0.007  0.011  0.002  0.021
    2  0.034  0.002  0.001  0.037
    3  0.045  0.009  0.001  0.055
    4  0.045  0.009  0.001  0.055
    5  0.007  0.011  0.002  0.021
    6  0.034  0.002  0.001  0.037
    7  0.034  0.002  0.001  0.037
    8  0.045  0.009  0.001  0.055
    9  0.007  0.011  0.002  0.021
   10  0.044  0.009  0.001  0.054
   11  0.035  0.002  0.001  0.038
   12  0.007  0.011  0.002  0.020
   13  0.007  0.011  0.002  0.020
   14  0.044  0.009  0.001  0.054
   15  0.035  0.002  0.001  0.038
   16  0.035  0.002  0.001  0.038
   17  0.007  0.011  0.002  0.020
   18  0.044  0.009  0.001  0.054
tot    0.517  0.131  0.024  0.672
 
band    18 # energy   -9.75910941 # occ.  2.00000000
 
ion      s      p      d    tot
    1  0.024  0.006  0.000  0.030
    2  0.024  0.006  0.000  0.030
    3  0.024  0.006  0.000  0.030
    4  0.024  0.006  0.000  0.030
    5  0.024  0.006  0.000  0.030
    6  0.024  0.006  0.000  0.030
    7  0.024  0.006  0.000  0.030
    8  0.024  0.006  0.000  0.030
    9  0.024  0.006  0.000  0.030
   10  0.024  0.006  0.000  0.030
   11  0.024  0.006  0.000  0.030
   12  0.024  0.006  0.000  0.030
   13  0.024  0.006  0.000  0.030
   14  0.024  0.006  0.000  0.030
   15  0.024  0.006  0.000  0.030
   16  0.024  0.006  0.000  0.030
   17  0.024  0.006  0.000  0.030
   18  0.024  0.006  0.000  0.030
tot    0.424  0.105  0.007  0.535
 
band    19 # energy   -8.69844642 # occ.  2.00000000
 
ion      s      p      d    tot
    1  0.000  0.023  0.001  0.025
    2  0.000  0.023  0.001  0.025
    3  0.000  0.023  0.001  0.025
    4  0.000  0.023  0.001  0.025
    5  0.000  0.023  0.001  0.025
    6  0.000  0.023  0.001  0.025
    7  0.000  0.023  0.001  0.025
    8  0.000  0.023  0.001  0.025
    9  0.000  0.023  0.001  0.025
   10  0.000  0.023  0.001  0.025
   11  0.000  0.023  0.001  0.025
   12  0.000  0.023  0.001  0.025
   13  0.000  0.023  0.001  0.025
   14  0.000  0.023  0.001  0.025
   15  0.000  0.023  0.001  0.025
   16  0.000  0.023  0.001  0.025
   17  0.000  0.023  0.001  0.025
   18  0.000  0.023  0.001  0.025
tot    0.000  0.419  0.027  0.445
 
band    20 # energy   -8.69844642 # occ.  2.00000000
 
ion      s      p      d    tot
    1  0.000  0.023  0.001  0.025
    2  0.000  0.023  0.001  0.025
    3  0.000  0.023  0.001  0.025
    4  0.000  0.023  0.001  0.025
    5  0.000  0.023  0.001  0.025
    6  0.000  0.023  0.001  0.025
    7  0.000  0.023  0.001  0.025
    8  0.000  0.023  0.001  0.025
    9  0.000  0.023  0.001  0.025
   10  0.000  0.023  0.001  0.025
   11  0.000  0.023  0.001  0.025
   12  0.000  0.023  0.001  0.025
   13  0.000  0.023  0.001  0.025
   14  0.000  0.023  0.001  0.025
   15  0.000  0.023  0.001  0.025
   16  0.000  0.023  0.001  0.025
   17  0.000  0.023  0.001  0.025
   18  0.000  0.023  0.001  0.025
tot    0.000  0.419  0.027  0.445
 
band    21 # energy   -7.40015215 # occ.  2.00000000
 
ion      s      p      d    tot
    1  0.004  0.024  0.000  0.029
    2  0.010  0.024  0.001  0.035
    3  0.001  0.011  0.001  0.013
    4  0.004  0.024  0.000  0.029
    5  0.010  0.024  0.001  0.035
    6  0.001  0.011  0.001  0.013
    7  0.004  0.024  0.000  0.029
    8  0.010  0.024  0.001  0.035
    9  0.001  0.011  0.001  0.013
   10  0.006  0.017  0.001  0.024
   11  0.009  0.029  0.001  0.038
   12  0.000  0.014  0.000  0.015
   13  0.006  0.017  0.001  0.024
   14  0.009  0.029  0.001  0.038
   15  0.000  0.014  0.000  0.015
   16  0.006  0.017  0.001  0.024
   17  0.009  0.029  0.001  0.038
   18  0.000  0.014  0.000  0.015
tot    0.091  0.358  0.012  0.461
 
band    22 # energy   -7.40015215 # occ.  2.00000000
 
ion      s      p      d    tot
    1  0.006  0.015  0.001  0.022
    2  0.000  0.015  0.000  0.016
    3  0.009  0.029  0.001  0.039
    4  0.006  0.015  0.001  0.022
    5  0.000  0.015  0.000  0.016
    6  0.009  0.029  0.001  0.039
    7  0.006  0.015  0.001  0.022
    8  0.000  0.015  0.000  0.016
    9  0.009  0.029  0.001  0.039
   10  0.004  0.023  0.000  0.027
   11  0.001  0.011  0.001  0.013
   12  0.010  0.025  0.001  0.036
   13  0.004  0.023  0.000  0.027
   14  0.001  0.011  0.001  0.013
   15  0.010  0.025  0.001  0.036
   16  0.004  0.023  0.000  0.027
   17  0.001  0.011  0.001  0.013
   18  0.010  0.025  0.001  0.036
tot    0.091  0.358  0.012  0.461
 
band    23 # energy   -7.40015215 # occ.  2.00000000
 
ion      s      p      d    tot
    1  0.006  0.017  0.001  0.024
    2  0.006  0.017  0.001  0.024
    3  0.006  0.017  0.001  0.024
    4  0.008  0.028  0.001  0.037
    5  0.008  0.028  0.001  0.037
    6  0.008  0.028  0.001  0.037
    7  0.000  0.014  0.000  0.015
    8  0.000  0.014  0.000  0.015
    9  0.000  0.014  0.000  0.015
   10  0.005  0.024  0.000  0.029
   11  0.005  0.024  0.000  0.029
   12  0.005  0.024  0.000  0.029
   13  0.009  0.024  0.001  0.034
   14  0.009  0.024  0.001  0.034
   15  0.009  0.024  0.001  0.034
   16  0.001  0.011  0.001  0.013
   17  0.001  0.011  0.001  0.013
   18  0.001  0.011  0.001  0.013
tot    0.091  0.358  0.012  0.461
 
band    24 # energy   -7.40015215 # occ.  2.00000000
 
ion      s      p      d    tot
    1  0.004  0.023  0.000  0.027
    2  0.004  0.023  0.000  0.027
    3  0.004  0.023  0.000  0.027
    4  0.002  0.011  0.001  0.014
    5  0.002  0.011  0.001  0.014
    6  0.002  0.011  0.001  0.014
    7  0.010  0.025  0.001  0.036
    8  0.010  0.025  0.001  0.036
    9  0.010  0.025  0.001  0.036
   10  0.005  0.015  0.001  0.022
   11  0.005  0.015  0.001  0.022
   12  0.005  0.015  0.001  0.022
   13  0.001  0.016  0.000  0.017
   14  0.001  0.016  0.000  0.017
   15  0.001  0.016  0.000  0.017
   16  0.009  0.028  0.001  0.038
   17  0.009  0.028  0.001  0.038
   18  0.009  0.028  0.001  0.038
tot    0.091  0.358  0.012  0.461
 
band    25 # energy   -7.40015213 # occ.  2.00000000
 
ion      s      p      d    tot
    1  0.009  0.022  0.001  0.032
    2  0.006  0.026  0.000  0.032
    3  0.001  0.012  0.001  0.013
    4  0.001  0.012  0.001  0.013
    5  0.009  0.022  0.001  0.032
    6  0.006  0.026  0.000  0.032
    7  0.006  0.026  0.000  0.032
    8  0.001  0.012  0.001  0.013
    9  0.009  0.022  0.001  0.032
   10  0.000  0.013  0.000  0.014
   11  0.007  0.028  0.001  0.036
   12  0.007  0.019  0.001  0.027
   13  0.007  0.019  0.001  0.027
   14  0.000  0.013  0.000  0.014
   15  0.007  0.028  0.001  0.036
   16  0.007  0.028  0.001  0.036
   17  0.007  0.019  0.001  0.027
   18  0.000  0.013  0.000  0.014
tot    0.091  0.358  0.012  0.461
 
band    26 # energy   -7.40015213 # occ.  2.00000000
 
ion      s      p      d    tot
    1  0.001  0.018  0.000  0.019
    2  0.004  0.014  0.001  0.019
    3  0.009  0.028  0.001  0.038
    4  0.009  0.028  0.001  0.038
    5  0.001  0.018  0.000  0.019
    6  0.004  0.014  0.001  0.019
    7  0.004  0.014  0.001  0.019
    8  0.009  0.028  0.001  0.038
    9  0.001  0.018  0.000  0.019
   10  0.010  0.027  0.001  0.037
   11  0.003  0.012  0.001  0.016
   12  0.003  0.021  0.000  0.024
   13  0.003  0.021  0.000  0.024
   14  0.010  0.027  0.001  0.037
   15  0.003  0.012  0.001  0.016
   16  0.003  0.012  0.001  0.016
   17  0.003  0.021  0.000  0.024
   18  0.010  0.027  0.001  0.037
tot    0.091  0.358  0.012  0.461
 
band    27 # energy   -5.26919019 # occ.  2.00000000
 
ion      s      p      d    tot
    1  0.000  0.004  0.001  0.005
    2  0.000  0.058  0.004  0.063
    3  0.000  0.032  0.002  0.034
    4  0.000  0.032  0.002  0.034
    5  0.000  0.004  0.001  0.005
    6  0.000  0.058  0.004  0.063
    7  0.000  0.058  0.004  0.063
    8  0.000  0.032  0.002  0.034
    9  0.000  0.004  0.001  0.005
   10  0.000  0.018  0.002  0.021
   11  0.000  0.013  0.001  0.014
   12  0.000  0.063  0.004  0.067
   13  0.000  0.063  0.004  0.067
   14  0.000  0.018  0.002  0.021
   15  0.000  0.013  0.001  0.014
   16  0.000  0.013  0.001  0.014
   17  0.000  0.063  0.004  0.067
   18  0.000  0.018  0.002  0.021
tot    0.000  0.568  0.043  0.611
 
band    28 # energy   -5.26919019 # occ.  2.00000000
 
ion      s      p      d    tot
    1  0.000  0.059  0.004  0.063
    2  0.000  0.005  0.001  0.005
    3  0.000  0.031  0.003  0.034
    4  0.000  0.031  0.003  0.034
    5  0.000  0.059  0.004  0.063
    6  0.000  0.005  0.001  0.005
    7  0.000  0.005  0.001  0.005
    8  0.000  0.031  0.003  0.034
    9  0.000  0.059  0.004  0.063
   10  0.000  0.045  0.003  0.047
   11  0.000  0.050  0.004  0.054
   12  0.000  0.000  0.001  0.001
   13  0.000  0.000  0.001  0.001
   14  0.000  0.045  0.003  0.047
   15  0.000  0.050  0.004  0.054
   16  0.000  0.050  0.004  0.054
   17  0.000  0.000  0.001  0.001
   18  0.000  0.045  0.003  0.047
tot    0.000  0.568  0.043  0.611
 
band    29 # energy   -5.26919011 # occ.  2.00000000
 
ion      s      p      d    tot
    1  0.000  0.045  0.004  0.049
    2  0.000  0.004  0.001  0.005
    3  0.000  0.045  0.003  0.048
    4  0.000  0.046  0.004  0.049
    5  0.000  0.004  0.001  0.005
    6  0.000  0.045  0.003  0.047
    7  0.000  0.045  0.004  0.048
    8  0.000  0.004  0.001  0.005
    9  0.000  0.046  0.003  0.048
   10  0.000  0.054  0.003  0.058
   11  0.000  0.007  0.001  0.008
   12  0.000  0.034  0.003  0.037
   13  0.000  0.055  0.003  0.058
   14  0.000  0.007  0.001  0.008
   15  0.000  0.033  0.003  0.036
   16  0.000  0.054  0.003  0.057
   17  0.000  0.007  0.001  0.008
   18  0.000  0.034  0.003  0.037
tot    0.000  0.568  0.043  0.611
 
band    30 # energy   -5.26919011 # occ.  2.00000000
 
ion      s      p      d    tot
    1  0.000  0.014  0.001  0.015
    2  0.000  0.084  0.006  0.090
    3  0.000  0.016  0.002  0.018
    4  0.000  0.022  0.001  0.023
    5  0.000  0.039  0.003  0.041
    6  0.000  0.020  0.002  0.021
    7  0.000  0.027  0.002  0.029
    8  0.000  0.035  0.002  0.038
    9  0.000  0.027  0.003  0.030
   10  0.000  0.011  0.001  0.012
   11  0.000  0.079  0.006  0.085
   12  0.000  0.020  0.001  0.022
   13  0.000  0.010  0.002  0.011
   14  0.000  0.040  0.003  0.043
   15  0.000  0.025  0.002  0.027
   16  0.000  0.021  0.002  0.023
   17  0.000  0.033  0.002  0.035
   18  0.000  0.045  0.003  0.047
tot    0.000  0.568  0.043  0.611
 
band    31 # energy   -5.26919011 # occ.  2.00000000
 
ion      s      p      d    tot
    1  0.000  0.065  0.004  0.069
    2  0.000  0.037  0.002  0.039
    3  0.000  0.064  0.005  0.069
    4  0.000  0.009  0.001  0.010
    5  0.000  0.035  0.002  0.037
    6  0.000  0.008  0.001  0.009
    7  0.000  0.011  0.002  0.013
    8  0.000  0.041  0.004  0.045
    9  0.000  0.014  0.002  0.015
   10  0.000  0.054  0.004  0.059
   11  0.000  0.034  0.003  0.036
   12  0.000  0.067  0.005  0.072
   13  0.000  0.004  0.001  0.005
   14  0.000  0.022  0.003  0.024
   15  0.000  0.005  0.001  0.006
   16  0.000  0.021  0.001  0.023
   17  0.000  0.055  0.003  0.058
   18  0.000  0.021  0.001  0.023
tot    0.000  0.568  0.043  0.611
 
band    32 # energy   -5.26919011 # occ.  2.00000000
 
ion      s      p      d    tot
    1  0.000  0.001  0.001  0.002
    2  0.000  0.001  0.001  0.002
    3  0.000  0.001  0.001  0.002
    4  0.000  0.050  0.004  0.054
    5  0.000  0.049  0.004  0.053
    6  0.000  0.054  0.004  0.058
    7  0.000  0.043  0.002  0.045
    8  0.000  0.046  0.003  0.048
    9  0.000  0.040  0.002  0.042
   10  0.000  0.006  0.001  0.007
   11  0.000  0.007  0.001  0.007
   12  0.000  0.005  0.001  0.006
   13  0.000  0.058  0.004  0.061
   14  0.000  0.058  0.004  0.061
   15  0.000  0.063  0.004  0.067
   16  0.000  0.030  0.003  0.033
   17  0.000  0.031  0.003  0.034
   18  0.000  0.027  0.003  0.029
tot    0.000  0.568  0.043  0.611
 
band    33 # energy   -5.09032232 # occ.  2.00000000
 
ion      s      p      d    tot
    1  0.002  0.012  0.000  0.015
    2  0.013  0.033  0.001  0.047
    3  0.007  0.022  0.000  0.029
    4  0.013  0.033  0.001  0.047
    5  0.007  0.022  0.000  0.029
    6  0.002  0.012  0.000  0.015
    7  0.007  0.022  0.000  0.029
    8  0.002  0.012  0.000  0.015
    9  0.013  0.033  0.001  0.047
   10  0.003  0.014  0.000  0.017
   11  0.013  0.034  0.001  0.048
   12  0.006  0.020  0.000  0.026
   13  0.013  0.034  0.001  0.048
   14  0.006  0.020  0.000  0.026
   15  0.003  0.014  0.000  0.017
   16  0.006  0.020  0.000  0.026
   17  0.003  0.014  0.000  0.017
   18  0.013  0.034  0.001  0.048
tot    0.133  0.406  0.009  0.548
 
band    34 # energy   -5.09032232 # occ.  2.00000000
 
ion      s      p      d    tot
    1  0.012  0.033  0.001  0.046
    2  0.002  0.012  0.000  0.014
    3  0.008  0.023  0.000  0.031
    4  0.002  0.012  0.000  0.014
    5  0.008  0.023  0.000  0.031
    6  0.012  0.033  0.001  0.046
    7  0.008  0.023  0.000  0.031
    8  0.012  0.033  0.001  0.046
    9  0.002  0.012  0.000  0.014
   10  0.012  0.031  0.001  0.044
   11  0.002  0.011  0.000  0.013
   12  0.009  0.025  0.001  0.035
   13  0.002  0.011  0.000  0.013
   14  0.009  0.025  0.001  0.035
   15  0.012  0.031  0.001  0.044
   16  0.009  0.025  0.001  0.035
   17  0.012  0.031  0.001  0.044
   18  0.002  0.011  0.000  0.013
tot    0.133  0.406  0.009  0.548
 
band    35 # energy   -5.09032230 # occ.  2.00000000
 
ion      s      p      d    tot
    1  0.007  0.023  0.000  0.031
    2  0.008  0.024  0.000  0.032
    3  0.007  0.021  0.000  0.028
    4  0.008  0.024  0.000  0.032
    5  0.007  0.021  0.000  0.028
    6  0.007  0.023  0.000  0.031
    7  0.007  0.021  0.000  0.028
    8  0.007  0.023  0.000  0.031
    9  0.008  0.024  0.000  0.032
   10  0.008  0.023  0.000  0.031
   11  0.008  0.024  0.000  0.032
   12  0.007  0.021  0.000  0.028
   13  0.008  0.024  0.000  0.032
   14  0.007  0.021  0.000  0.028
   15  0.008  0.023  0.000  0.031
   16  0.007  0.021  0.000  0.028
   17  0.008  0.023  0.000  0.031
   18  0.008  0.024  0.000  0.032
tot    0.133  0.406  0.009  0.548
 
band    36 # energy   -5.09032230 # occ.  2.00000000
 
ion      s      p      d    tot
    1  0.007  0.022  0.000  0.030
    2  0.007  0.021  0.000  0.028
    3  0.008  0.024  0.000  0.033
    4  0.007  0.021  0.000  0.028
    5  0.008  0.024  0.000  0.033
    6  0.007  0.022  0.000  0.030
    7  0.008  0.024  0.000  0.033
    8  0.007  0.022  0.000  0.030
    9  0.007  0.021  0.000  0.028
   10  0.007  0.022  0.000  0.030
   11  0.007  0.021  0.000  0.029
   12  0.008  0.024  0.000  0.033
   13  0.007  0.021  0.000  0.029
   14  0.008  0.024  0.000  0.033
   15  0.007  0.022  0.000  0.030
   16  0.008  0.024  0.000  0.033
   17  0.007  0.022  0.000  0.030
   18  0.007  0.021  0.000  0.029
tot    0.133  0.406  0.009  0.548
 
band    37 # energy   -3.76651358 # occ.  2.00000000
 
ion      s      p      d    tot
    1  0.001  0.023  0.000  0.024
    2  0.001  0.023  0.000  0.024
    3  0.001  0.023  0.000  0.024
    4  0.001  0.023  0.000  0.024
    5  0.001  0.023  0.000  0.024
    6  0.001  0.023  0.000  0.024
    7  0.001  0.023  0.000  0.024
    8  0.001  0.023  0.000  0.024
    9  0.001  0.023  0.000  0.024
   10  0.001  0.023  0.000  0.024
   11  0.001  0.023  0.000  0.024
   12  0.001  0.023  0.000  0.024
   13  0.001  0.023  0.000  0.024
   14  0.001  0.023  0.000  0.024
   15  0.001  0.023  0.000  0.024
   16  0.001  0.023  0.000  0.024
   17  0.001  0.023  0.000  0.024
   18  0.001  0.023  0.000  0.024
tot    0.010  0.412  0.007  0.429
 
band    38 # energy   -3.63473944 # occ.  2.00000000
 
ion      s      p      d    tot
    1  0.006  0.030  0.000  0.036
    2  0.006  0.030  0.000  0.036
    3  0.006  0.030  0.000  0.036
    4  0.004  0.024  0.000  0.028
    5  0.004  0.024  0.000  0.028
    6  0.004  0.024  0.000  0.028
    7  0.005  0.023  0.000  0.029
    8  0.005  0.023  0.000  0.029
    9  0.005  0.023  0.000  0.029
   10  0.005  0.029  0.000  0.035
   11  0.005  0.029  0.000  0.035
   12  0.005  0.029  0.000  0.035
   13  0.006  0.026  0.000  0.032
   14  0.006  0.026  0.000  0.032
   15  0.006  0.026  0.000  0.032
   16  0.004  0.022  0.000  0.026
   17  0.004  0.022  0.000  0.026
   18  0.004  0.022  0.000  0.026
tot    0.091  0.463  0.003  0.557
 
band    39 # energy   -3.63473944 # occ.  2.00000000
 
ion      s      p      d    tot
    1  0.004  0.022  0.000  0.026
    2  0.004  0.022  0.000  0.026
    3  0.004  0.022  0.000  0.026
    4  0.006  0.028  0.000  0.034
    5  0.006  0.028  0.000  0.034
    6  0.006  0.028  0.000  0.034
    7  0.005  0.028  0.000  0.033
    8  0.005  0.028  0.000  0.033
    9  0.005  0.028  0.000  0.033
   10  0.005  0.022  0.000  0.027
   11  0.005  0.022  0.000  0.027
   12  0.005  0.022  0.000  0.027
   13  0.004  0.026  0.000  0.030
   14  0.004  0.026  0.000  0.030
   15  0.004  0.026  0.000  0.030
   16  0.006  0.029  0.000  0.036
   17  0.006  0.029  0.000  0.036
   18  0.006  0.029  0.000  0.036
tot    0.091  0.463  0.003  0.557
 
band    40 # energy   -3.63473944 # occ.  2.00000000
 
ion      s      p      d    tot
    1  0.006  0.040  0.000  0.046
    2  0.009  0.026  0.000  0.036
    3  0.000  0.011  0.000  0.011
    4  0.006  0.040  0.000  0.046
    5  0.009  0.026  0.000  0.036
    6  0.000  0.011  0.000  0.011
    7  0.006  0.040  0.000  0.046
    8  0.009  0.026  0.000  0.036
    9  0.000  0.011  0.000  0.011
   10  0.009  0.043  0.000  0.052
   11  0.000  0.018  0.000  0.018
   12  0.006  0.016  0.000  0.023
   13  0.009  0.043  0.000  0.052
   14  0.000  0.018  0.000  0.018
   15  0.006  0.016  0.000  0.023
   16  0.009  0.043  0.000  0.052
   17  0.000  0.018  0.000  0.018
   18  0.006  0.016  0.000  0.023
tot    0.091  0.463  0.003  0.557
 
band    41 # energy   -3.63473944 # occ.  2.00000000
 
ion      s      p      d    tot
    1  0.004  0.011  0.000  0.016
    2  0.001  0.025  0.000  0.026
    3  0.010  0.041  0.000  0.051
    4  0.004  0.011  0.000  0.016
    5  0.001  0.025  0.000  0.026
    6  0.010  0.041  0.000  0.051
    7  0.004  0.011  0.000  0.016
    8  0.001  0.025  0.000  0.026
    9  0.010  0.041  0.000  0.051
   10  0.002  0.009  0.000  0.010