unknown system                          
           1
     9.847030    0.000000    0.000000
    -4.923515    8.527779    0.000000
     0.000000    0.000000   16.000000
   H 
    18
Direct configuration=     1
   0.22222222  0.11111111  0.46118284
   0.55555556  0.11111111  0.46118284
   0.88888889  0.11111111  0.46118284
   0.22222222  0.44444444  0.46118284
   0.55555556  0.44444444  0.46118284
   0.88888889  0.44444444  0.46118284
   0.22222222  0.77777778  0.46118284
   0.55555556  0.77777778  0.46118284
   0.88888889  0.77777778  0.46118284
   0.11111111  0.22222222  0.53881716
   0.44444444  0.22222222  0.53881716
   0.77777778  0.22222222  0.53881716
   0.11111111  0.55555556  0.53881716
   0.44444444  0.55555556  0.53881716
   0.77777778  0.55555556  0.53881716
   0.11111111  0.88888889  0.53881716
   0.44444444  0.88888889  0.53881716
   0.77777778  0.88888889  0.53881716
