   2   2   1   0
  0.7464293E+02  0.3282344E-09  0.3282344E-09  0.1600000E-08  0.5000000E-15
  1.000000000000000E-004
  CAR 
 unknown system                          
     11.47452394    -18.85266651 6001     -3.32513513      1.00000000
    -18.853  0.0000E+00  0.0000E+00
    -18.848  0.0000E+00  0.0000E+00
    -18.843  0.0000E+00  0.0000E+00
    -18.838  0.0000E+00  0.0000E+00
    -18.832  0.0000E+00  0.0000E+00
    -18.827  0.0000E+00  0.0000E+00
    -18.822  0.0000E+00  0.0000E+00
    -18.817  0.0000E+00  0.0000E+00
    -18.812  0.0000E+00  0.0000E+00
    -18.807  0.0000E+00  0.0000E+00
    -18.802  0.0000E+00  0.0000E+00
    -18.797  0.0000E+00  0.0000E+00
    -18.792  0.0000E+00  0.0000E+00
    -18.787  0.0000E+00  0.0000E+00
    -18.782  0.0000E+00  0.0000E+00
    -18.777  0.0000E+00  0.0000E+00
    -18.772  0.0000E+00  0.0000E+00
    -18.767  0.0000E+00  0.0000E+00
    -18.762  0.0000E+00  0.0000E+00
    -18.757  0.0000E+00  0.0000E+00
    -18.752  0.0000E+00  0.0000E+00
    -18.747  0.0000E+00  0.0000E+00
    -18.741  0.0000E+00  0.0000E+00
    -18.736  0.0000E+00  0.0000E+00
    -18.731  0.0000E+00  0.0000E+00
    -18.726  0.0000E+00  0.0000E+00
    -18.721  0.0000E+00  0.0000E+00
    -18.716  0.0000E+00  0.0000E+00
    -18.711  0.0000E+00  0.0000E+00
    -18.706  0.0000E+00  0.0000E+00
    -18.701  0.0000E+00  0.0000E+00
    -18.696  0.0000E+00  0.0000E+00
    -18.691  0.0000E+00  0.0000E+00
    -18.686  0.0000E+00  0.0000E+00
    -18.681  0.0000E+00  0.0000E+00
    -18.676  0.0000E+00  0.0000E+00
    -18.671  0.0000E+00  0.0000E+00
    -18.666  0.0000E+00  0.0000E+00
    -18.661  0.0000E+00  0.0000E+00
    -18.656  0.0000E+00  0.0000E+00
    -18.650  0.0000E+00  0.0000E+00
    -18.645  0.0000E+00  0.0000E+00
    -18.640  0.0000E+00  0.0000E+00
    -18.635  0.0000E+00  0.0000E+00
    -18.630  0.0000E+00  0.0000E+00
    -18.625  0.0000E+00  0.0000E+00
    -18.620  0.0000E+00  0.0000E+00
    -18.615  0.0000E+00  0.0000E+00
    -18.610  0.0000E+00  0.0000E+00
    -18.605  0.0000E+00  0.0000E+00
    -18.600  0.0000E+00  0.0000E+00
    -18.595  0.0000E+00  0.0000E+00
    -18.590  0.0000E+00  0.0000E+00
    -18.585  0.0000E+00  0.0000E+00
    -18.580  0.0000E+00  0.0000E+00
    -18.575  0.0000E+00  0.0000E+00
    -18.570  0.0000E+00  0.0000E+00
    -18.565  0.0000E+00  0.0000E+00
    -18.560  0.0000E+00  0.0000E+00
    -18.554  0.0000E+00  0.0000E+00
    -18.549  0.0000E+00  0.0000E+00
    -18.544  0.0000E+00  0.0000E+00
    -18.539  0.0000E+00  0.0000E+00
    -18.534  0.0000E+00  0.0000E+00
    -18.529  0.0000E+00  0.0000E+00
    -18.524  0.0000E+00  0.0000E+00
    -18.519  0.0000E+00  0.0000E+00
    -18.514  0.0000E+00  0.0000E+00
    -18.509  0.0000E+00  0.0000E+00
    -18.504  0.0000E+00  0.0000E+00
    -18.499  0.0000E+00  0.0000E+00
    -18.494  0.0000E+00  0.0000E+00
    -18.489  0.0000E+00  0.0000E+00
    -18.484  0.0000E+00  0.0000E+00
    -18.479  0.0000E+00  0.0000E+00
    -18.474  0.0000E+00  0.0000E+00
    -18.469  0.0000E+00  0.0000E+00
    -18.463  0.0000E+00  0.0000E+00
    -18.458  0.0000E+00  0.0000E+00
    -18.453  0.0000E+00  0.0000E+00
    -18.448  0.0000E+00  0.0000E+00
    -18.443  0.0000E+00  0.0000E+00
    -18.438  0.0000E+00  0.0000E+00
    -18.433  0.0000E+00  0.0000E+00
    -18.428  0.0000E+00  0.0000E+00
    -18.423  0.0000E+00  0.0000E+00
    -18.418  0.0000E+00  0.0000E+00
    -18.413  0.0000E+00  0.0000E+00
    -18.408  0.0000E+00  0.0000E+00
    -18.403  0.0000E+00  0.0000E+00
    -18.398  0.0000E+00  0.0000E+00
    -18.393  0.0000E+00  0.0000E+00
    -18.388  0.0000E+00  0.0000E+00
    -18.383  0.0000E+00  0.0000E+00
    -18.378  0.0000E+00  0.0000E+00
    -18.372  0.0000E+00  0.0000E+00
    -18.367  0.0000E+00  0.0000E+00
    -18.362  0.0000E+00  0.0000E+00
    -18.357  0.0000E+00  0.0000E+00
    -18.352  0.0000E+00  0.0000E+00
    -18.347  0.0000E+00  0.0000E+00
    -18.342  0.0000E+00  0.0000E+00
    -18.337  0.0000E+00  0.0000E+00
    -18.332  0.0000E+00  0.0000E+00
    -18.327  0.0000E+00  0.0000E+00
    -18.322  0.0000E+00  0.0000E+00
    -18.317  0.0000E+00  0.0000E+00
    -18.312  0.0000E+00  0.0000E+00
    -18.307  0.0000E+00  0.0000E+00
    -18.302  0.0000E+00  0.0000E+00
    -18.297  0.0000E+00  0.0000E+00
    -18.292  0.0000E+00  0.0000E+00
    -18.287  0.0000E+00  0.0000E+00
    -18.282  0.0000E+00  0.0000E+00
    -18.276  0.0000E+00  0.0000E+00
    -18.271  0.0000E+00  0.0000E+00
    -18.266  0.0000E+00  0.0000E+00
    -18.261  0.0000E+00  0.0000E+00
    -18.256  0.0000E+00  0.0000E+00
    -18.251  0.0000E+00  0.0000E+00
    -18.246  0.0000E+00  0.0000E+00
    -18.241  0.0000E+00  0.0000E+00
    -18.236  0.0000E+00  0.0000E+00
    -18.231  0.0000E+00  0.0000E+00
    -18.226  0.0000E+00  0.0000E+00
    -18.221  0.0000E+00  0.0000E+00
    -18.216  0.0000E+00  0.0000E+00
    -18.211  0.0000E+00  0.0000E+00
    -18.206  0.0000E+00  0.0000E+00
    -18.201  0.0000E+00  0.0000E+00
    -18.196  0.0000E+00  0.0000E+00
    -18.191  0.0000E+00  0.0000E+00
    -18.185  0.0000E+00  0.0000E+00
    -18.180  0.0000E+00  0.0000E+00
    -18.175  0.0000E+00  0.0000E+00
    -18.170  0.0000E+00  0.0000E+00
    -18.165  0.0000E+00  0.0000E+00
    -18.160  0.0000E+00  0.0000E+00
    -18.155  0.0000E+00  0.0000E+00
    -18.150  0.0000E+00  0.0000E+00
    -18.145  0.0000E+00  0.0000E+00
    -18.140  0.0000E+00  0.0000E+00
    -18.135  0.0000E+00  0.0000E+00
    -18.130  0.0000E+00  0.0000E+00
    -18.125  0.0000E+00  0.0000E+00
    -18.120  0.0000E+00  0.0000E+00
    -18.115  0.0000E+00  0.0000E+00
    -18.110  0.0000E+00  0.0000E+00
    -18.105  0.0000E+00  0.0000E+00
    -18.100  0.0000E+00  0.0000E+00
    -18.094  0.0000E+00  0.0000E+00
    -18.089  0.0000E+00  0.0000E+00
    -18.084  0.0000E+00  0.0000E+00
    -18.079  0.0000E+00  0.0000E+00
    -18.074  0.0000E+00  0.0000E+00
    -18.069  0.0000E+00  0.0000E+00
    -18.064  0.0000E+00  0.0000E+00
    -18.059  0.0000E+00  0.0000E+00
    -18.054  0.0000E+00  0.0000E+00
    -18.049  0.0000E+00  0.0000E+00
    -18.044  0.0000E+00  0.0000E+00
    -18.039  0.0000E+00  0.0000E+00
    -18.034  0.0000E+00  0.0000E+00
    -18.029  0.0000E+00  0.0000E+00
    -18.024  0.0000E+00  0.0000E+00
    -18.019  0.0000E+00  0.0000E+00
    -18.014  0.0000E+00  0.0000E+00
    -18.009  0.0000E+00  0.0000E+00
    -18.004  0.0000E+00  0.0000E+00
    -17.998  0.0000E+00  0.0000E+00
    -17.993  0.0000E+00  0.0000E+00
    -17.988  0.0000E+00  0.0000E+00
    -17.983  0.0000E+00  0.0000E+00
    -17.978  0.0000E+00  0.0000E+00
    -17.973  0.0000E+00  0.0000E+00
    -17.968  0.0000E+00  0.0000E+00
    -17.963  0.0000E+00  0.0000E+00
    -17.958  0.0000E+00  0.0000E+00
    -17.953  0.0000E+00  0.0000E+00
    -17.948  0.0000E+00  0.0000E+00
    -17.943  0.0000E+00  0.0000E+00
    -17.938  0.0000E+00  0.0000E+00
    -17.933  0.0000E+00  0.0000E+00
    -17.928  0.0000E+00  0.0000E+00
    -17.923  0.0000E+00  0.0000E+00
    -17.918  0.0000E+00  0.0000E+00
    -17.913  0.0000E+00  0.0000E+00
    -17.907  0.0000E+00  0.0000E+00
    -17.902  0.0000E+00  0.0000E+00
    -17.897  0.0000E+00  0.0000E+00
    -17.892  0.0000E+00  0.0000E+00
    -17.887  0.0000E+00  0.0000E+00
    -17.882  0.0000E+00  0.0000E+00
    -17.877  0.0000E+00  0.0000E+00
    -17.872  0.0000E+00  0.0000E+00
    -17.867  0.0000E+00  0.0000E+00
    -17.862  0.0000E+00  0.0000E+00
    -17.857  0.0000E+00  0.0000E+00
    -17.852  0.0000E+00  0.0000E+00
    -17.847  0.0000E+00  0.0000E+00
    -17.842  0.0000E+00  0.0000E+00
    -17.837  0.0000E+00  0.0000E+00
    -17.832  0.0000E+00  0.0000E+00
    -17.827  0.0000E+00  0.0000E+00
    -17.822  0.0000E+00  0.0000E+00
    -17.816  0.0000E+00  0.0000E+00
    -17.811  0.0000E+00  0.0000E+00
    -17.806  0.0000E+00  0.0000E+00
    -17.801  0.0000E+00  0.0000E+00
    -17.796  0.0000E+00  0.0000E+00
    -17.791  0.0000E+00  0.0000E+00
    -17.786  0.0000E+00  0.0000E+00
    -17.781  0.0000E+00  0.0000E+00
    -17.776  0.0000E+00  0.0000E+00
    -17.771  0.0000E+00  0.0000E+00
    -17.766  0.0000E+00  0.0000E+00
    -17.761  0.0000E+00  0.0000E+00
    -17.756  0.0000E+00  0.0000E+00
    -17.751  0.0000E+00  0.0000E+00
    -17.746  0.0000E+00  0.0000E+00
    -17.741  0.0000E+00  0.0000E+00
    -17.736  0.0000E+00  0.0000E+00
    -17.731  0.0000E+00  0.0000E+00
    -17.726  0.0000E+00  0.0000E+00
    -17.720  0.0000E+00  0.0000E+00
    -17.715  0.0000E+00  0.0000E+00
    -17.710  0.0000E+00  0.0000E+00
    -17.705  0.0000E+00  0.0000E+00
    -17.700  0.0000E+00  0.0000E+00
    -17.695  0.0000E+00  0.0000E+00
    -17.690  0.0000E+00  0.0000E+00
    -17.685  0.0000E+00  0.0000E+00
    -17.680  0.0000E+00  0.0000E+00
    -17.675  0.0000E+00  0.0000E+00
    -17.670  0.0000E+00  0.0000E+00
    -17.665  0.0000E+00  0.0000E+00
    -17.660  0.0000E+00  0.0000E+00
    -17.655  0.0000E+00  0.0000E+00
    -17.650  0.0000E+00  0.0000E+00
    -17.645  0.0000E+00  0.0000E+00
    -17.640  0.0000E+00  0.0000E+00
    -17.635  0.0000E+00  0.0000E+00
    -17.629  0.0000E+00  0.0000E+00
    -17.624  0.0000E+00  0.0000E+00
    -17.619  0.0000E+00  0.0000E+00
    -17.614  0.0000E+00  0.0000E+00
    -17.609  0.0000E+00  0.0000E+00
    -17.604  0.0000E+00  0.0000E+00
    -17.599  0.0000E+00  0.0000E+00
    -17.594  0.0000E+00  0.0000E+00
    -17.589  0.0000E+00  0.0000E+00
    -17.584  0.0000E+00  0.0000E+00
    -17.579  0.0000E+00  0.0000E+00
    -17.574  0.0000E+00  0.0000E+00
    -17.569  0.0000E+00  0.0000E+00
    -17.564  0.0000E+00  0.0000E+00
    -17.559  0.0000E+00  0.0000E+00
    -17.554  0.0000E+00  0.0000E+00
    -17.549  0.0000E+00  0.0000E+00
    -17.544  0.0000E+00  0.0000E+00
    -17.538  0.0000E+00  0.0000E+00
    -17.533  0.0000E+00  0.0000E+00
    -17.528  0.4539E-13  0.2294E-15
    -17.523  0.9485E-11  0.4817E-13
    -17.518  0.1207E-08  0.6148E-11
    -17.513  0.9346E-07  0.4786E-09
    -17.508  0.4416E-05  0.2280E-07
    -17.503  0.1276E-03  0.6678E-06
    -17.498  0.2263E-02  0.1211E-04
    -17.493  0.2473E-01  0.1371E-03
    -17.488  0.1674E+00  0.9834E-03
    -17.483  0.7086E+00  0.4565E-02
    -17.478  0.1903E+01  0.1418E-01
    -17.473  0.3328E+01  0.3100E-01
    -17.468  0.3981E+01  0.5112E-01
    -17.463  0.3573E+01  0.6918E-01
    -17.458  0.2825E+01  0.8346E-01
    -17.453  0.2262E+01  0.9489E-01
    -17.448  0.1853E+01  0.1043E+00
    -17.442  0.1677E+01  0.1127E+00
    -17.437  0.1680E+01  0.1212E+00
    -17.432  0.1462E+01  0.1286E+00
    -17.427  0.1149E+01  0.1344E+00
    -17.422  0.1233E+01  0.1407E+00
    -17.417  0.1498E+01  0.1482E+00
    -17.412  0.1331E+01  0.1550E+00
    -17.407  0.8514E+00  0.1593E+00
    -17.402  0.7216E+00  0.1629E+00
    -17.397  0.1119E+01  0.1686E+00
    -17.392  0.1472E+01  0.1760E+00
    -17.387  0.1236E+01  0.1823E+00
    -17.382  0.6712E+00  0.1856E+00
    -17.377  0.3938E+00  0.1876E+00
    -17.372  0.6599E+00  0.1910E+00
    -17.367  0.1224E+01  0.1972E+00
    -17.362  0.1468E+01  0.2046E+00
    -17.357  0.1083E+01  0.2101E+00
    -17.351  0.4995E+00  0.2126E+00
    -17.346  0.2103E+00  0.2136E+00
    -17.341  0.3474E+00  0.2154E+00
    -17.336  0.8606E+00  0.2197E+00
    -17.331  0.1391E+01  0.2268E+00
    -17.326  0.1381E+01  0.2338E+00
    -17.321  0.8403E+00  0.2380E+00
    -17.316  0.3166E+00  0.2396E+00
    -17.311  0.1026E+00  0.2401E+00
    -17.306  0.1807E+00  0.2410E+00
    -17.301  0.5725E+00  0.2439E+00
    -17.296  0.1172E+01  0.2499E+00
    -17.291  0.1473E+01  0.2573E+00
    -17.286  0.1134E+01  0.2630E+00
    -17.281  0.5351E+00  0.2657E+00
    -17.276  0.1560E+00  0.2665E+00
    -17.271  0.4256E-01  0.2667E+00
    -17.266  0.1023E+00  0.2673E+00
    -17.260  0.3956E+00  0.2693E+00
    -17.255  0.9631E+00  0.2741E+00
    -17.250  0.1437E+01  0.2814E+00
    -17.245  0.1314E+01  0.2880E+00
    -17.240  0.7366E+00  0.2917E+00
    -17.235  0.2529E+00  0.2930E+00
    -17.230  0.5389E-01  0.2933E+00
    -17.225  0.1629E-01  0.2934E+00
    -17.220  0.6927E-01  0.2937E+00
    -17.215  0.3047E+00  0.2953E+00
    -17.210  0.8263E+00  0.2994E+00
    -17.205  0.1373E+01  0.3064E+00
    -17.200  0.1398E+01  0.3135E+00
    -17.195  0.8720E+00  0.3179E+00
    -17.190  0.3333E+00  0.3195E+00
    -17.185  0.7799E-01  0.3199E+00
    -17.180  0.1178E-01  0.3200E+00
    -17.175  0.8867E-02  0.3200E+00
    -17.170  0.5966E-01  0.3203E+00
    -17.164  0.2750E+00  0.3217E+00
    -17.159  0.7761E+00  0.3257E+00
    -17.154  0.1342E+01  0.3324E+00
    -17.149  0.1421E+01  0.3396E+00
    -17.144  0.9228E+00  0.3443E+00
    -17.139  0.3670E+00  0.3461E+00
    -17.134  0.8935E-01  0.3466E+00
    -17.129  0.1333E-01  0.3467E+00
    -17.124  0.1959E-02  0.3467E+00
    -17.119  0.9099E-02  0.3467E+00
    -17.114  0.6622E-01  0.3471E+00
    -17.109  0.2966E+00  0.3486E+00
    -17.104  0.8130E+00  0.3527E+00
    -17.099  0.1365E+01  0.3596E+00
    -17.094  0.1404E+01  0.3667E+00
    -17.089  0.8855E+00  0.3711E+00
    -17.084  0.3420E+00  0.3729E+00
    -17.079  0.8085E-01  0.3733E+00
    -17.073  0.1168E-01  0.3733E+00
    -17.068  0.1103E-02  0.3733E+00
    -17.063  0.1360E-02  0.3733E+00
    -17.058  0.1416E-01  0.3734E+00
    -17.053  0.9381E-01  0.3739E+00
    -17.048  0.3798E+00  0.3758E+00
    -17.043  0.9412E+00  0.3806E+00
    -17.038  0.1429E+01  0.3878E+00
    -17.033  0.1329E+01  0.3945E+00
    -17.028  0.7580E+00  0.3983E+00
    -17.023  0.2647E+00  0.3997E+00
    -17.018  0.5655E-01  0.4000E+00
    -17.013  0.7383E-02  0.4000E+00
    -17.008  0.5967E-03  0.4000E+00
    -17.003  0.2453E-03  0.4000E+00
    -16.998  0.3236E-02  0.4000E+00
    -16.993  0.2943E-01  0.4002E+00
    -16.988  0.1635E+00  0.4010E+00
    -16.982  0.5556E+00  0.4038E+00
    -16.977  0.1156E+01  0.4096E+00
    -16.972  0.1473E+01  0.4171E+00
    -16.967  0.1151E+01  0.4229E+00
    -16.962  0.5508E+00  0.4257E+00
    -16.957  0.1614E+00  0.4265E+00
    -16.952  0.2893E-01  0.4266E+00
    -16.947  0.3166E-02  0.4267E+00
    -16.942  0.2128E-03  0.4267E+00
    -16.937  0.5743E-04  0.4267E+00
    -16.932  0.9277E-03  0.4267E+00
    -16.927  0.1073E-01  0.4267E+00
    -16.922  0.7568E-01  0.4271E+00
    -16.917  0.3264E+00  0.4288E+00
    -16.912  0.8612E+00  0.4331E+00
    -16.907  0.1392E+01  0.4401E+00
    -16.902  0.1379E+01  0.4471E+00
    -16.897  0.8371E+00  0.4513E+00
    -16.892  0.3113E+00  0.4529E+00
    -16.886  0.7083E-01  0.4533E+00
    -16.881  0.9850E-02  0.4533E+00
    -16.876  0.8357E-03  0.4533E+00
    -16.871  0.4365E-04  0.4533E+00
    -16.866  0.1845E-04  0.4533E+00
    -16.861  0.3805E-03  0.4533E+00
    -16.856  0.5159E-02  0.4534E+00
    -16.851  0.4265E-01  0.4536E+00
    -16.846  0.2154E+00  0.4547E+00
    -16.841  0.6653E+00  0.4580E+00
    -16.836  0.1259E+01  0.4644E+00
    -16.831  0.1459E+01  0.4718E+00
    -16.826  0.1036E+01  0.4770E+00
    -16.821  0.4512E+00  0.4793E+00
    -16.816  0.1202E+00  0.4799E+00
    -16.811  0.1958E-01  0.4800E+00
    -16.806  0.1947E-02  0.4800E+00
    -16.801  0.1180E-03  0.4800E+00
    -16.795  0.4615E-05  0.4800E+00
    -16.790  0.1050E-04  0.4800E+00
    -16.785  0.2491E-03  0.4800E+00
    -16.780  0.3631E-02  0.4800E+00
    -16.775  0.3228E-01  0.4802E+00
    -16.770  0.1752E+00  0.4811E+00
    -16.765  0.5815E+00  0.4840E+00
    -16.760  0.1182E+01  0.4900E+00
    -16.755  0.1472E+01  0.4974E+00
    -16.750  0.1124E+01  0.5031E+00
    -16.745  0.5255E+00  0.5058E+00
    -16.740  0.1505E+00  0.5065E+00
    -16.735  0.2635E-01  0.5067E+00
    -16.730  0.2817E-02  0.5067E+00
    -16.725  0.1836E-03  0.5067E+00
    -16.720  0.7285E-05  0.5067E+00
    -16.715  0.4775E-06  0.5067E+00
    -16.710  0.1171E-04  0.5067E+00
    -16.704  0.2755E-03  0.5067E+00
    -16.699  0.3949E-02  0.5067E+00
    -16.694  0.3450E-01  0.5069E+00
    -16.689  0.1841E+00  0.5078E+00
    -16.684  0.6008E+00  0.5108E+00
    -16.679  0.1201E+01  0.5169E+00
    -16.674  0.1470E+01  0.5243E+00
    -16.669  0.1103E+01  0.5299E+00
    -16.664  0.5074E+00  0.5325E+00
    -16.659  0.1428E+00  0.5332E+00
    -16.654  0.2459E-01  0.5333E+00
    -16.649  0.2584E-02  0.5333E+00
    -16.644  0.1656E-03  0.5333E+00
    -16.639  0.6454E-05  0.5333E+00
    -16.634  0.1652E-06  0.5333E+00
    -16.629  0.7087E-06  0.5333E+00
    -16.624  0.2452E-04  0.5333E+00
    -16.619  0.5173E-03  0.5333E+00
    -16.614  0.6646E-02  0.5334E+00
    -16.608  0.5208E-01  0.5336E+00
    -16.603  0.2493E+00  0.5349E+00
    -16.598  0.7301E+00  0.5386E+00
    -16.593  0.1310E+01  0.5452E+00
    -16.588  0.1439E+01  0.5525E+00
    -16.583  0.9697E+00  0.5574E+00
    -16.578  0.4002E+00  0.5594E+00
    -16.573  0.1011E+00  0.5599E+00
    -16.568  0.1561E-01  0.5600E+00
    -16.563  0.1471E-02  0.5600E+00
    -16.558  0.8446E-04  0.5600E+00
    -16.553  0.2950E-05  0.5600E+00
    -16.548  0.6353E-07  0.5600E+00
    -16.543  0.7301E-07  0.5600E+00
    -16.538  0.3345E-05  0.5600E+00
    -16.533  0.9412E-04  0.5600E+00
    -16.528  0.1611E-02  0.5600E+00
    -16.523  0.1680E-01  0.5601E+00
    -16.517  0.1069E+00  0.5606E+00
    -16.512  0.4162E+00  0.5627E+00
    -16.507  0.9913E+00  0.5677E+00
    -16.502  0.1447E+01  0.5751E+00
    -16.497  0.1294E+01  0.5816E+00
    -16.492  0.7090E+00  0.5852E+00
    -16.487  0.2380E+00  0.5864E+00
    -16.482  0.4886E-01  0.5866E+00
    -16.477  0.6129E-02  0.5867E+00
    -16.472  0.4689E-03  0.5867E+00
    -16.467  0.2184E-04  0.5867E+00
    -16.462  0.6185E-06  0.5867E+00
    -16.457  0.1080E-07  0.5867E+00
    -16.452  0.1553E-07  0.5867E+00
    -16.447  0.8592E-06  0.5867E+00
    -16.442  0.2906E-04  0.5867E+00
    -16.437  0.5976E-03  0.5867E+00
    -16.432  0.7483E-02  0.5867E+00
    -16.426  0.5716E-01  0.5870E+00
    -16.421  0.2667E+00  0.5883E+00
    -16.416  0.7616E+00  0.5922E+00
    -16.411  0.1332E+01  0.5989E+00
    -16.406  0.1427E+01  0.6061E+00
    -16.401  0.9375E+00  0.6109E+00
    -16.396  0.3772E+00  0.6128E+00
    -16.391  0.9288E-01  0.6133E+00
    -16.386  0.1398E-01  0.6133E+00
    -16.381  0.1284E-02  0.6133E+00
    -16.376  0.7187E-04  0.6133E+00
    -16.371  0.2446E-05  0.6133E+00
    -16.366  0.5057E-07  0.6133E+00
    -16.361  0.7180E-09  0.6133E+00
    -16.356  0.8319E-08  0.6133E+00
    -16.351  0.4978E-06  0.6133E+00
    -16.346  0.1808E-04  0.6133E+00
    -16.341  0.3993E-03  0.6133E+00
    -16.336  0.5368E-02  0.6134E+00
    -16.330  0.4401E-01  0.6136E+00
    -16.325  0.2204E+00  0.6147E+00
    -16.320  0.6753E+00  0.6181E+00
    -16.315  0.1267E+01  0.6245E+00
    -16.310  0.1456E+01  0.6319E+00
    -16.305  0.1026E+01  0.6371E+00
    -16.300  0.4429E+00  0.6393E+00
    -16.295  0.1170E+00  0.6399E+00
    -16.290  0.1891E-01  0.6400E+00
    -16.285  0.1864E-02  0.6400E+00
    -16.280  0.1120E-03  0.6400E+00
    -16.275  0.4095E-05  0.6400E+00
    -16.270  0.9094E-07  0.6400E+00
    -16.265  0.1225E-08  0.6400E+00
    -16.260  0.1414E-09  0.6400E+00
    -16.255  0.1240E-07  0.6400E+00
    -16.250  0.7086E-06  0.6400E+00
    -16.245  0.2459E-04  0.6400E+00
    -16.239  0.5185E-03  0.6400E+00
    -16.234  0.6658E-02  0.6400E+00
    -16.229  0.5215E-01  0.6403E+00
    -16.224  0.2496E+00  0.6416E+00
    -16.219  0.7306E+00  0.6453E+00
    -16.214  0.1310E+01  0.6519E+00
    -16.209  0.1439E+01  0.6592E+00
    -16.204  0.9692E+00  0.6640E+00
    -16.199  0.3998E+00  0.6661E+00
    -16.194  0.1009E+00  0.6666E+00
    -16.189  0.1558E-01  0.6667E+00
    -16.184  0.1467E-02  0.6667E+00
    -16.179  0.8422E-04  0.6667E+00
    -16.174  0.2940E-05  0.6667E+00
    -16.169  0.6234E-07  0.6667E+00
    -16.164  0.8016E-09  0.6667E+00
    -16.159  0.1146E-10  0.6667E+00
    -16.154  0.6826E-09  0.6667E+00
    -16.148  0.5403E-07  0.6667E+00
    -16.143  0.2593E-05  0.6667E+00
    -16.138  0.7557E-04  0.6667E+00
    -16.133  0.1340E-02  0.6667E+00
    -16.128  0.1447E-01  0.6667E+00
    -16.123  0.9537E-01  0.6672E+00
    -16.118  0.3842E+00  0.6692E+00
    -16.113  0.9475E+00  0.6740E+00
    -16.108  0.1431E+01  0.6812E+00
    -16.103  0.1325E+01  0.6879E+00
    -16.098  0.7518E+00  0.6917E+00
    -16.093  0.2612E+00  0.6930E+00
    -16.088  0.5553E-01  0.6933E+00
    -16.083  0.7212E-02  0.6933E+00
    -16.078  0.5714E-03  0.6933E+00
    -16.073  0.2757E-04  0.6933E+00
    -16.068  0.8084E-06  0.6933E+00
    -16.063  0.1439E-07  0.6933E+00
    -16.058  0.1553E-09  0.6933E+00
    -16.052  0.1722E-11  0.6933E+00
    -16.047  0.1122E-09  0.6933E+00
    -16.042  0.1076E-07  0.6933E+00
    -16.037  0.6251E-06  0.6933E+00
    -16.032  0.2205E-04  0.6933E+00
    -16.027  0.4726E-03  0.6933E+00
    -16.022  0.6169E-02  0.6934E+00
    -16.017  0.4912E-01  0.6936E+00
    -16.012  0.2389E+00  0.6948E+00
    -16.007  0.7108E+00  0.6984E+00
    -16.002  0.1295E+01  0.7050E+00
    -15.997  0.1446E+01  0.7123E+00
    -15.992  0.9896E+00  0.7173E+00
    -15.987  0.4149E+00  0.7194E+00
    -15.982  0.1065E+00  0.7199E+00
    -15.977  0.1670E-01  0.7200E+00
    -15.972  0.1599E-02  0.7200E+00
    -15.967  0.9327E-04  0.7200E+00
    -15.961  0.3310E-05  0.7200E+00
    -15.956  0.7134E-07  0.7200E+00
    -15.951  0.9325E-09  0.7200E+00
    -15.946  0.7383E-11  0.7200E+00
    -15.941  0.4594E-12  0.7200E+00
    -15.936  0.7051E-10  0.7200E+00
    -15.931  0.7095E-08  0.7200E+00
    -15.926  0.4326E-06  0.7200E+00
    -15.921  0.1600E-04  0.7200E+00
    -15.916  0.3599E-03  0.7200E+00
    -15.911  0.4926E-02  0.7200E+00
    -15.906  0.4112E-01  0.7202E+00
    -15.901  0.2097E+00  0.7213E+00
    -15.896  0.6539E+00  0.7246E+00
    -15.891  0.1249E+01  0.7309E+00
    -15.886  0.1462E+01  0.7383E+00
    -15.881  0.1048E+01  0.7436E+00
    -15.876  0.4606E+00  0.7459E+00
    -15.870  0.1239E+00  0.7466E+00
    -15.865  0.2038E-01  0.7467E+00
    -15.860  0.2046E-02  0.7467E+00
    -15.855  0.1252E-03  0.7467E+00
    -15.850  0.4659E-05  0.7467E+00
    -15.845  0.1053E-06  0.7467E+00
    -15.840  0.1445E-08  0.7467E+00
    -15.835  0.1200E-10  0.7467E+00
    -15.830  0.6589E-13  0.7467E+00
    -15.825  0.1359E-11  0.7467E+00
    -15.820  0.2023E-09  0.7467E+00
    -15.815  0.1824E-07  0.7467E+00
    -15.810  0.9964E-06  0.7467E+00
    -15.805  0.3305E-04  0.7467E+00
    -15.800  0.6664E-03  0.7467E+00
    -15.795  0.8183E-02  0.7467E+00
    -15.790  0.6131E-01  0.7470E+00
    -15.785  0.2806E+00  0.7484E+00
    -15.780  0.7859E+00  0.7524E+00
    -15.774  0.1348E+01  0.7592E+00
    -15.769  0.1417E+01  0.7664E+00
    -15.764  0.9128E+00  0.7710E+00
    -15.759  0.3602E+00  0.7728E+00
    -15.754  0.8700E-01  0.7733E+00
    -15.749  0.1284E-01  0.7733E+00
    -15.744  0.1157E-02  0.7733E+00
    -15.739  0.6347E-04  0.7733E+00
    -15.734  0.2118E-05  0.7733E+00
    -15.729  0.4293E-07  0.7733E+00
    -15.724  0.5274E-09  0.7733E+00
    -15.719  0.3924E-11  0.7733E+00
    -15.714  0.1786E-13  0.7733E+00
    -15.709  0.1215E-12  0.7733E+00
    -15.704  0.2268E-10  0.7733E+00
    -15.699  0.2562E-08  0.7733E+00
    -15.694  0.1753E-06  0.7733E+00
    -15.689  0.7276E-05  0.7733E+00
    -15.683  0.1835E-03  0.7733E+00
    -15.678  0.2816E-02  0.7733E+00
    -15.673  0.2634E-01  0.7735E+00
    -15.668  0.1505E+00  0.7742E+00
    -15.663  0.5255E+00  0.7769E+00
    -15.658  0.1124E+01  0.7826E+00
    -15.653  0.1472E+01  0.7900E+00
    -15.648  0.1182E+01  0.7960E+00
    -15.643  0.5815E+00  0.7989E+00
    -15.638  0.1752E+00  0.7998E+00
    -15.633  0.3227E-01  0.8000E+00
    -15.628  0.3631E-02  0.8000E+00
    -15.623  0.2490E-03  0.8000E+00
    -15.618  0.1040E-04  0.8000E+00
    -15.613  0.2637E-06  0.8000E+00
    -15.608  0.4059E-08  0.8000E+00
    -15.603  0.3785E-10  0.8000E+00
    -15.598  0.2134E-12  0.8000E+00
    -15.592  0.1171E-14  0.8000E+00
    -15.587  0.7534E-13  0.8000E+00
    -15.582  0.1471E-10  0.8000E+00
    -15.577  0.1736E-08  0.8000E+00
    -15.572  0.1240E-06  0.8000E+00
    -15.567  0.5375E-05  0.8000E+00
    -15.562  0.1415E-03  0.8000E+00
    -15.557  0.2267E-02  0.8000E+00
    -15.552  0.2214E-01  0.8001E+00
    -15.547  0.1319E+00  0.8008E+00
    -15.542  0.4808E+00  0.8032E+00
    -15.537  0.1073E+01  0.8086E+00
    -15.532  0.1466E+01  0.8161E+00
    -15.527  0.1228E+01  0.8223E+00
    -15.522  0.6304E+00  0.8254E+00
    -15.517  0.1981E+00  0.8264E+00
    -15.512  0.3809E-01  0.8266E+00
    -15.507  0.4473E-02  0.8267E+00
    -15.502  0.3202E-03  0.8267E+00
    -15.496  0.1396E-04  0.8267E+00
    -15.491  0.3696E-06  0.8267E+00
    -15.486  0.5940E-08  0.8267E+00
    -15.481  0.5785E-10  0.8267E+00
    -15.476  0.3409E-12  0.8267E+00
    -15.471  0.1171E-14  0.8267E+00
    -15.466  0.1464E-14  0.8267E+00
    -15.461  0.3996E-12  0.8267E+00
    -15.456  0.6682E-10  0.8267E+00
    -15.451  0.6761E-08  0.8267E+00
    -15.446  0.4145E-06  0.8267E+00
    -15.441  0.1542E-04  0.8267E+00
    -15.436  0.3487E-03  0.8267E+00
    -15.431  0.4799E-02  0.8267E+00
    -15.426  0.4028E-01  0.8269E+00
    -15.421  0.2065E+00  0.8279E+00
    -15.416  0.6475E+00  0.8312E+00
    -15.411  0.1243E+01  0.8375E+00
    -15.405  0.1463E+01  0.8449E+00
    -15.400  0.1055E+01  0.8502E+00
    -15.395  0.4660E+00  0.8526E+00
    -15.390  0.1260E+00  0.8532E+00
    -15.385  0.2084E-01  0.8533E+00
    -15.380  0.2103E-02  0.8533E+00
    -15.375  0.1294E-03  0.8533E+00
    -15.370  0.4842E-05  0.8533E+00
    -15.365  0.1101E-06  0.8533E+00
    -15.360  0.1518E-08  0.8533E+00
    -15.355  0.1267E-10  0.8533E+00
    -15.350  0.6399E-13  0.8533E+00
    -15.345  0.0000E+00  0.8533E+00
    -15.340  0.2929E-15  0.8533E+00
    -15.335  0.9379E-13  0.8533E+00
    -15.330  0.1792E-10  0.8533E+00
    -15.325  0.2073E-08  0.8533E+00
    -15.320  0.1452E-06  0.8533E+00
    -15.314  0.6172E-05  0.8533E+00
    -15.309  0.1594E-03  0.8533E+00
    -15.304  0.2503E-02  0.8533E+00
    -15.299  0.2397E-01  0.8535E+00
    -15.294  0.1401E+00  0.8542E+00
    -15.289  0.5009E+00  0.8567E+00
    -15.284  0.1096E+01  0.8622E+00
    -15.279  0.1470E+01  0.8697E+00
    -15.274  0.1207E+01  0.8758E+00
    -15.269  0.6079E+00  0.8789E+00
    -15.264  0.1874E+00  0.8798E+00
    -15.259  0.3534E-01  0.8800E+00
    -15.254  0.4069E-02  0.8800E+00
    -15.249  0.2857E-03  0.8800E+00
    -15.244  0.1221E-04  0.8800E+00
    -15.239  0.3170E-06  0.8800E+00
    -15.234  0.4995E-08  0.8800E+00
    -15.229  0.4769E-10  0.8800E+00
    -15.224  0.2753E-12  0.8800E+00
    -15.218  0.1171E-14  0.8800E+00
    -15.213  0.0000E+00  0.8800E+00
    -15.208  0.8786E-15  0.8800E+00
    -15.203  0.2730E-12  0.8800E+00
    -15.198  0.4728E-10  0.8800E+00
    -15.193  0.4957E-08  0.8800E+00
    -15.188  0.3149E-06  0.8800E+00
    -15.183  0.1214E-04  0.8800E+00
    -15.178  0.2842E-03  0.8800E+00
    -15.173  0.4052E-02  0.8800E+00
    -15.168  0.3522E-01  0.8802E+00
    -15.163  0.1870E+00  0.8811E+00
    -15.158  0.6070E+00  0.8842E+00
    -15.153  0.1207E+01  0.8903E+00
    -15.148  0.1470E+01  0.8977E+00
    -15.143  0.1097E+01  0.9033E+00
    -15.138  0.5018E+00  0.9058E+00
    -15.133  0.1405E+00  0.9065E+00
    -15.127  0.2405E-01  0.9067E+00
    -15.122  0.2514E-02  0.9067E+00
    -15.117  0.1602E-03  0.9067E+00
    -15.112  0.6209E-05  0.9067E+00
    -15.107  0.1462E-06  0.9067E+00
    -15.102  0.2089E-08  0.9067E+00
    -15.097  0.1807E-10  0.9067E+00
    -15.092  0.9489E-13  0.9067E+00
    -15.087  0.0000E+00  0.9067E+00
    -15.082  0.0000E+00  0.9067E+00
    -15.077  0.2929E-15  0.9067E+00
    -15.072  0.5213E-13  0.9067E+00
    -15.067  0.1053E-10  0.9067E+00
    -15.062  0.1285E-08  0.9067E+00
    -15.057  0.9493E-07  0.9067E+00
    -15.052  0.4253E-05  0.9067E+00
    -15.047  0.1157E-03  0.9067E+00
    -15.042  0.1916E-02  0.9067E+00
    -15.036  0.1933E-01  0.9068E+00
    -15.031  0.1190E+00  0.9074E+00
    -15.026  0.4481E+00  0.9096E+00
    -15.021  0.1033E+01  0.9149E+00
    -15.016  0.1458E+01  0.9222E+00
    -15.011  0.1262E+01  0.9286E+00
    -15.006  0.6689E+00  0.9320E+00
    -15.001  0.2172E+00  0.9331E+00
    -14.996  0.4313E-01  0.9333E+00
    -14.991  0.5233E-02  0.9333E+00
    -14.986  0.3871E-03  0.9333E+00
    -14.981  0.1743E-04  0.9333E+00
    -14.976  0.4772E-06  0.9333E+00
    -14.971  0.7927E-08  0.9333E+00
    -14.966  0.7978E-10  0.9333E+00
    -14.961  0.4859E-12  0.9333E+00
    -14.956  0.1904E-14  0.9333E+00
    -14.951  0.0000E+00  0.9333E+00
    -14.946  0.0000E+00  0.9333E+00
    -14.940  0.7322E-15  0.9333E+00
    -14.935  0.2175E-12  0.9333E+00
    -14.930  0.3847E-10  0.9333E+00
    -14.925  0.4119E-08  0.9333E+00
    -14.920  0.2672E-06  0.9333E+00
    -14.915  0.1052E-04  0.9333E+00
    -14.910  0.2515E-03  0.9333E+00
    -14.905  0.3661E-02  0.9334E+00
    -14.900  0.3249E-01  0.9335E+00
    -14.895  0.1760E+00  0.9344E+00
    -14.890  0.5834E+00  0.9374E+00
    -14.885  0.1184E+01  0.9433E+00
    -14.880  0.1472E+01  0.9508E+00
    -14.875  0.1122E+01  0.9564E+00
    -14.870  0.5236E+00  0.9591E+00
    -14.865  0.1497E+00  0.9599E+00
    -14.860  0.2616E-01  0.9600E+00
    -14.855  0.2791E-02  0.9600E+00
    -14.849  0.1816E-03  0.9600E+00
    -14.844  0.7186E-05  0.9600E+00
    -14.839  0.1728E-06  0.9600E+00
    -14.834  0.2521E-08  0.9600E+00
    -14.829  0.2227E-10  0.9600E+00
    -14.824  0.1195E-12  0.9600E+00
    -14.819  0.0000E+00  0.9600E+00
    -14.814  0.0000E+00  0.9600E+00
    -14.809  0.0000E+00  0.9600E+00
    -14.804  0.2929E-15  0.9600E+00
    -14.799  0.1079E-12  0.9600E+00
    -14.794  0.2037E-10  0.9600E+00
    -14.789  0.2326E-08  0.9600E+00
    -14.784  0.1609E-06  0.9600E+00
    -14.779  0.6751E-05  0.9600E+00
    -14.774  0.1721E-03  0.9600E+00
    -14.769  0.2669E-02  0.9600E+00
    -14.764  0.2524E-01  0.9601E+00
    -14.758  0.1457E+00  0.9609E+00
    -14.753  0.5142E+00  0.9635E+00
    -14.748  0.1111E+01  0.9691E+00
    -14.743  0.1471E+01  0.9765E+00
    -14.738  0.1194E+01  0.9826E+00
    -14.733  0.5934E+00  0.9856E+00
    -14.728  0.1806E+00  0.9865E+00
    -14.723  0.3363E-01  0.9866E+00
    -14.718  0.3824E-02  0.9867E+00
    -14.713  0.2650E-03  0.9867E+00
    -14.708  0.1118E-04  0.9867E+00
    -14.703  0.2867E-06  0.9867E+00
    -14.698  0.4458E-08  0.9867E+00
    -14.693  0.4201E-10  0.9867E+00
    -14.688  0.2390E-12  0.9867E+00
    -14.683  0.1171E-14  0.9867E+00