 running   16 mpi-ranks, on    1 nodes
 distrk:  each k-point on   16 cores,    1 groups
 distr:  one band on    4 cores,    4 groups
 vasp.6.4.2 20Jul23 (build Nov 14 2023 13:24:25) complex                        
  
 POSCAR found type information on POSCAR P 
 POSCAR found :  1 types and       2 ions
 Reading from existing POTCAR
 -----------------------------------------------------------------------------
|                                                                             |
|           W    W    AA    RRRRR   N    N  II  N    N   GGGG   !!!           |
|           W    W   A  A   R    R  NN   N  II  NN   N  G    G  !!!           |
|           W    W  A    A  R    R  N N  N  II  N N  N  G       !!!           |
|           W WW W  AAAAAA  RRRRR   N  N N  II  N  N N  G  GGG   !            |
|           WW  WW  A    A  R   R   N   NN  II  N   NN  G    G                |
|           W    W  A    A  R    R  N    N  II  N    N   GGGG   !!!           |
|                                                                             |
|     You use a magnetic or noncollinear calculation, but did not specify     |
|     the initial magnetic moment with the MAGMOM tag. Note that a            |
|     default of 1 will be used for all atoms. This ferromagnetic setup       |
|     may break the symmetry of the crystal, in particular it may rule        |
|     out finding an antiferromagnetic solution. Thence, we recommend         |
|     setting the initial magnetic moment manually or verifying carefully     |
|     that this magnetic setup is desired.                                    |
|                                                                             |
 -----------------------------------------------------------------------------

 scaLAPACK will be used
 Reading from existing POTCAR
 LDA part: xc-table for Pade appr. of Perdew
 WARNING: stress and forces are not correct
 POSCAR, INCAR and KPOINTS ok, starting setup
 FFT: planning ... GRIDC
 FFT: planning ... GRID_SOFT
 FFT: planning ... GRID
 WAVECAR not read
 reading imaginary part of occupancies ...
 charge-density read from file: unknown                                 
 reading imaginary part of occupancies ...
 magnetization density read from file 1
 reading imaginary part of occupancies ...
 magnetization density read from file 2
 reading imaginary part of occupancies ...
 magnetization density read from file 3
 entering main loop
       N       E                     dE             d eps       ncg     rms          rms(c)
DAV:   1     0.361275325610E+02    0.36128E+02   -0.21835E+03  9680   0.275E+02
DAV:   2    -0.660461652611E+01   -0.42732E+02   -0.39703E+02 13592   0.865E+01
DAV:   3    -0.104842979277E+02   -0.38797E+01   -0.38371E+01 13160   0.270E+01
DAV:   4    -0.107278594309E+02   -0.24356E+00   -0.24343E+00 15864   0.678E+00
DAV:   5    -0.107291675862E+02   -0.13082E-02   -0.13081E-02 13024   0.460E-01
DAV:   6    -0.107292225402E+02   -0.54954E-04   -0.54953E-04 14544   0.796E-02
DAV:   7    -0.107292242265E+02   -0.16863E-05   -0.16863E-05 14320   0.117E-02
DAV:   8    -0.107292242915E+02   -0.64957E-07   -0.65138E-07 12256   0.199E-03
DAV:   9    -0.107292242947E+02   -0.31894E-08   -0.30494E-08  8936   0.567E-04
DAV:  10    -0.107292242957E+02   -0.10533E-08   -0.10181E-08  8608   0.353E-04
DAV:  11    -0.107292242962E+02   -0.47862E-09   -0.49724E-09  7752   0.249E-04
DAV:  12    -0.107292242965E+02   -0.26785E-09   -0.27544E-09  7472   0.178E-04
DAV:  13    -0.107292242965E+02   -0.26546E-10   -0.14513E-09  7128   0.127E-04
   1 F= -.10729224E+02 E0= -.10729224E+02  d E =-.198843E-11  mag=     0.0003     0.0003     0.0003
