 running   16 mpi-ranks, on    1 nodes
 distrk:  each k-point on   16 cores,    1 groups
 distr:  one band on    4 cores,    4 groups
 vasp.6.4.2 20Jul23 (build Nov 14 2023 13:24:25) complex                        
  
 POSCAR found type information on POSCAR P 
 POSCAR found :  1 types and       2 ions
 Reading from existing POTCAR
 -----------------------------------------------------------------------------
|                                                                             |
|           W    W    AA    RRRRR   N    N  II  N    N   GGGG   !!!           |
|           W    W   A  A   R    R  NN   N  II  NN   N  G    G  !!!           |
|           W    W  A    A  R    R  N N  N  II  N N  N  G       !!!           |
|           W WW W  AAAAAA  RRRRR   N  N N  II  N  N N  G  GGG   !            |
|           WW  WW  A    A  R   R   N   NN  II  N   NN  G    G                |
|           W    W  A    A  R    R  N    N  II  N    N   GGGG   !!!           |
|                                                                             |
|     You use a magnetic or noncollinear calculation, but did not specify     |
|     the initial magnetic moment with the MAGMOM tag. Note that a            |
|     default of 1 will be used for all atoms. This ferromagnetic setup       |
|     may break the symmetry of the crystal, in particular it may rule        |
|     out finding an antiferromagnetic solution. Thence, we recommend         |
|     setting the initial magnetic moment manually or verifying carefully     |
|     that this magnetic setup is desired.                                    |
|                                                                             |
 -----------------------------------------------------------------------------

 scaLAPACK will be used
 Reading from existing POTCAR
 LDA part: xc-table for Pade appr. of Perdew
 POSCAR, INCAR and KPOINTS ok, starting setup
 FFT: planning ... GRIDC
 FFT: planning ... GRID_SOFT
 FFT: planning ... GRID
 WAVECAR not read
 entering main loop
       N       E                     dE             d eps       ncg     rms          rms(c)
DAV:   1     0.391275054543E+02    0.39128E+02   -0.21960E+03  6416   0.280E+02
DAV:   2    -0.501346305715E+01   -0.44141E+02   -0.41628E+02  8952   0.894E+01
DAV:   3    -0.904546182934E+01   -0.40320E+01   -0.39851E+01  8352   0.277E+01
DAV:   4    -0.931068621769E+01   -0.26522E+00   -0.26509E+00 10744   0.712E+00
DAV:   5    -0.931207579874E+01   -0.13896E-02   -0.13895E-02  8784   0.459E-01
DAV:   6    -0.931212716704E+01   -0.51368E-04   -0.51367E-04 10040   0.769E-02
DAV:   7    -0.931212859934E+01   -0.14323E-05   -0.14323E-05  9544   0.106E-02
DAV:   8    -0.931212865831E+01   -0.58970E-07   -0.58926E-07  8544   0.189E-03
DAV:   9    -0.931212866113E+01   -0.28142E-08   -0.28249E-08  6080   0.556E-04
DAV:  10    -0.931212866198E+01   -0.84879E-09   -0.83542E-09  5832   0.344E-04
DAV:  11    -0.931212866239E+01   -0.40939E-09   -0.39833E-09  5544   0.243E-04
DAV:  12    -0.931212866260E+01   -0.20873E-09   -0.21506E-09  5568   0.175E-04    0.732E+00
DAV:  13    -0.102310645710E+02   -0.91894E+00   -0.16443E-02  8312   0.697E-01    0.472E+00
DAV:  14    -0.107135688441E+02   -0.48250E+00   -0.46146E-02  8776   0.116E+00    0.158E+00
DAV:  15    -0.106788053540E+02    0.34763E-01   -0.49617E-02  7872   0.978E-01    0.344E-01
DAV:  16    -0.106796407838E+02   -0.83543E-03   -0.52807E-03  9528   0.332E-01    0.206E-01
DAV:  17    -0.106795744551E+02    0.66329E-04   -0.20174E-03  7456   0.201E-01    0.100E-01
DAV:  18    -0.106793244351E+02    0.25002E-03   -0.65588E-04  8768   0.107E-01    0.605E-02
DAV:  19    -0.106793288593E+02   -0.44242E-05   -0.18744E-04  8264   0.633E-02    0.255E-02
DAV:  20    -0.106793394074E+02   -0.10548E-04   -0.37940E-05  8832   0.275E-02    0.144E-02
DAV:  21    -0.106793275611E+02    0.11846E-04   -0.23094E-05  7456   0.233E-02    0.731E-03
DAV:  22    -0.106793285325E+02   -0.97140E-06   -0.58919E-06  8832   0.105E-02
   1 F= -.10679329E+02 E0= -.10679329E+02  d E =-.518233E-12  mag=     0.0003     0.0003     0.0003
