PROCAR new format
# of k-points:  150         # of bands:   32         # of ions:    2

 k-point     1 :    0.00000000 0.00000000 0.00000000     weight = 0.00666667

band     1 # energy  -17.47415785 # occ.  1.00000000
 
ion      s      p      d    tot
    1  0.261  0.016  0.000  0.277
    2  0.261  0.016  0.000  0.277
tot    0.522  0.032  0.001  0.554
    1  0.160  0.010  0.000  0.170
    2  0.160  0.010  0.000  0.170
tot    0.320  0.019  0.001  0.340
    1  0.149  0.009  0.000  0.158
    2  0.149  0.009  0.000  0.158
tot    0.298  0.018  0.000  0.316
    1  0.142  0.009  0.000  0.151
    2  0.142  0.009  0.000  0.151
tot    0.284  0.017  0.000  0.302
 
band     2 # energy  -17.47398365 # occ.  1.00000000
 
ion      s      p      d    tot
    1  0.261  0.016  0.000  0.277
    2  0.261  0.016  0.000  0.277
tot    0.522  0.032  0.001  0.554
    1 -0.160 -0.010 -0.000 -0.170
    2 -0.160 -0.010 -0.000 -0.170
tot   -0.320 -0.019 -0.001 -0.340
    1 -0.149 -0.009 -0.000 -0.158
    2 -0.149 -0.009 -0.000 -0.158
tot   -0.298 -0.018 -0.000 -0.316
    1 -0.142 -0.009 -0.000 -0.151
    2 -0.142 -0.009 -0.000 -0.151
tot   -0.285 -0.017 -0.000 -0.302
 
band     3 # energy   -9.75991474 # occ.  1.00000000
 
ion      s      p      d    tot
    1  0.212  0.052  0.003  0.268
    2  0.212  0.052  0.003  0.268
tot    0.424  0.105  0.007  0.535
    1  0.122  0.030  0.002  0.154
    2  0.122  0.030  0.002  0.154
tot    0.244  0.061  0.004  0.309
    1  0.122  0.030  0.002  0.155
    2  0.122  0.030  0.002  0.155
tot    0.245  0.061  0.004  0.310
    1  0.122  0.030  0.002  0.155
    2  0.122  0.030  0.002  0.155
tot    0.245  0.061  0.004  0.309
 
band     4 # energy   -9.75979043 # occ.  1.00000000
 
ion      s      p      d    tot
    1  0.212  0.052  0.003  0.268
    2  0.212  0.052  0.003  0.268
tot    0.424  0.105  0.007  0.535
    1 -0.122 -0.030 -0.002 -0.154
    2 -0.122 -0.030 -0.002 -0.154
tot   -0.244 -0.061 -0.004 -0.309
    1 -0.122 -0.030 -0.002 -0.155
    2 -0.122 -0.030 -0.002 -0.155
tot   -0.245 -0.061 -0.004 -0.310
    1 -0.122 -0.030 -0.002 -0.155
    2 -0.122 -0.030 -0.002 -0.155
tot   -0.245 -0.061 -0.004 -0.309
 
band     5 # energy   -3.77057004 # occ.  1.00000000
 
ion      s      p      d    tot
    1  0.005  0.207  0.004  0.216
    2  0.005  0.207  0.004  0.216
tot    0.009  0.415  0.008  0.432
    1  0.003  0.118  0.002  0.123
    2  0.003  0.118  0.002  0.123
tot    0.006  0.237  0.004  0.247
    1  0.003  0.116  0.002  0.121
    2  0.003  0.116  0.002  0.121
tot    0.005  0.232  0.004  0.242
    1  0.003  0.115  0.002  0.120
    2  0.003  0.115  0.002  0.120
tot    0.005  0.231  0.004  0.240
 
band     6 # energy   -3.77021248 # occ.  1.00000000
 
ion      s      p      d    tot
    1  0.005  0.207  0.004  0.216
    2  0.005  0.207  0.004  0.216
tot    0.009  0.415  0.008  0.432
    1 -0.003 -0.119 -0.002 -0.123
    2 -0.003 -0.119 -0.002 -0.123
tot   -0.006 -0.237 -0.004 -0.247
    1 -0.003 -0.116 -0.002 -0.121
    2 -0.003 -0.116 -0.002 -0.121
tot   -0.005 -0.232 -0.004 -0.242
    1 -0.003 -0.115 -0.002 -0.120
    2 -0.003 -0.115 -0.002 -0.120
tot   -0.005 -0.231 -0.004 -0.240
 
band     7 # energy   -3.51921638 # occ.  1.00000000
 
ion      s      p      d    tot
    1  0.000  0.309  0.034  0.343
    2  0.000  0.309  0.034  0.343
tot    0.000  0.618  0.067  0.685
    1  0.000 -0.000 -0.000 -0.000
    2  0.000 -0.000 -0.000 -0.000
tot    0.000 -0.000 -0.000 -0.000
    1  0.000  0.000 -0.000  0.000
    2  0.000  0.000 -0.000  0.000
tot    0.000  0.000 -0.000  0.000
    1  0.000 -0.301 -0.033 -0.335
    2  0.000 -0.301 -0.033 -0.335
tot    0.000 -0.603 -0.066 -0.669
 
band     8 # energy   -3.51917969 # occ.  1.00000000
 
ion      s      p      d    tot
    1  0.000  0.309  0.034  0.343
    2  0.000  0.309  0.034  0.343
tot    0.000  0.618  0.067  0.685
    1 -0.000 -0.000 -0.000 -0.000
    2 -0.000 -0.000 -0.000 -0.000
tot   -0.000 -0.000 -0.000 -0.001
    1 -0.000 -0.001 -0.000 -0.001
    2 -0.000 -0.001 -0.000 -0.001
tot   -0.000 -0.001 -0.000 -0.001
    1 -0.000  0.301  0.033  0.335
    2 -0.000  0.301  0.033  0.335
tot   -0.000  0.603  0.066  0.669
 
band     9 # energy   -3.47335417 # occ.  1.00000000
 
ion      s      p      d    tot
    1  0.000  0.310  0.034  0.344
    2  0.000  0.310  0.034  0.344
tot    0.000  0.619  0.068  0.688
    1  0.000  0.000  0.000  0.000
    2  0.000  0.000  0.000  0.000
tot    0.000  0.000  0.000  0.000
    1  0.000  0.000  0.000  0.000
    2  0.000  0.000  0.000  0.000
tot    0.000  0.000  0.000  0.000
    1 -0.000 -0.293 -0.032 -0.325
    2 -0.000 -0.293 -0.032 -0.325
tot   -0.000 -0.585 -0.065 -0.650
 
band    10 # energy   -3.47331795 # occ.  1.00000000
 
ion      s      p      d    tot
    1  0.000  0.310  0.034  0.344
    2  0.000  0.310  0.034  0.344
tot    0.000  0.619  0.068  0.688
    1  0.000  0.000  0.000  0.000
    2  0.000  0.000  0.000  0.000
tot    0.000  0.000  0.000  0.000
    1  0.000  0.000  0.000  0.000
    2  0.000  0.000  0.000  0.000
tot    0.000  0.000  0.000  0.000
    1  0.000  0.293  0.032  0.325
    2  0.000  0.293  0.032  0.325
tot    0.000  0.585  0.065  0.650
 
band    11 # energy    0.36936562 # occ.  0.00000000
 
ion      s      p      d    tot
    1  0.214  0.106  0.038  0.358
    2  0.214  0.106  0.038  0.358
tot    0.429  0.212  0.076  0.716
    1  0.133  0.062  0.023  0.218
    2  0.133  0.062  0.023  0.218
tot    0.266  0.125  0.046  0.437
    1  0.121  0.056  0.021  0.198
    2  0.121  0.056  0.021  0.198
tot    0.241  0.113  0.041  0.395
    1  0.117  0.052  0.020  0.188
    2  0.117  0.052  0.020  0.188
tot    0.234  0.103  0.039  0.376
 
band    12 # energy    0.36971040 # occ.  0.00000000
 
ion      s      p      d    tot
    1  0.214  0.106  0.038  0.358
    2  0.214  0.106  0.038  0.358
tot    0.428  0.212  0.076  0.716
    1 -0.133 -0.062 -0.023 -0.218
    2 -0.133 -0.062 -0.023 -0.218
tot   -0.266 -0.125 -0.046 -0.437
    1 -0.120 -0.056 -0.021 -0.198
    2 -0.120 -0.056 -0.021 -0.198
tot   -0.241 -0.113 -0.041 -0.395
    1 -0.117 -0.052 -0.020 -0.188
    2 -0.117 -0.052 -0.020 -0.188
tot   -0.234 -0.103 -0.039 -0.376
 
band    13 # energy    0.50681436 # occ.  0.00000000
 
ion      s      p      d    tot
    1  0.005  0.257  0.047  0.309
    2  0.005  0.257  0.047  0.309
tot    0.009  0.515  0.093  0.618
    1  0.001  0.001  0.000  0.002
    2  0.001  0.001  0.000  0.002
tot    0.001  0.001  0.000  0.003
    1  0.000  0.001  0.000  0.001
    2  0.000  0.001  0.000  0.001
tot    0.000  0.001  0.000  0.002
    1 -0.005  0.251  0.045  0.291
    2 -0.005  0.251  0.045  0.291
tot   -0.009  0.502  0.089  0.582
 
band    14 # energy    0.50688688 # occ.  0.00000000
 
ion      s      p      d    tot
    1  0.005  0.257  0.047  0.309
    2  0.005  0.257  0.047  0.309
tot    0.009  0.515  0.093  0.618
    1 -0.001  0.000 -0.000 -0.000
    2 -0.001  0.000 -0.000 -0.000
tot   -0.001  0.000 -0.000 -0.001
    1 -0.000  0.000  0.000  0.000
    2 -0.000  0.000  0.000  0.000
tot   -0.000  0.001  0.000  0.001
    1  0.005 -0.251 -0.045 -0.291
    2  0.005 -0.251 -0.045 -0.291
tot    0.009 -0.502 -0.089 -0.583
 
band    15 # energy    0.54816885 # occ.  0.00000000
 
ion      s      p      d    tot
    1  0.000  0.259  0.048  0.307
    2  0.000  0.259  0.048  0.307
tot    0.000  0.519  0.095  0.614
    1 -0.000 -0.000 -0.000 -0.001
    2 -0.000 -0.000 -0.000 -0.001
tot   -0.000 -0.001 -0.000 -0.001
    1  0.000 -0.000 -0.000 -0.001
    2  0.000 -0.000 -0.000 -0.001
tot    0.000 -0.001 -0.000 -0.001
    1  0.000  0.259  0.048  0.307
    2  0.000  0.259  0.048  0.307
tot    0.000  0.518  0.095  0.613
 
band    16 # energy    0.54824756 # occ.  0.00000000
 
ion      s      p      d    tot
    1  0.000  0.259  0.048  0.307
    2  0.000  0.259  0.048  0.307
tot    0.000  0.519  0.095  0.614
    1  0.000 -0.001 -0.000 -0.001
    2  0.000 -0.001 -0.000 -0.001
tot    0.000 -0.001 -0.000 -0.001
    1  0.000 -0.000 -0.000 -0.001
    2  0.000 -0.000 -0.000 -0.001
tot    0.000 -0.001 -0.000 -0.001
    1 -0.000 -0.259 -0.048 -0.307
    2 -0.000 -0.259 -0.048 -0.307
tot   -0.000 -0.518 -0.095 -0.613
 
band    17 # energy    2.02432873 # occ.  0.00000000
 
ion      s      p      d    tot
    1  0.002  0.004  0.023  0.030
    2  0.002  0.004  0.023  0.030
tot    0.005  0.008  0.046  0.059
    1  0.001  0.002  0.013  0.017
    2  0.001  0.002  0.013  0.017
tot    0.003  0.005  0.026  0.033
    1  0.001  0.002  0.013  0.017
    2  0.001  0.002  0.013  0.017
tot    0.003  0.005  0.027  0.034
    1  0.001  0.002  0.014  0.017
    2  0.001  0.002  0.014  0.017
tot    0.003  0.005  0.027  0.035
 
band    18 # energy    2.02511822 # occ.  0.00000000
 
ion      s      p      d    tot
    1  0.002  0.004  0.023  0.030
    2  0.002  0.004  0.023  0.030
tot    0.005  0.008  0.046  0.059
    1 -0.001 -0.002 -0.013 -0.017
    2 -0.001 -0.002 -0.013 -0.017
tot   -0.003 -0.005 -0.026 -0.033
    1 -0.001 -0.002 -0.013 -0.017
    2 -0.001 -0.002 -0.013 -0.017
tot   -0.003 -0.005 -0.027 -0.034
    1 -0.001 -0.002 -0.014 -0.017
    2 -0.001 -0.002 -0.014 -0.017
tot   -0.003 -0.005 -0.027 -0.035
 
band    19 # energy    2.46325190 # occ.  0.00000000
 
ion      s      p      d    tot
    1  0.003  0.017  0.000  0.020
    2  0.003  0.017  0.000  0.020
tot    0.006  0.034  0.000  0.040
    1  0.002  0.010  0.000  0.012
    2  0.002  0.010  0.000  0.012
tot    0.004  0.020  0.000  0.024
    1  0.002  0.009  0.000  0.011
    2  0.002  0.009  0.000  0.011
tot    0.003  0.019  0.000  0.022
    1  0.002  0.010 -0.000  0.012
    2  0.002  0.010 -0.000  0.012
tot    0.003  0.020 -0.000  0.023
 
band    20 # energy    2.46375954 # occ.  0.00000000
 
ion      s      p      d    tot
    1  0.003  0.017  0.000  0.020
    2  0.003  0.017  0.000  0.020
tot    0.006  0.034  0.000  0.040
    1 -0.002 -0.010 -0.000 -0.012
    2 -0.002 -0.010 -0.000 -0.012
tot   -0.004 -0.020 -0.000 -0.024
    1 -0.002 -0.009 -0.000 -0.011
    2 -0.002 -0.009 -0.000 -0.011
tot   -0.003 -0.019 -0.000 -0.022
    1 -0.002 -0.010  0.000 -0.012
    2 -0.002 -0.010  0.000 -0.012
tot   -0.003 -0.020  0.000 -0.023
 
band    21 # energy    3.81635769 # occ.  0.00000000
 
ion      s      p      d    tot
    1  0.006  0.026  0.000  0.032
    2  0.006  0.026  0.000  0.032
tot    0.012  0.051  0.000  0.063
    1 -0.003 -0.012 -0.000 -0.014
    2 -0.003 -0.012 -0.000 -0.014
tot   -0.005 -0.023 -0.000 -0.029
    1 -0.004 -0.018 -0.000 -0.022
    2 -0.004 -0.018 -0.000 -0.022
tot   -0.008 -0.035 -0.000 -0.044
    1 -0.003 -0.015 -0.000 -0.018
    2 -0.003 -0.015 -0.000 -0.018
tot   -0.007 -0.029 -0.000 -0.036
 
band    22 # energy    3.81652496 # occ.  0.00000000
 
ion      s      p      d    tot
    1  0.006  0.026  0.000  0.032
    2  0.006  0.026  0.000  0.032
tot    0.012  0.051  0.000  0.063
    1  0.003  0.012  0.000  0.014
    2  0.003  0.012  0.000  0.014
tot    0.005  0.023  0.000  0.029
    1  0.004  0.018  0.000  0.022
    2  0.004  0.018  0.000  0.022
tot    0.008  0.035  0.000  0.043
    1  0.003  0.015  0.000  0.018
    2  0.003  0.015  0.000  0.018
tot    0.007  0.029  0.000  0.036
 
band    23 # energy    4.44017431 # occ.  0.00000000
 
ion      s      p      d    tot
    1  0.008  0.000  0.022  0.030
    2  0.008  0.000  0.022  0.030
tot    0.016  0.000  0.044  0.060
    1  0.005  0.000  0.013  0.018
    2  0.005  0.000  0.013  0.018
tot    0.010  0.000  0.027  0.036
    1  0.004  0.000  0.012  0.016
    2  0.004  0.000  0.012  0.016
tot    0.009  0.000  0.024  0.033
    1  0.005  0.000  0.013  0.017
    2  0.005  0.000  0.013  0.017
tot    0.009  0.000  0.025  0.035
 
band    24 # energy    4.44108962 # occ.  0.00000000
 
ion      s      p      d    tot
    1  0.008  0.000  0.022  0.030
    2  0.008  0.000  0.022  0.030
tot    0.016  0.000  0.044  0.060
    1 -0.005 -0.000 -0.013 -0.018
    2 -0.005 -0.000 -0.013 -0.018
tot   -0.010 -0.000 -0.027 -0.036
    1 -0.004 -0.000 -0.012 -0.016
    2 -0.004 -0.000 -0.012 -0.016
tot   -0.009 -0.000 -0.024 -0.033
    1 -0.005 -0.000 -0.013 -0.017
    2 -0.005 -0.000 -0.013 -0.017
tot   -0.009 -0.000 -0.025 -0.035
 
band    25 # energy    6.47161380 # occ.  0.00000000
 
ion      s      p      d    tot
    1  0.000  0.061  0.189  0.250
    2  0.000  0.061  0.189  0.250
tot    0.000  0.122  0.378  0.501
    1  0.000  0.001  0.002  0.003
    2  0.000  0.001  0.002  0.003
tot    0.000  0.001  0.004  0.005
    1  0.000  0.001  0.002  0.003
    2  0.000  0.001  0.002  0.003
tot    0.000  0.001  0.004  0.005
    1 -0.000  0.061  0.189  0.250
    2 -0.000  0.061  0.189  0.250
tot   -0.000  0.122  0.378  0.500
 
band    26 # energy    6.47173496 # occ.  0.00000000
 
ion      s      p      d    tot
    1  0.000  0.061  0.189  0.250
    2  0.000  0.061  0.189  0.250
tot    0.000  0.122  0.378  0.501
    1 -0.000  0.001  0.002  0.003
    2 -0.000  0.001  0.002  0.003
tot   -0.000  0.001  0.004  0.005
    1 -0.000  0.001  0.002  0.003
    2 -0.000  0.001  0.002  0.003
tot   -0.000  0.001  0.004  0.005
    1  0.000 -0.061 -0.189 -0.250
    2  0.000 -0.061 -0.189 -0.250
tot    0.000 -0.122 -0.378 -0.500
 
band    27 # energy    6.48306514 # occ.  0.00000000
 
ion      s      p      d    tot
    1  0.000  0.062  0.189  0.251
    2  0.000  0.062  0.189  0.251
tot    0.000  0.124  0.378  0.501
    1  0.000 -0.001 -0.002 -0.003
    2  0.000 -0.001 -0.002 -0.003
tot    0.000 -0.001 -0.004 -0.005
    1  0.000 -0.001 -0.002 -0.003
    2 -0.000 -0.001 -0.002 -0.003
tot   -0.000 -0.001 -0.004 -0.005
    1  0.000  0.062  0.188  0.250
    2  0.000  0.062  0.188  0.250
tot    0.000  0.124  0.377  0.500
 
band    28 # energy    6.48318549 # occ.  0.00000000
 
ion      s      p      d    tot
    1  0.000  0.062  0.189  0.251
    2  0.000  0.062  0.189  0.251
tot    0.000  0.124  0.378  0.501
    1 -0.000 -0.001 -0.002 -0.003
    2  0.000 -0.001 -0.002 -0.003
tot   -0.000 -0.001 -0.004 -0.005
    1 -0.000 -0.001 -0.002 -0.003
    2  0.000 -0.001 -0.002 -0.003
tot   -0.000 -0.001 -0.004 -0.005
    1 -0.000 -0.062 -0.188 -0.250
    2 -0.000 -0.062 -0.188 -0.250
tot   -0.000 -0.124 -0.377 -0.500
 
band    29 # energy    6.91692856 # occ.  0.00000000
 
ion      s      p      d    tot
    1  0.024  0.040  0.000  0.064
    2  0.024  0.040  0.000  0.064
tot    0.048  0.080  0.000  0.128
    1  0.015  0.025  0.000  0.039
    2  0.015  0.025  0.000  0.039
tot    0.030  0.049  0.000  0.079
    1  0.013  0.022  0.000  0.035
    2  0.013  0.022  0.000  0.035
tot    0.026  0.043  0.000  0.070
    1  0.014  0.023  0.000  0.037
    2  0.014  0.023  0.000  0.037
tot    0.028  0.046  0.000  0.074
 
band    30 # energy    6.91751777 # occ.  0.00000000
 
ion      s      p      d    tot
    1  0.024  0.040  0.000  0.064
    2  0.024  0.040  0.000  0.064
tot    0.048  0.080  0.000  0.128
    1 -0.015 -0.025 -0.000 -0.039
    2 -0.015 -0.025 -0.000 -0.039
tot   -0.030 -0.049 -0.000 -0.079
    1 -0.013 -0.022 -0.000 -0.035
    2 -0.013 -0.022 -0.000 -0.035
tot   -0.026 -0.043 -0.000 -0.070
    1 -0.014 -0.023 -0.000 -0.037
    2 -0.014 -0.023 -0.000 -0.037
tot   -0.028 -0.046 -0.000 -0.074
 
band    31 # energy    7.56672442 # occ.  0.00000000
 
ion      s      p      d    tot
    1  0.010  0.028  0.055  0.093
    2  0.010  0.028  0.055  0.093
tot    0.019  0.056  0.110  0.185
    1  0.006  0.016  0.031  0.052
    2  0.005  0.016  0.032  0.053
tot    0.011  0.032  0.062  0.105
    1  0.006  0.016  0.032  0.053
    2  0.006  0.016  0.032  0.053
tot    0.011  0.032  0.064  0.107
    1  0.006  0.016  0.033  0.055
    2  0.006  0.016  0.032  0.055
tot    0.011  0.033  0.065  0.109
 
band    32 # energy    7.56698800 # occ.  0.00000000
 
ion      s      p      d    tot
    1  0.010  0.028  0.055  0.093
    2  0.010  0.028  0.055  0.093
tot    0.019  0.056  0.110  0.186
    1 -0.006 -0.016 -0.031 -0.052
    2 -0.005 -0.016 -0.031 -0.053
tot   -0.011 -0.032 -0.062 -0.105
    1 -0.006 -0.016 -0.032 -0.053
    2 -0.006 -0.016 -0.032 -0.053
tot   -0.011 -0.032 -0.064 -0.107
    1 -0.006 -0.016 -0.032 -0.055
    2 -0.006 -0.016 -0.033 -0.055
tot   -0.011 -0.033 -0.065 -0.109
 

 k-point     2 :    0.01360544-0.00680272 0.00000000     weight = 0.00666667

band     1 # energy  -17.47191737 # occ.  1.00000000
 
ion      s      p      d    tot
    1  0.261  0.016  0.000  0.277
    2  0.261  0.016  0.000  0.277
tot    0.522  0.032  0.001  0.554
    1  0.160  0.010  0.000  0.170
    2  0.160  0.010  0.000  0.170
tot    0.320  0.019  0.001  0.340
    1  0.149  0.009  0.000  0.158
    2  0.149  0.009  0.000  0.158
tot    0.298  0.018  0.000  0.316
    1  0.142  0.009  0.000  0.151
    2  0.142  0.009  0.000  0.151
tot    0.284  0.017  0.000  0.302
 
band     2 # energy  -17.47174322 # occ.  1.00000000
 
ion      s      p      d    tot
    1  0.261  0.016  0.000  0.277
    2  0.261  0.016  0.000  0.277
tot    0.522  0.032  0.001  0.554
    1 -0.160 -0.010 -0.000 -0.170
    2 -0.160 -0.010 -0.000 -0.170
tot   -0.320 -0.019 -0.001 -0.340
    1 -0.149 -0.009 -0.000 -0.158
    2 -0.149 -0.009 -0.000 -0.158
tot   -0.298 -0.018 -0.000 -0.316
    1 -0.142 -0.009 -0.000 -0.151
    2 -0.142 -0.009 -0.000 -0.151
tot   -0.284 -0.017 -0.000 -0.302
 
band     3 # energy   -9.75836481 # occ.  1.00000000
 
ion      s      p      d    tot
    1  0.212  0.052  0.003  0.268
    2  0.212  0.052  0.003  0.268
tot    0.424  0.105  0.007  0.536
    1  0.122  0.030  0.002  0.154
    2  0.122  0.030  0.002  0.154
tot    0.244  0.060  0.004  0.309
    1  0.123  0.030  0.002  0.155
    2  0.123  0.030  0.002  0.155
tot    0.245  0.061  0.004  0.310
    1  0.122  0.030  0.002  0.155
    2  0.122  0.030  0.002  0.155
tot    0.245  0.061  0.004  0.309
 
band     4 # energy   -9.75824081 # occ.  1.00000000
 
ion      s      p      d    tot
    1  0.212  0.052  0.003  0.268
    2  0.212  0.052  0.003  0.268
tot    0.424  0.105  0.007  0.536
    1 -0.122 -0.030 -0.002 -0.154
    2 -0.122 -0.030 -0.002 -0.154
tot   -0.244 -0.060 -0.004 -0.309
    1 -0.123 -0.030 -0.002 -0.155
    2 -0.123 -0.030 -0.002 -0.155
tot   -0.245 -0.061 -0.004 -0.310
    1 -0.122 -0.030 -0.002 -0.155
    2 -0.122 -0.030 -0.002 -0.155
tot   -0.245 -0.061 -0.004 -0.309
 
band     5 # energy   -3.76938953 # occ.  1.00000000
 
ion      s      p      d    tot
    1  0.005  0.208  0.004  0.217
    2  0.005  0.207  0.004  0.216
tot    0.010  0.415  0.008  0.433
    1  0.003  0.118  0.002  0.123
    2  0.003  0.118  0.002  0.123
tot    0.006  0.236  0.004  0.246
    1  0.002  0.117  0.002  0.122
    2  0.003  0.115  0.002  0.120
tot    0.005  0.232  0.004  0.242
    1  0.003  0.115  0.002  0.119
    2  0.003  0.115  0.002  0.119
tot    0.005  0.230  0.004  0.239
 
band     6 # energy   -3.76903293 # occ.  1.00000000
 
ion      s      p      d    tot
    1  0.005  0.207  0.004  0.216
    2  0.005  0.208  0.004  0.217
tot    0.010  0.415  0.008  0.433
    1 -0.003 -0.118 -0.002 -0.123
    2 -0.003 -0.118 -0.002 -0.123
tot   -0.006 -0.236 -0.004 -0.246
    1 -0.003 -0.115 -0.002 -0.120
    2 -0.002 -0.117 -0.002 -0.122
tot   -0.005 -0.232 -0.004 -0.242
    1 -0.003 -0.115 -0.002 -0.119
    2 -0.003 -0.115 -0.002 -0.119
tot   -0.005 -0.230 -0.004 -0.239
 
band     7 # energy   -3.53400872 # occ.  1.00000000
 
ion      s      p      d    tot
    1  0.001  0.308  0.033  0.342
    2  0.001  0.308  0.034  0.342
tot    0.001  0.616  0.067  0.684
    1 -0.000 -0.025 -0.003 -0.028
    2 -0.000 -0.025 -0.003 -0.028
tot   -0.000 -0.050 -0.006 -0.055
    1  0.000 -0.016 -0.001 -0.018
    2 -0.000 -0.013 -0.002 -0.016
tot   -0.000 -0.030 -0.003 -0.033
    1 -0.001 -0.290 -0.032 -0.323
    2 -0.001 -0.290 -0.032 -0.323
tot   -0.001 -0.580 -0.064 -0.646
 
band     8 # energy   -3.53397297 # occ.  1.00000000
 
ion      s      p      d    tot
    1  0.001  0.308  0.034  0.342
    2  0.001  0.308  0.033  0.342
tot    0.001  0.616  0.067  0.684
    1  0.000  0.024  0.003  0.027
    2  0.000  0.024  0.003  0.027
tot    0.000  0.049  0.006  0.055
    1  0.000  0.013  0.002  0.015
    2 -0.000  0.016  0.001  0.017
tot    0.000  0.029  0.003  0.033
    1  0.001  0.290  0.032  0.323
    2  0.001  0.290  0.032  0.323
tot    0.001  0.580  0.064  0.646
 
band     9 # energy   -3.48575761 # occ.  1.00000000
 
ion      s      p      d    tot
    1  0.000  0.309  0.034  0.344
    2  0.000  0.309  0.034  0.344
tot    0.001  0.618  0.068  0.687
    1  0.000 -0.027 -0.003 -0.030
    2  0.000 -0.027 -0.003 -0.030
tot    0.000 -0.055 -0.006 -0.060
    1 -0.000  0.002  0.000  0.003
    2  0.000  0.002  0.000  0.002
tot   -0.000  0.004  0.000  0.005
    1 -0.000 -0.298 -0.033 -0.331
    2 -0.000 -0.298 -0.033 -0.332
tot   -0.001 -0.596 -0.066 -0.663
 
band    10 # energy   -3.48572177 # occ.  1.00000000
 
ion      s      p      d    tot
    1  0.000  0.309  0.034  0.344
    2  0.000  0.309  0.034  0.344
tot    0.001  0.618  0.068  0.687
    1 -0.000  0.028  0.003  0.030
    2 -0.000  0.028  0.003  0.030
tot   -0.000  0.055  0.006  0.061
    1 -0.000 -0.001 -0.000 -0.002
    2  0.000 -0.002 -0.000 -0.002
tot    0.000 -0.004 -0.000 -0.004
    1  0.000  0.298  0.033  0.332
    2  0.000  0.298  0.033  0.331
tot    0.001  0.596  0.066  0.663
 
band    11 # energy    0.38644011 # occ.  0.00000000
 
ion      s      p      d    tot
    1  0.212  0.106  0.038  0.356
    2  0.210  0.112  0.037  0.359
tot    0.422  0.218  0.076  0.715
    1  0.131  0.063  0.023  0.216
    2  0.131  0.063  0.023  0.216
tot    0.262  0.126  0.045  0.433
    1  0.121  0.051  0.021  0.193
    2  0.118  0.061  0.020  0.199
tot    0.239  0.112  0.041  0.392
    1  0.115  0.053  0.020  0.188
    2  0.115  0.054  0.020  0.188
tot    0.229  0.108  0.039  0.376
 
band    12 # energy    0.38678056 # occ.  0.00000000
 
ion      s      p      d    tot
    1  0.210  0.112  0.038  0.359
    2  0.212  0.106  0.038  0.356
tot    0.422  0.218  0.076  0.715
    1 -0.131 -0.063 -0.023 -0.216
    2 -0.131 -0.063 -0.023 -0.216
tot   -0.262 -0.126 -0.045 -0.433
    1 -0.118 -0.061 -0.020 -0.199
    2 -0.121 -0.051 -0.021 -0.193
tot   -0.239 -0.112 -0.041 -0.392
    1 -0.114 -0.054 -0.020 -0.188
    2 -0.115 -0.053 -0.020 -0.188
tot   -0.229 -0.108 -0.039 -0.376
 
band    13 # energy    0.50894780 # occ.  0.00000000
 
ion      s      p      d    tot
    1  0.005  0.259  0.046  0.311
    2  0.007  0.253  0.047  0.307
tot    0.013  0.512  0.093  0.618
    1 -0.001  0.008  0.001  0.009
    2 -0.001  0.008  0.001  0.009
tot   -0.002  0.017  0.003  0.018
    1  0.003  0.018  0.002  0.023
    2  0.007  0.007  0.003  0.017
tot    0.010  0.024  0.005  0.039
    1 -0.004  0.237  0.042  0.274
    2 -0.003  0.233  0.042  0.272
tot   -0.007  0.470  0.084  0.546
 
band    14 # energy    0.50902352 # occ.  0.00000000
 
ion      s      p      d    tot
    1  0.007  0.253  0.047  0.307
    2  0.005  0.259  0.046  0.311
tot    0.013  0.513  0.093  0.618
    1  0.001 -0.007 -0.001 -0.008
    2  0.001 -0.007 -0.001 -0.008
tot    0.002 -0.015 -0.003 -0.016
    1 -0.007 -0.006 -0.003 -0.016
    2 -0.003 -0.017 -0.002 -0.022
tot   -0.010 -0.023 -0.005 -0.037
    1  0.003 -0.233 -0.042 -0.272
    2  0.004 -0.237 -0.042 -0.274
tot    0.007 -0.470 -0.084 -0.547
 
band    15 # energy    0.55102435 # occ.  0.00000000
 
ion      s      p      d    tot
    1  0.001  0.258  0.048  0.307
    2  0.000  0.260  0.047  0.308
tot    0.001  0.518  0.095  0.614
    1  0.000  0.015  0.003  0.018
    2  0.000  0.015  0.003  0.018
tot    0.000  0.030  0.005  0.036
    1  0.000  0.008  0.001  0.009
    2  0.000  0.008  0.001  0.010
tot    0.001  0.016  0.003  0.019
    1  0.001  0.240  0.044  0.286
    2 -0.000  0.243  0.044  0.287
tot    0.001  0.483  0.088  0.573
 
band    16 # energy    0.55110429 # occ.  0.00000000
 
ion      s      p      d    tot
    1  0.000  0.260  0.047  0.308
    2  0.001  0.258  0.048  0.307
tot    0.001  0.518  0.095  0.614
    1 -0.000 -0.016 -0.003 -0.019
    2 -0.000 -0.016 -0.003 -0.019
tot   -0.000 -0.032 -0.006 -0.038
    1 -0.000 -0.009 -0.002 -0.011
    2 -0.000 -0.008 -0.002 -0.011
tot   -0.001 -0.018 -0.003 -0.021
    1  0.000 -0.243 -0.044 -0.287
    2 -0.001 -0.241 -0.044 -0.286
tot   -0.001 -0.484 -0.088 -0.573
 
band    17 # energy    2.02711158 # occ.  0.00000000
 
ion      s      p      d    tot
    1  0.002  0.004  0.023  0.030
    2  0.002  0.004  0.023  0.030
tot    0.004  0.009  0.046  0.059
    1  0.001  0.002  0.013  0.017
    2  0.001  0.002  0.013  0.017
tot    0.002  0.005  0.026  0.033
    1  0.001  0.003  0.013  0.017
    2  0.001  0.002  0.013  0.017
tot    0.003  0.005  0.027  0.034
    1  0.001  0.003  0.014  0.017
    2  0.001  0.003  0.014  0.017
tot    0.003  0.005  0.027  0.035
 
band    18 # energy    2.02790090 # occ.  0.00000000
 
ion      s      p      d    tot
    1  0.002  0.004  0.023  0.030
    2  0.002  0.004  0.023  0.030
tot    0.004  0.009  0.046  0.059
    1 -0.001 -0.002 -0.013 -0.017
    2 -0.001 -0.002 -0.013 -0.017
tot   -0.002 -0.005 -0.026 -0.033
    1 -0.001 -0.002 -0.013 -0.017
    2 -0.001 -0.003 -0.013 -0.017
tot   -0.003 -0.005 -0.027 -0.034
    1 -0.001 -0.003 -0.014 -0.017
    2 -0.001 -0.003 -0.014 -0.017
tot   -0.003 -0.005 -0.027 -0.035
 
band    19 # energy    2.46557604 # occ.  0.00000000
 
ion      s      p      d    tot
    1  0.003  0.017  0.000  0.020
    2  0.003  0.017  0.000  0.020
tot    0.006  0.034  0.000  0.040
    1  0.002  0.010  0.000  0.012
    2  0.002  0.010  0.000  0.012
tot    0.004  0.020  0.000  0.024
    1  0.002  0.009  0.000  0.011
    2  0.002  0.009  0.000  0.011
tot    0.003  0.019  0.000  0.022
    1  0.002  0.010  0.000  0.012
    2  0.002  0.010  0.000  0.012
tot    0.003  0.020  0.000  0.023
 
band    20 # energy    2.46608386 # occ.  0.00000000
 
ion      s      p      d    tot
    1  0.003  0.017  0.000  0.020
    2  0.003  0.017  0.000  0.020
tot    0.006  0.034  0.000  0.040
    1 -0.002 -0.010 -0.000 -0.012
    2 -0.002 -0.010 -0.000 -0.012
tot   -0.004 -0.020 -0.000 -0.024
    1 -0.002 -0.009 -0.000 -0.011
    2 -0.002 -0.009 -0.000 -0.011
tot   -0.003 -0.019 -0.000 -0.022
    1 -0.002 -0.010 -0.000 -0.012
    2 -0.002 -0.010 -0.000 -0.012
tot   -0.003 -0.020 -0.000 -0.023
 
band    21 # energy    3.81814146 # occ.  0.00000000
 
ion      s      p      d    tot
    1  0.006  0.026  0.000  0.032
    2  0.006  0.026  0.000  0.032
tot    0.012  0.051  0.000  0.063
    1 -0.003 -0.012 -0.000 -0.014
    2 -0.003 -0.012 -0.000 -0.014
tot   -0.005 -0.023 -0.000 -0.029
    1 -0.004 -0.018 -0.000 -0.022
    2 -0.004 -0.018 -0.000 -0.022
tot   -0.008 -0.035 -0.000 -0.044
    1 -0.003 -0.015 -0.000 -0.018
    2 -0.003 -0.015 -0.000 -0.018
tot   -0.007 -0.029 -0.000 -0.036
 
band    22 # energy    3.81830849 # occ.  0.00000000
 
ion      s      p      d    tot
    1  0.006  0.026  0.000  0.032
    2  0.006  0.026  0.000  0.032
tot    0.012  0.052  0.000  0.063
    1  0.003  0.012  0.000  0.014
    2  0.003  0.012  0.000  0.014
tot    0.005  0.023  0.000  0.029
    1  0.004  0.018  0.000  0.022
    2  0.004  0.018  0.000  0.022
tot    0.008  0.035  0.000  0.044
    1  0.003  0.015  0.000  0.018
    2  0.003  0.015  0.000  0.018
tot    0.007  0.029  0.000  0.036
 
band    23 # energy    4.44269493 # occ.  0.00000000
 
ion      s      p      d    tot
    1  0.008  0.000  0.022  0.030
    2  0.008  0.000  0.022  0.030
tot    0.016  0.000  0.044  0.060
    1  0.005  0.000  0.013  0.018
    2  0.005  0.000  0.013  0.018
tot    0.010  0.000  0.027  0.036
    1  0.004  0.000  0.012  0.016
    2  0.004  0.000  0.012  0.016
tot    0.009  0.000  0.024  0.033
    1  0.005  0.000  0.013  0.017
    2  0.005  0.000  0.013  0.017
tot    0.009  0.000  0.025  0.035
 
band    24 # energy    4.44361021 # occ.  0.00000000
 
ion      s      p      d    tot
    1  0.008  0.000  0.022  0.030
    2  0.008  0.000  0.022  0.030
tot    0.016  0.000  0.044  0.060
    1 -0.005 -0.000 -0.013 -0.018
    2 -0.005 -0.000 -0.013 -0.018
tot   -0.010 -0.000 -0.027 -0.036
    1 -0.004 -0.000 -0.012 -0.016
    2 -0.004 -0.000 -0.012 -0.016
tot   -0.009 -0.000 -0.024 -0.033
    1 -0.005 -0.000 -0.013 -0.017
    2 -0.005 -0.000 -0.013 -0.017
tot   -0.009 -0.000 -0.025 -0.035
 
band    25 # energy    6.44579986 # occ.  0.00000000
 
ion      s      p      d    tot
    1  0.000  0.060  0.184  0.245
    2  0.000  0.061  0.184  0.245
tot    0.001  0.121  0.367  0.489
    1  0.000  0.031  0.093  0.124
    2  0.000  0.031  0.093  0.124
tot    0.000  0.062  0.186  0.248
    1  0.000  0.031  0.095  0.126
    2  0.000  0.032  0.095  0.126
tot    0.000  0.063  0.190  0.253
    1  0.000  0.037  0.112  0.150
    2  0.000  0.037  0.112  0.149
tot    0.000  0.074  0.225  0.299
 
band    26 # energy    6.44601699 # occ.  0.00000000
 
ion      s      p      d    tot
    1  0.000  0.061  0.184  0.245
    2  0.000  0.060  0.184  0.245
tot    0.001  0.121  0.368  0.489
    1 -0.000 -0.031 -0.093 -0.124
    2 -0.000 -0.031 -0.093 -0.124
tot   -0.000 -0.061 -0.186 -0.248
    1 -0.000 -0.031 -0.095 -0.126
    2 -0.000 -0.031 -0.095 -0.126
tot   -0.000 -0.063 -0.189 -0.252
    1 -0.000 -0.037 -0.112 -0.149
    2 -0.000 -0.037 -0.112 -0.150
tot   -0.000 -0.074 -0.225 -0.299
 
band    27 # energy    6.47382245 # occ.  0.00000000
 
ion      s      p      d    tot
    1  0.000  0.061  0.189  0.250
    2  0.000  0.061  0.189  0.250
tot    0.000  0.122  0.378  0.500
    1 -0.000  0.031  0.097  0.128
    2 -0.000  0.031  0.097  0.128
tot   -0.000  0.062  0.193  0.256
    1 -0.000  0.033  0.101  0.133
    2 -0.000  0.032  0.101  0.133
tot   -0.000  0.065  0.201  0.266
    1  0.000  0.036  0.112  0.148
    2  0.000  0.036  0.112  0.148
tot    0.000  0.073  0.224  0.296
 
band    28 # energy    6.47402255 # occ.  0.00000000
 
ion      s      p      d    tot
    1  0.000  0.061  0.189  0.250
    2  0.000  0.061  0.189  0.250
tot    0.000  0.122  0.378  0.500
    1  0.000 -0.031 -0.097 -0.128
    2  0.000 -0.031 -0.097 -0.128
tot    0.000 -0.063 -0.194 -0.257
    1  0.000 -0.033 -0.101 -0.134
    2  0.000 -0.033 -0.101 -0.134
tot    0.000 -0.065 -0.202 -0.267
    1 -0.000 -0.036 -0.112 -0.148