Automatically generated mesh
       9
Reciprocal lattice
    0.00000000000000    0.00000000000000    0.00000000000000             1
    0.25000000000000   -0.00000000000000    0.00000000000000             6
    0.50000000000000   -0.00000000000000    0.00000000000000             3
    0.25000000000000    0.25000000000000    0.00000000000000             6
    0.00000000000000    0.00000000000000    0.33333333333334             2
    0.25000000000000   -0.00000000000000    0.33333333333334             6
    0.00000000000000    0.25000000000000    0.33333333333334             6
    0.50000000000000   -0.00000000000000    0.33333333333334             6
    0.25000000000000    0.25000000000000    0.33333333333334            12
