 running   16 mpi-ranks, on    1 nodes
 distrk:  each k-point on   16 cores,    1 groups
 distr:  one band on    1 cores,   16 groups
 vasp.6.4.2 20Jul23 (build Nov 14 2023 12:59:38) complex                        
  
 POSCAR found type information on POSCAR H 
 POSCAR found :  1 types and      18 ions
 Reading from existing POTCAR
 scaLAPACK will be used
 -----------------------------------------------------------------------------
|                                                                             |
|           W    W    AA    RRRRR   N    N  II  N    N   GGGG   !!!           |
|           W    W   A  A   R    R  NN   N  II  NN   N  G    G  !!!           |
|           W    W  A    A  R    R  N N  N  II  N N  N  G       !!!           |
|           W WW W  AAAAAA  RRRRR   N  N N  II  N  N N  G  GGG   !            |
|           WW  WW  A    A  R   R   N   NN  II  N   NN  G    G                |
|           W    W  A    A  R    R  N    N  II  N    N   GGGG   !!!           |
|                                                                             |
|     For optimal performance we recommend to set                             |
|       NCORE = 2 up to number-of-cores-per-socket                            |
|     NCORE specifies how many cores store one orbital (NPAR=cpu/NCORE).      |
|     This setting can greatly improve the performance of VASP for DFT.       |
|     The default, NCORE=1 might be grossly inefficient on modern             |
|     multi-core architectures or massively parallel machines. Do your        |
|     own testing! More info at https://www.vasp.at/wiki/index.php/NCORE      |
|     Unfortunately you need to use the default for GW and RPA                |
|     calculations (for HF NCORE is supported but not extensively tested      |
|     yet).                                                                   |
|                                                                             |
 -----------------------------------------------------------------------------

 Reading from existing POTCAR
 WARNING: type information on POSCAR and POTCAR are incompatible
 POTCAR overwrites the type information in POSCAR
 typ   1 type information:  H  Sb
 -----------------------------------------------------------------------------
|                                                                             |
|               ----> ADVICE to this user running VASP <----                  |
|                                                                             |
|     You have a (more or less) 'large supercell' and for larger cells it     |
|     might be more efficient to use real-space projection operators.         |
|     Therefore, try LREAL= Auto in the INCAR file.                           |
|     Mind: For very accurate calculation, you might also keep the            |
|     reciprocal projection scheme (i.e. LREAL=.FALSE.).                      |
|                                                                             |
 -----------------------------------------------------------------------------

 LDA part: xc-table for Pade appr. of Perdew
 POSCAR, INCAR and KPOINTS ok, starting setup
 FFT: planning ... GRIDC
 FFT: planning ... GRID_SOFT
 FFT: planning ... GRID
 WAVECAR not read
 entering main loop
       N       E                     dE             d eps       ncg     rms          rms(c)
DAV:   1     0.549839712134E+03    0.54984E+03   -0.13885E+04  1152   0.453E+02
DAV:   2    -0.105162823155E+01   -0.55089E+03   -0.53143E+03  1968   0.171E+02
DAV:   3    -0.697213115129E+02   -0.68670E+02   -0.67706E+02  1504   0.603E+01
DAV:   4    -0.734548799446E+02   -0.37336E+01   -0.37221E+01  1936   0.218E+01
DAV:   5    -0.734964779702E+02   -0.41598E-01   -0.41539E-01  1680   0.162E+00
DAV:   6    -0.734982362436E+02   -0.17583E-02   -0.17576E-02  1968   0.469E-01
DAV:   7    -0.734982647376E+02   -0.28494E-04   -0.28486E-04  1648   0.424E-02
DAV:   8    -0.734982661616E+02   -0.14240E-05   -0.14242E-05  2048   0.101E-02
DAV:   9    -0.734982661733E+02   -0.11672E-07   -0.11116E-07  1424   0.809E-04
DAV:  10    -0.734982661737E+02   -0.42337E-09   -0.35290E-09  1296   0.276E-04
DAV:  11    -0.734982661737E+02    0.44110E-10   -0.55161E-10  1216   0.164E-04
DAV:  12    -0.734982661738E+02   -0.15143E-09    0.65791E-11  1072   0.115E-04    0.477E+00
DAV:  13    -0.733594011907E+02    0.13886E+00   -0.27157E-02  1504   0.421E-01    0.424E+00
DAV:  14    -0.730888176559E+02    0.27058E+00   -0.13040E+00  1392   0.250E+00    0.612E-01
DAV:  15    -0.730607306217E+02    0.28087E-01   -0.11721E-01  1472   0.912E-01    0.233E-01
DAV:  16    -0.730587865760E+02    0.19440E-02   -0.31275E-02  1776   0.455E-01    0.148E-01
DAV:  17    -0.730577826201E+02    0.10040E-02   -0.35009E-03  1488   0.146E-01    0.122E-01
DAV:  18    -0.730576487149E+02    0.13391E-03   -0.21834E-03  1888   0.119E-01    0.206E-02
DAV:  19    -0.730576338727E+02    0.14842E-04   -0.20234E-04  1712   0.366E-02    0.169E-02
DAV:  20    -0.730576428011E+02   -0.89284E-05   -0.21647E-05  1632   0.132E-02    0.451E-03
DAV:  21    -0.730576405411E+02    0.22600E-05   -0.79757E-06  1552   0.710E-03    0.152E-03
DAV:  22    -0.730576410412E+02   -0.50004E-06   -0.17399E-06  1968   0.324E-03    0.135E-03
DAV:  23    -0.730576399927E+02    0.10485E-05   -0.50796E-07  1504   0.201E-03    0.349E-04
DAV:  24    -0.730576400087E+02   -0.16005E-07   -0.28725E-08   992   0.540E-04
   1 F= -.73057640E+02 E0= -.73057640E+02  d E =-.210547E-11
 Linear response reoptimize wavefunctions to high precision
DAV:   1    -0.730576399709E+02    0.37762E-07   -0.36235E-09  1280   0.314E-04
DAV:   2    -0.730576399711E+02   -0.14734E-09   -0.41108E-10   992   0.139E-04
DAV:   3    -0.730576399711E+02   -0.64574E-10    0.14340E-10   976   0.979E-05
 Linear response DOF=           2
 Linear response progress:
  Degree of freedom:   1/  2
       N       E                     dE             d eps       ncg     rms          rms(c)
RMM:   1    -0.190143076210E-01   -0.19014E-01   -0.11590E+00  3554   0.714E+00
RMM:   2    -0.190709618212E-01   -0.56654E-04   -0.73365E-03  5352   0.216E-01    0.413E-02
RMM:   3    -0.191683486248E-01   -0.97387E-04   -0.39890E-04  6198   0.507E-02    0.355E-02
RMM:   4    -0.192153875220E-01   -0.47039E-04   -0.11469E-04  6750   0.219E-02    0.154E-02
RMM:   5    -0.192131605432E-01    0.22270E-05   -0.10546E-05  6848   0.722E-03    0.107E-02
RMM:   6    -0.191889069562E-01    0.24254E-04   -0.12195E-05  6410   0.703E-03    0.332E-03
RMM:   7    -0.191746330388E-01    0.14274E-04   -0.10138E-06  6466   0.241E-03    0.220E-03
RMM:   8    -0.191647681761E-01    0.98649E-05   -0.11449E-06  6773   0.188E-03    0.120E-03
RMM:   9    -0.191621777908E-01    0.25904E-05   -0.27048E-07  6516   0.959E-04    0.689E-04
RMM:  10    -0.191599149343E-01    0.22629E-05   -0.98360E-08  6500   0.594E-04    0.308E-04
RMM:  11    -0.191654588065E-01   -0.55439E-05   -0.30751E-08  6481   0.374E-04    0.168E-04
RMM:  12    -0.191660690574E-01   -0.61025E-06   -0.59152E-09  6757   0.170E-04    0.716E-05
RMM:  13    -0.191661351398E-01   -0.66082E-07   -0.31759E-09  7318   0.117E-04    0.458E-05
 first order change of Fermi-energy -0.211752622595540     
 force on displaced ion       1 direction 1 :  -5.966   0.001  -0.000
 Linear response progress:
  Degree of freedom:   2/  2
       N       E                     dE             d eps       ncg     rms          rms(c)
RMM:   1    -0.198442627304E-01   -0.19844E-01   -0.13192E+00  1334   0.715E+00
RMM:   2    -0.193919841816E-01    0.45228E-03   -0.75222E-03  1886   0.200E-01    0.487E-02
RMM:   3    -0.195942729776E-01   -0.20229E-03   -0.40066E-04  2142   0.473E-02    0.420E-02
RMM:   4    -0.199159649791E-01   -0.32169E-03   -0.19390E-04  2267   0.263E-02    0.268E-02
RMM:   5    -0.201028439516E-01   -0.18688E-03   -0.57382E-05  2234   0.168E-02    0.159E-02
RMM:   6    -0.201042944448E-01   -0.14505E-05   -0.16292E-05  2123   0.973E-03    0.725E-03
RMM:   7    -0.200316859842E-01    0.72608E-04   -0.35429E-06  2153   0.406E-03    0.372E-03
RMM:   8    -0.199815162320E-01    0.50170E-04   -0.21808E-06  2128   0.304E-03    0.170E-03
RMM:   9    -0.199817354949E-01   -0.21926E-06   -0.83835E-07  2192   0.172E-03    0.798E-04
RMM:  10    -0.199743061645E-01    0.74293E-05   -0.10873E-07  2199   0.694E-04    0.510E-04
RMM:  11    -0.199773605397E-01   -0.30544E-05   -0.45169E-08  2290   0.359E-04    0.351E-04
RMM:  12    -0.199808990702E-01   -0.35385E-05   -0.24164E-08  2280   0.336E-04    0.198E-04
RMM:  13    -0.199821826590E-01   -0.12836E-05   -0.61951E-08  2324   0.262E-04    0.109E-04
RMM:  14    -0.199821240272E-01    0.58632E-07    0.10112E-08  2339   0.170E-04    0.630E-05
 first order change of Fermi-energy -0.260715920064003     
 force on displaced ion       1 direction 3 :   0.000   0.000  -7.232
 Linear response finished
IPL WARN> IPL_init_numa_nodes: can not define numa node num
