 vasp.6.4.2 20Jul23 (build Nov 14 2023 12:59:38) complex                        
  
 executed on             LinuxIFC date 2023.12.16  19:45:18
 running   16 mpi-ranks, on    1 nodes
 distrk:  each k-point on   16 cores,    1 groups
 distr:  one band on NCORE=   1 cores,   16 groups


--------------------------------------------------------------------------------------------------------


 INCAR:
   ENCUT = 193.577625
   ALGO = Normal
   NELM = 200
   NELMIN = 6
   NELMDL = -12
   EDIFF = 1.0E-7
   AMIX = 0.1
   BMIX = 0.0001
   PREC = Accurate
   IVDW = 0
   ISPIN = 1
   ADDGRID = .TRUE.
   LASPH = .TRUE.
   EDIFFG = -0.010
   IBRION = 8
   STRESSTYPE = 2
   ISMEAR = 0
   SIGMA = 0.01
   LORBIT = 10
   NEDOS = 6001
   NWRITE = 1
   LWAVE = .FALSE.
   LCHARG = .FALSE.
   LPLANE = .TRUE.

 POTCAR:    PAW_PBE Sb_GW 21Mar2012               
 -----------------------------------------------------------------------------
|                                                                             |
|           W    W    AA    RRRRR   N    N  II  N    N   GGGG   !!!           |
|           W    W   A  A   R    R  NN   N  II  NN   N  G    G  !!!           |
|           W    W  A    A  R    R  N N  N  II  N N  N  G       !!!           |
|           W WW W  AAAAAA  RRRRR   N  N N  II  N  N N  G  GGG   !            |
|           WW  WW  A    A  R   R   N   NN  II  N   NN  G    G                |
|           W    W  A    A  R    R  N    N  II  N    N   GGGG   !!!           |
|                                                                             |
|     For optimal performance we recommend to set                             |
|       NCORE = 2 up to number-of-cores-per-socket                            |
|     NCORE specifies how many cores store one orbital (NPAR=cpu/NCORE).      |
|     This setting can greatly improve the performance of VASP for DFT.       |
|     The default, NCORE=1 might be grossly inefficient on modern             |
|     multi-core architectures or massively parallel machines. Do your        |
|     own testing! More info at https://www.vasp.at/wiki/index.php/NCORE      |
|     Unfortunately you need to use the default for GW and RPA                |
|     calculations (for HF NCORE is supported but not extensively tested      |
|     yet).                                                                   |
|                                                                             |
 -----------------------------------------------------------------------------

 POTCAR:    PAW_PBE Sb_GW 21Mar2012               
  local pseudopotential read in
  partial core-charges read in
  partial kinetic energy density read in
  kinetic energy density of atom read in
  atomic valenz-charges read in
  non local Contribution for L=           0  read in
    real space projection operators read in
  non local Contribution for L=           0  read in
    real space projection operators read in
  non local Contribution for L=           1  read in
    real space projection operators read in
  non local Contribution for L=           1  read in
    real space projection operators read in
  non local Contribution for L=           2  read in
    real space projection operators read in
  non local Contribution for L=           2  read in
    real space projection operators read in
  non local Contribution for L=           3  read in
    real space projection operators read in
  non local Contribution for L=           3  read in
    real space projection operators read in
    PAW grid and wavefunctions read in
 
   number of l-projection  operators is LMAX  =           8
   number of lm-projection operators is LMMAX =          32
 
 -----------------------------------------------------------------------------
|                                                                             |
|               ----> ADVICE to this user running VASP <----                  |
|                                                                             |
|     You have a (more or less) 'large supercell' and for larger cells it     |
|     might be more efficient to use real-space projection operators.         |
|     Therefore, try LREAL= Auto in the INCAR file.                           |
|     Mind: For very accurate calculation, you might also keep the            |
|     reciprocal projection scheme (i.e. LREAL=.FALSE.).                      |
|                                                                             |
 -----------------------------------------------------------------------------

  PAW_PBE Sb_GW 21Mar2012               :
 energy of atom  1       EATOM= -149.9515
 kinetic energy error for atom=    0.0054 (will be added to EATOM!!)
 
 
 POSCAR: generated by phonopy
  positions in direct lattice
  No initial velocities read in
 exchange correlation table for  LEXCH =        8
   RHO(1)=    0.500       N(1)  =     2000
   RHO(2)=  100.500       N(2)  =     4000
 


--------------------------------------------------------------------------------------------------------


 ion  position               nearest neighbor table
   1  0.222  0.111  0.449-  10 2.89  11 2.89  16 2.89
   2  0.556  0.111  0.449-  11 2.89  12 2.89  17 2.89
   3  0.889  0.111  0.449-  12 2.89  18 2.89  10 2.89
   4  0.222  0.444  0.449-  10 2.89  13 2.89  14 2.89
   5  0.556  0.444  0.449-  11 2.89  15 2.89  14 2.89
   6  0.889  0.444  0.449-  12 2.89  15 2.89  13 2.89
   7  0.222  0.778  0.449-  16 2.89  13 2.89  17 2.89
   8  0.556  0.778  0.449-  14 2.89  17 2.89  18 2.89
   9  0.889  0.778  0.449-  18 2.89  15 2.89  16 2.89
  10  0.111  0.222  0.551-   1 2.89   4 2.89   3 2.89
  11  0.444  0.222  0.551-   1 2.89   2 2.89   5 2.89
  12  0.778  0.222  0.551-   3 2.89   2 2.89   6 2.89
  13  0.111  0.556  0.551-   4 2.89   7 2.89   6 2.89
  14  0.444  0.556  0.551-   8 2.89   4 2.89   5 2.89
  15  0.778  0.556  0.551-   6 2.89   9 2.89   5 2.89
  16  0.111  0.889  0.551-   7 2.89   1 2.89   9 2.89
  17  0.444  0.889  0.551-   7 2.89   8 2.89   2 2.89
  18  0.778  0.889  0.551-   9 2.89   8 2.89   3 2.89
 
  LATTYP: Found a hexagonal cell.
 ALAT       =    12.3400996490
 C/A-ratio  =     1.2965859641
  
  Lattice vectors:
  
 A1 = (  12.3400996490,   0.0000000000,   0.0000000000)
 A2 = (  -6.1700498245,  10.6868397813,   0.0000000000)
 A3 = (   0.0000000000,   0.0000000000,  16.0000000000)


Analysis of symmetry for initial positions (statically):
=====================================================================
 Subroutine PRICEL returns following result:
 
  LATTYP: Found a hexagonal cell.
 ALAT       =     4.1133665497
 C/A-ratio  =     3.8897578922
  
  Lattice vectors:
  
 A1 = (   4.1133665497,   0.0000000000,   0.0000000000)
 A2 = (  -2.0566832748,   3.5622799271,   0.0000000000)
 A3 = (   0.0000000000,   0.0000000000,  16.0000000000)
 
   9 primitive cells build up your supercell.
 

 Routine SETGRP: Setting up the symmetry group for a 
 hexagonal supercell.


 Subroutine GETGRP returns: Found 12 space group operations
 (whereof 12 operations were pure point group operations)
 out of a pool of 24 trial point group operations.


The static configuration has the point symmetry D_3d.


Analysis of symmetry for dynamics (positions and initial velocities):
=====================================================================
 Subroutine PRICEL returns following result:
 
  LATTYP: Found a hexagonal cell.
 ALAT       =     4.1133665497
 C/A-ratio  =     3.8897578922
  
  Lattice vectors:
  
 A1 = (   4.1133665497,   0.0000000000,   0.0000000000)
 A2 = (  -2.0566832748,   3.5622799271,   0.0000000000)
 A3 = (   0.0000000000,   0.0000000000,  16.0000000000)
 
   9 primitive cells build up your supercell.
 

 Routine SETGRP: Setting up the symmetry group for a 
 hexagonal supercell.


 Subroutine GETGRP returns: Found 12 space group operations
 (whereof 12 operations were pure point group operations)
 out of a pool of 24 trial point group operations.


The dynamic configuration has the point symmetry D_3d.


 Subroutine INISYM returns: Found 12 space group operations
 (whereof 12 operations are pure point group operations),
 and found     9 'primitive' translations


----------------------------------------------------------------------------------------

                                     Primitive cell                                     

  volume of cell :     234.4474

  direct lattice vectors                    reciprocal lattice vectors
     4.113366550  0.000000000  0.000000000     0.243109868  0.140359548  0.000000000
    -2.056683275  3.562279927  0.000000000     0.000000000  0.280719096  0.000000000
     0.000000000  0.000000000 16.000000000     0.000000000  0.000000000  0.062500000

  length of vectors
     4.113366550  4.113366550 16.000000000     0.280719096  0.280719096  0.062500000

  position of ions in fractional coordinates (direct lattice)
     0.666666667  0.333333333  0.448625398
     0.333333333  0.666666667  0.551374602

  ion indices of the primitive-cell ions
   primitive index   ion index
                 1           1
                 2          10

----------------------------------------------------------------------------------------

 
 
 KPOINTS: Fully automatic mesh                    

Automatic generation of k-mesh.
 Grid dimensions derived from RKLEN:
 generate k-points for:    4    4    3

 Generating k-lattice:

  Cartesian coordinates                     Fractional coordinates (reciprocal lattice)
     0.020259156  0.011696629  0.000000000     0.250000000 -0.000000000  0.000000000
     0.000000000  0.023393258  0.000000000     0.000000000  0.250000000  0.000000000
     0.000000000  0.000000000  0.020833333     0.000000000  0.000000000  0.333333333

  Length of vectors
     0.023393258  0.023393258  0.020833333

  Shift w.r.t. Gamma in fractional coordinates (k-lattice)
     0.000000000  0.000000000  0.000000000

 
 Subroutine IBZKPT returns following result:
 ===========================================
 
 Found      9 irreducible k-points:
 
 Following reciprocal coordinates:
            Coordinates               Weight
  0.000000  0.000000  0.000000      1.000000
  0.250000 -0.000000  0.000000      6.000000
  0.500000 -0.000000  0.000000      3.000000
  0.250000  0.250000  0.000000      6.000000
  0.000000  0.000000  0.333333      2.000000
  0.250000 -0.000000  0.333333      6.000000
  0.000000  0.250000  0.333333      6.000000
  0.500000 -0.000000  0.333333      6.000000
  0.250000  0.250000  0.333333     12.000000
 
 Following cartesian coordinates:
            Coordinates               Weight
  0.000000  0.000000  0.000000      1.000000
  0.020259  0.011697  0.000000      6.000000
  0.040518  0.023393  0.000000      3.000000
  0.020259  0.035090  0.000000      6.000000
  0.000000  0.000000  0.020833      2.000000
  0.020259  0.011697  0.020833      6.000000
  0.000000  0.023393  0.020833      6.000000
  0.040518  0.023393  0.020833      6.000000
  0.020259  0.035090  0.020833     12.000000
 
 
 Subroutine IBZKPT_HF returns following result:
 ==============================================
 
 Found     48 k-points in 1st BZ
 the following     48 k-points will be used (e.g. in the exchange kernel)
 Following reciprocal coordinates:   # in IRBZ
  0.000000  0.000000  0.000000    0.02083333   1 t-inv F
  0.250000 -0.000000  0.000000    0.02083333   2 t-inv F
  0.500000 -0.000000  0.000000    0.02083333   3 t-inv F
  0.250000  0.250000  0.000000    0.02083333   4 t-inv F
  0.000000  0.000000  0.333333    0.02083333   5 t-inv F
  0.250000 -0.000000  0.333333    0.02083333   6 t-inv F
  0.000000  0.250000  0.333333    0.02083333   7 t-inv F
  0.500000 -0.000000  0.333333    0.02083333   8 t-inv F
  0.250000  0.250000  0.333333    0.02083333   9 t-inv F
 -0.250000  0.000000  0.000000    0.02083333   2 t-inv F
 -0.250000  0.250000  0.000000    0.02083333   2 t-inv F
  0.250000 -0.250000  0.000000    0.02083333   2 t-inv F
 -0.000000 -0.250000  0.000000    0.02083333   2 t-inv F
  0.000000  0.250000  0.000000    0.02083333   2 t-inv F
 -0.500000  0.500000  0.000000    0.02083333   3 t-inv F
 -0.000000 -0.500000  0.000000    0.02083333   3 t-inv F
 -0.250000 -0.250000  0.000000    0.02083333   4 t-inv F
 -0.500000  0.250000  0.000000    0.02083333   4 t-inv F
  0.500000 -0.250000  0.000000    0.02083333   4 t-inv F
  0.250000 -0.500000  0.000000    0.02083333   4 t-inv F
 -0.250000  0.500000  0.000000    0.02083333   4 t-inv F
  0.000000  0.000000 -0.333333    0.02083333   5 t-inv F
 -0.250000  0.000000 -0.333333    0.02083333   6 t-inv F
 -0.250000  0.250000  0.333333    0.02083333   6 t-inv F
  0.250000 -0.250000 -0.333333    0.02083333   6 t-inv F
 -0.000000 -0.250000  0.333333    0.02083333   6 t-inv F
  0.000000  0.250000 -0.333333    0.02083333   6 t-inv F
  0.000000 -0.250000 -0.333333    0.02083333   7 t-inv F
 -0.250000  0.000000  0.333333    0.02083333   7 t-inv F
  0.250000  0.000000 -0.333333    0.02083333   7 t-inv F
  0.250000 -0.250000  0.333333    0.02083333   7 t-inv F
 -0.250000  0.250000 -0.333333    0.02083333   7 t-inv F
 -0.500000  0.000000 -0.333333    0.02083333   8 t-inv F
 -0.500000  0.500000  0.333333    0.02083333   8 t-inv F
  0.500000 -0.500000 -0.333333    0.02083333   8 t-inv F
 -0.000000 -0.500000  0.333333    0.02083333   8 t-inv F
  0.000000  0.500000 -0.333333    0.02083333   8 t-inv F
 -0.250000 -0.250000 -0.333333    0.02083333   9 t-inv F
 -0.500000  0.250000  0.333333    0.02083333   9 t-inv F
  0.500000 -0.250000 -0.333333    0.02083333   9 t-inv F
  0.250000 -0.500000  0.333333    0.02083333   9 t-inv F
 -0.250000  0.500000 -0.333333    0.02083333   9 t-inv F
  0.250000 -0.500000 -0.333333    0.02083333   9 t-inv F
 -0.250000  0.500000  0.333333    0.02083333   9 t-inv F
 -0.500000  0.250000 -0.333333    0.02083333   9 t-inv F
  0.500000 -0.250000  0.333333    0.02083333   9 t-inv F
  0.250000  0.250000 -0.333333    0.02083333   9 t-inv F
 -0.250000 -0.250000  0.333333    0.02083333   9 t-inv F


--------------------------------------------------------------------------------------------------------




 Dimension of arrays:
   k-points           NKPTS =      9   k-points in BZ     NKDIM =      9   number of bands    NBANDS=     64
   number of dos      NEDOS =   6001   number of ions     NIONS =     18
   non local maximal  LDIM  =      8   non local SUM 2l+1 LMDIM =     32
   total plane-waves  NPLWV = 250880
   max r-space proj   IRMAX =      1   max aug-charges    IRDMAX=  52981
   dimension x,y,z NGX =    56 NGY =   56 NGZ =   80
   dimension x,y,z NGXF=   112 NGYF=  112 NGZF=  160
   support grid    NGXF=   224 NGYF=  224 NGZF=  320
   ions per type =              18
   NGX,Y,Z   is equivalent  to a cutoff of   7.54,  7.54,  8.31 a.u.
   NGXF,Y,Z  is equivalent  to a cutoff of  15.09, 15.09, 16.62 a.u.

 SYSTEM =  unknown system                          
 POSCAR =  generated by phonopy                    

 Startparameter for this run:
   NWRITE =      1    write-flag & timer
   PREC   = accura    normal or accurate (medium, high low for compatibility)
   ISTART =      0    job   : 0-new  1-cont  2-samecut
   ICHARG =      2    charge: 1-file 2-atom 10-const
   ISPIN  =      1    spin polarized calculation?
   LNONCOLLINEAR =      F non collinear calculations
   LSORBIT =      F    spin-orbit coupling
   INIWAV =      1    electr: 0-lowe 1-rand  2-diag
   LASPH  =      T    aspherical Exc in radial PAW
 Electronic Relaxation 1
   ENCUT  =  193.6 eV  14.23 Ry    3.77 a.u.  14.00 14.00 18.15*2*pi/ulx,y,z
   ENINI  =  193.6     initial cutoff
   ENAUG  =  560.6 eV  augmentation charge cutoff
   NELM   =    200;   NELMIN=  6; NELMDL=-12     # of ELM steps 
   EDIFF  = 0.1E-06   stopping-criterion for ELM
   LREAL  =      F    real-space projection
   NLSPLINE    = F    spline interpolate recip. space projectors
   LCOMPAT=      F    compatible to vasp.4.4
   GGA_COMPAT  = T    GGA compatible to vasp.4.4-vasp.4.6
   LMAXPAW     = -100 max onsite density
   LMAXMIX     =    2 max onsite mixed and CHGCAR
   VOSKOWN=      0    Vosko Wilk Nusair interpolation
   ROPT   =    0.00000
 Ionic relaxation
   EDIFFG = -.1E-01   stopping-criterion for IOM
   NSW    =      1    number of steps for IOM
   NBLOCK =      1;   KBLOCK =      1    inner block; outer block 
   IBRION =      8    ionic relax: 0-MD 1-quasi-New 2-CG
   NFREE  =      0    steps in history (QN), initial steepest desc. (CG)
   ISIF   =      2    stress and relaxation
   IWAVPR =     11    prediction:  0-non 1-charg 2-wave 3-comb
   ISYM   =      2    0-nonsym 1-usesym 2-fastsym
   LCORR  =      T    Harris-Foulkes like correction to forces

   POTIM  = 0.5000    time-step for ionic-motion
   TEIN   =    0.0    initial temperature
   TEBEG  =    0.0;   TEEND  =   0.0 temperature during run
   SMASS  =  -3.00    Nose mass-parameter (am)
   estimated Nose-frequenzy (Omega)   =  0.10E-29 period in steps = 0.13E+47 mass=  -0.348E-26a.u.
   SCALEE = 1.0000    scale energy and forces
   NPACO  =    256;   APACO  = 10.0  distance and # of slots for P.C.
   PSTRESS=    0.0 pullay stress

  Mass of Ions in am
   POMASS = 121.75
  Ionic Valenz
   ZVAL   =   5.00
  Atomic Wigner-Seitz radii
   RWIGS  =  -1.00
  virtual crystal weights 
   VCA    =   1.00
   NELECT =      90.0000    total number of electrons
   NUPDOWN=      -1.0000    fix difference up-down

 DOS related values:
   EMIN   =  10.00;   EMAX   =-10.00  energy-range for DOS
   EFERMI =   0.00;   METHOD = LEGACY      
   ISMEAR =     0;   SIGMA  =   0.01  broadening in eV -4-tet -1-fermi 0-gaus

 Electronic relaxation 2 (details)
   IALGO  =     38    algorithm
   LDIAG  =      T    sub-space diagonalisation (order eigenvalues)
   LSUBROT=      F    optimize rotation matrix (better conditioning)
   TURBO    =      0    0=normal 1=particle mesh
   IRESTART =      0    0=no restart 2=restart with 2 vectors
   NREBOOT  =      0    no. of reboots
   NMIN     =      0    reboot dimension
   EREF     =   0.00    reference energy to select bands
   IMIX   =      4    mixing-type and parameters
     AMIX     =   0.10;   BMIX     =  0.00
     AMIX_MAG =   0.40;   BMIX_MAG =  0.00
     AMIN     =   0.10
     WC   =   100.;   INIMIX=   1;  MIXPRE=   1;  MAXMIX= -45

 Intra band minimization:
   WEIMIN = 0.0010     energy-eigenvalue tresh-hold
   EBREAK =  0.39E-09  absolut break condition
   DEPER  =   0.30     relativ break condition  

   TIME   =   0.40     timestep for ELM

  volume/ion in A,a.u.               =     117.22       791.06
  Fermi-wavevector in a.u.,A,eV,Ry     =   0.571996  1.080916  4.451547  0.327179
  Thomas-Fermi vector in A             =   1.612688
 
 Write flags
   LWAVE        =      F    write WAVECAR
   LDOWNSAMPLE  =      F    k-point downsampling of WAVECAR
   LCHARG       =      F    write CHGCAR
   LVTOT        =      F    write LOCPOT, total local potential
   LVHAR        =      F    write LOCPOT, Hartree potential only
   LELF         =      F    write electronic localiz. function (ELF)
   LORBIT       =     10    0 simple, 1 ext, 2 COOP (PROOUT), +10 PAW based schemes


 Dipole corrections
   LMONO  =      F    monopole corrections only (constant potential shift)
   LDIPOL =      F    correct potential (dipole corrections)
   IDIPOL =      0    1-x, 2-y, 3-z, 4-all directions 
   EPSILON=  1.0000000 bulk dielectric constant

 Exchange correlation treatment:
   GGA     =    --    GGA type
   LEXCH   =     8    internal setting for exchange type
   LIBXC   =     F    Libxc                    
   VOSKOWN =     0    Vosko Wilk Nusair interpolation
   LHFCALC =     F    Hartree Fock is set to
   LHFONE  =     F    Hartree Fock one center treatment
   AEXX    =    0.0000 exact exchange contribution

 Linear response parameters
   LEPSILON=     F    determine dielectric tensor
   LRPA    =     F    only Hartree local field effects (RPA)
   LNABLA  =     F    use nabla operator in PAW spheres
   LVEL    =     F    velocity operator in full k-point grid
   CSHIFT  =0.1000    complex shift for real part using Kramers Kronig
   OMEGAMAX=  -1.0    maximum frequency
   DEG_THRESHOLD= 0.2000000E-02 threshold for treating states as degnerate
   RTIME   =   -0.100 relaxation time in fs
  (WPLASMAI=    0.000 imaginary part of plasma frequency in eV, 0.658/RTIME)
   DFIELD  = 0.0000000 0.0000000 0.0000000 field for delta impulse in time
 
  Optional k-point grid parameters
   LKPOINTS_OPT  =     F    use optional k-point grid
   KPOINTS_OPT_MODE=     1    mode for optional k-point grid
 
 Orbital magnetization related:
   ORBITALMAG=     F  switch on orbital magnetization
   LCHIMAG   =     F  perturbation theory with respect to B field
   DQ        =  0.001000  dq finite difference perturbation B field
   LLRAUG    =     F  two centre corrections for induced B field
   LBONE     =     F  B-component reconstruction in AE one-centre
   LVGVCALC  =     T  calculate vGv susceptibility
   LVGVAPPL  =     F  apply vGv susceptibility instead of pGv for G=0

 Random number generation:
   RANDOM_GENERATOR = DEFAULT
   PCG_SEED         = not used


--------------------------------------------------------------------------------------------------------


 linear response using symmetry
 charge density and potential will be updated during run
 non-spin polarized calculation
 Variant of blocked Davidson
 Davidson routine will perform the subspace rotation
 perform sub-space diagonalisation
    after iterative eigenvector-optimisation
 modified Broyden-mixing scheme, WC =      100.0
 initial mixing is a Kerker type mixing with AMIX =  0.1000 and BMIX =      0.0001
 Hartree-type preconditioning will be used
 using additional bands           19
 reciprocal scheme for non local part
 use partial core corrections
 calculate Harris-corrections to forces 
   (improved forces if not selfconsistent)
 use gradient corrections 
 use of overlap-Matrix (Vanderbilt PP)
 Gauss-broadening in eV      SIGMA  =   0.01


--------------------------------------------------------------------------------------------------------


  energy-cutoff  :      193.58
  volume of cell :     2110.03
      direct lattice vectors                 reciprocal lattice vectors
    12.340099649  0.000000000  0.000000000     0.081036623  0.046786516  0.000000000
    -6.170049825 10.686839781  0.000000000     0.000000000  0.093573032  0.000000000
     0.000000000  0.000000000 16.000000000     0.000000000  0.000000000  0.062500000

  length of vectors
    12.340099649 12.340099649 16.000000000     0.093573032  0.093573032  0.062500000


 
 k-points in units of 2pi/SCALE and weight: Fully automatic mesh                    
   0.00000000  0.00000000  0.00000000       0.021
   0.02025916  0.01169663  0.00000000       0.125
   0.04051831  0.02339326  0.00000000       0.062
   0.02025916  0.03508989  0.00000000       0.125
   0.00000000  0.00000000  0.02083333       0.042
   0.02025916  0.01169663  0.02083333       0.125
   0.00000000  0.02339326  0.02083333       0.125
   0.04051831  0.02339326  0.02083333       0.125
   0.02025916  0.03508989  0.02083333       0.250
 
 k-points in reciprocal lattice and weights: Fully automatic mesh                    
   0.00000000  0.00000000  0.00000000       0.021
   0.25000000 -0.00000000  0.00000000       0.125
   0.50000000 -0.00000000  0.00000000       0.062
   0.25000000  0.25000000  0.00000000       0.125
   0.00000000  0.00000000  0.33333333       0.042
   0.25000000 -0.00000000  0.33333333       0.125
   0.00000000  0.25000000  0.33333333       0.125
   0.50000000 -0.00000000  0.33333333       0.125
   0.25000000  0.25000000  0.33333333       0.250
 
 position of ions in fractional coordinates (direct lattice) 
   0.22222222  0.11111111  0.44862540
   0.55555556  0.11111111  0.44862540
   0.88888889  0.11111111  0.44862540
   0.22222222  0.44444444  0.44862540
   0.55555556  0.44444444  0.44862540
   0.88888889  0.44444444  0.44862540
   0.22222222  0.77777778  0.44862540
   0.55555556  0.77777778  0.44862540
   0.88888889  0.77777778  0.44862540
   0.11111111  0.22222222  0.55137460
   0.44444444  0.22222222  0.55137460
   0.77777778  0.22222222  0.55137460
   0.11111111  0.55555556  0.55137460
   0.44444444  0.55555556  0.55137460
   0.77777778  0.55555556  0.55137460
   0.11111111  0.88888889  0.55137460
   0.44444444  0.88888889  0.55137460
   0.77777778  0.88888889  0.55137460
 
 position of ions in cartesian coordinates  (Angst):
   2.05668327  1.18742664  7.17800637
   6.17004982  1.18742664  7.17800637
  10.28341637  1.18742664  7.17800637
   0.00000000  4.74970657  7.17800637
   4.11336655  4.74970657  7.17800637
   8.22673310  4.74970657  7.17800637
  -2.05668327  8.31198650  7.17800637
   2.05668327  8.31198650  7.17800637
   6.17004982  8.31198650  7.17800637
   0.00000000  2.37485328  8.82199363
   4.11336655  2.37485328  8.82199363
   8.22673310  2.37485328  8.82199363
  -2.05668327  5.93713321  8.82199363
   2.05668327  5.93713321  8.82199363
   6.17004982  5.93713321  8.82199363
  -4.11336655  9.49941314  8.82199363
   0.00000000  9.49941314  8.82199363
   4.11336655  9.49941314  8.82199363
 


--------------------------------------------------------------------------------------------------------


 k-point   1 :   0.0000 0.0000 0.0000  plane waves:   12805
 k-point   2 :   0.2500-0.0000 0.0000  plane waves:   12882
 k-point   3 :   0.5000-0.0000 0.0000  plane waves:   12930
 k-point   4 :   0.2500 0.2500 0.0000  plane waves:   12916
 k-point   5 :   0.0000 0.0000 0.3333  plane waves:   12828
 k-point   6 :   0.2500-0.0000 0.3333  plane waves:   12897
 k-point   7 :   0.0000 0.2500 0.3333  plane waves:   12897
 k-point   8 :   0.5000-0.0000 0.3333  plane waves:   12906
 k-point   9 :   0.2500 0.2500 0.3333  plane waves:   12903

 maximum and minimum number of plane-waves per node :     12930    12805

 maximum number of plane-waves:     12930
 maximum index in each direction: 
   IXMAX=   13   IYMAX=   13   IZMAX=   18
   IXMIN=  -14   IYMIN=  -14   IZMIN=  -18


 serial   3D FFT for wavefunctions
 parallel 3D FFT for charge:
    minimum data exchange during FFTs selected (reduces bandwidth)


 total amount of memory used by VASP MPI-rank0   107795. kBytes
=======================================================================

   base      :      30000. kBytes
   nonl-proj :      33550. kBytes
   fftplans  :      19418. kBytes
   grid      :      16156. kBytes
   one-center:        884. kBytes
   wavefun   :       7787. kBytes
 
     INWAV:  cpu time      0.0003: real time      0.0003
 Broyden mixing: mesh for mixing (old mesh)
   NGX = 27   NGY = 27   NGZ = 37
  (NGX  =112   NGY  =112   NGZ  =160)
  gives a total of  26973 points

 initial charge density was supplied:
 charge density of overlapping atoms calculated
 number of electron      90.0000000 magnetization 
 keeping initial charge density in first step


--------------------------------------------------------------------------------------------------------


 Maximum index for augmentation-charges         3346 (set IRDMAX)


--------------------------------------------------------------------------------------------------------


 First call to EWALD:  gamma=   0.138
 Maximum number of real-space cells 3x 3x 2
 Maximum number of reciprocal cells 3x 3x 3

    FEWALD:  cpu time      0.0014: real time      0.0014


--------------------------------------- Ionic step        1  -------------------------------------------




--------------------------------------- Iteration      1(   1)  ---------------------------------------


    POTLOK:  cpu time      0.1537: real time      0.1542
    SETDIJ:  cpu time      0.8209: real time      0.8228
     EDDAV:  cpu time     12.1024: real time     12.1245
       DOS:  cpu time      0.0016: real time      0.0016
    --------------------------------------------
      LOOP:  cpu time     13.0786: real time     13.1031

 eigenvalue-minimisations  :  1152
 total energy-change (2. order) : 0.5498397E+03  (-0.1388508E+04)
 number of electron      90.0000000 magnetization 
 augmentation part       90.0000000 magnetization 

 Free energy of the ion-electron system (eV)
  ---------------------------------------------------
  alpha Z        PSCENC =        26.78341302
  Ewald energy   TEWEN  =      1925.27048329
  -Hartree energ DENC   =     -4210.38807378
  -exchange      EXHF   =         0.00000000
  -V(xc)+E(xc)   XCENC  =      -834.30088619
  PAW double counting   =      2946.23044814    -1975.02251642
  entropy T*S    EENTRO =        -0.00059556
  eigenvalues    EBANDS =       -27.76210782
  atomic energy  EATOM  =      2699.02954745
  Solvation  Ediel_sol  =         0.00000000
  ---------------------------------------------------
  free energy    TOTEN  =       549.83971213 eV

  energy without entropy =      549.84030769  energy(sigma->0) =      549.84000991


--------------------------------------------------------------------------------------------------------




--------------------------------------- Iteration      1(   2)  ---------------------------------------


     EDDAV:  cpu time     18.6025: real time     18.6421
       DOS:  cpu time      0.0017: real time      0.0017
    --------------------------------------------
      LOOP:  cpu time     18.6042: real time     18.6438

 eigenvalue-minimisations  :  1968
 total energy-change (2. order) :-0.5508913E+03  (-0.5314272E+03)
 number of electron      90.0000000 magnetization 
 augmentation part       90.0000000 magnetization 

 Free energy of the ion-electron system (eV)
  ---------------------------------------------------
  alpha Z        PSCENC =        26.78341302
  Ewald energy   TEWEN  =      1925.27048329
  -Hartree energ DENC   =     -4210.38807378
  -exchange      EXHF   =         0.00000000
  -V(xc)+E(xc)   XCENC  =      -834.30088619
  PAW double counting   =      2946.23044814    -1975.02251642
  entropy T*S    EENTRO =        -0.00000000
  eigenvalues    EBANDS =      -578.65404374
  atomic energy  EATOM  =      2699.02954745
  Solvation  Ediel_sol  =         0.00000000
  ---------------------------------------------------
  free energy    TOTEN  =        -1.05162823 eV

  energy without entropy =       -1.05162823  energy(sigma->0) =       -1.05162823


--------------------------------------------------------------------------------------------------------




--------------------------------------- Iteration      1(   3)  ---------------------------------------


     EDDAV:  cpu time     14.8506: real time     14.8819
       DOS:  cpu time      0.0016: real time      0.0016
    --------------------------------------------
      LOOP:  cpu time     14.8522: real time     14.8835

 eigenvalue-minimisations  :  1504
 total energy-change (2. order) :-0.6866968E+02  (-0.6770560E+02)
 number of electron      90.0000000 magnetization 
 augmentation part       90.0000000 magnetization 

 Free energy of the ion-electron system (eV)
  ---------------------------------------------------
  alpha Z        PSCENC =        26.78341302
  Ewald energy   TEWEN  =      1925.27048329
  -Hartree energ DENC   =     -4210.38807378
  -exchange      EXHF   =         0.00000000
  -V(xc)+E(xc)   XCENC  =      -834.30088619
  PAW double counting   =      2946.23044814    -1975.02251642
  entropy T*S    EENTRO =        -0.00000000
  eigenvalues    EBANDS =      -647.32372702
  atomic energy  EATOM  =      2699.02954745
  Solvation  Ediel_sol  =         0.00000000
  ---------------------------------------------------
  free energy    TOTEN  =       -69.72131151 eV

  energy without entropy =      -69.72131151  energy(sigma->0) =      -69.72131151


--------------------------------------------------------------------------------------------------------




--------------------------------------- Iteration      1(   4)  ---------------------------------------


     EDDAV:  cpu time     18.3760: real time     18.4111
       DOS:  cpu time      0.0009: real time      0.0009
    --------------------------------------------
      LOOP:  cpu time     18.3768: real time     18.4119

 eigenvalue-minimisations  :  1936
 total energy-change (2. order) :-0.3733568E+01  (-0.3722079E+01)
 number of electron      90.0000000 magnetization 
 augmentation part       90.0000000 magnetization 

 Free energy of the ion-electron system (eV)
  ---------------------------------------------------
  alpha Z        PSCENC =        26.78341302
  Ewald energy   TEWEN  =      1925.27048329
  -Hartree energ DENC   =     -4210.38807378
  -exchange      EXHF   =         0.00000000
  -V(xc)+E(xc)   XCENC  =      -834.30088619
  PAW double counting   =      2946.23044814    -1975.02251642
  entropy T*S    EENTRO =        -0.00000000
  eigenvalues    EBANDS =      -651.05729545
  atomic energy  EATOM  =      2699.02954745
  Solvation  Ediel_sol  =         0.00000000
  ---------------------------------------------------
  free energy    TOTEN  =       -73.45487994 eV

  energy without entropy =      -73.45487994  energy(sigma->0) =      -73.45487994


--------------------------------------------------------------------------------------------------------




--------------------------------------- Iteration      1(   5)  ---------------------------------------


     EDDAV:  cpu time     15.8661: real time     15.9023
       DOS:  cpu time      0.0021: real time      0.0021
    --------------------------------------------
      LOOP:  cpu time     15.8682: real time     15.9044

 eigenvalue-minimisations  :  1680
 total energy-change (2. order) :-0.4159803E-01  (-0.4153852E-01)
 number of electron      90.0000000 magnetization 
 augmentation part       90.0000000 magnetization 

 Free energy of the ion-electron system (eV)
  ---------------------------------------------------
  alpha Z        PSCENC =        26.78341302
  Ewald energy   TEWEN  =      1925.27048329
  -Hartree energ DENC   =     -4210.38807378
  -exchange      EXHF   =         0.00000000
  -V(xc)+E(xc)   XCENC  =      -834.30088619
  PAW double counting   =      2946.23044814    -1975.02251642
  entropy T*S    EENTRO =        -0.00000000
  eigenvalues    EBANDS =      -651.09889348
  atomic energy  EATOM  =      2699.02954745
  Solvation  Ediel_sol  =         0.00000000
  ---------------------------------------------------
  free energy    TOTEN  =       -73.49647797 eV

  energy without entropy =      -73.49647797  energy(sigma->0) =      -73.49647797


--------------------------------------------------------------------------------------------------------




--------------------------------------- Iteration      1(   6)  ---------------------------------------


     EDDAV:  cpu time     17.7490: real time     17.7837
       DOS:  cpu time      0.0008: real time      0.0008
    --------------------------------------------
      LOOP:  cpu time     17.7498: real time     17.7845

 eigenvalue-minimisations  :  1968
 total energy-change (2. order) :-0.1758273E-02  (-0.1757591E-02)
 number of electron      90.0000000 magnetization 
 augmentation part       90.0000000 magnetization 

 Free energy of the ion-electron system (eV)
  ---------------------------------------------------
  alpha Z        PSCENC =        26.78341302
  Ewald energy   TEWEN  =      1925.27048329
  -Hartree energ DENC   =     -4210.38807378
  -exchange      EXHF   =         0.00000000
  -V(xc)+E(xc)   XCENC  =      -834.30088619
  PAW double counting   =      2946.23044814    -1975.02251642
  entropy T*S    EENTRO =        -0.00000000
  eigenvalues    EBANDS =      -651.10065175
  atomic energy  EATOM  =      2699.02954745
  Solvation  Ediel_sol  =         0.00000000
  ---------------------------------------------------
  free energy    TOTEN  =       -73.49823624 eV

  energy without entropy =      -73.49823624  energy(sigma->0) =      -73.49823624


--------------------------------------------------------------------------------------------------------




--------------------------------------- Iteration      1(   7)  ---------------------------------------


     EDDAV:  cpu time     15.6451: real time     15.6748
       DOS:  cpu time      0.0008: real time      0.0008
    --------------------------------------------
      LOOP:  cpu time     15.6458: real time     15.6755

 eigenvalue-minimisations  :  1648
 total energy-change (2. order) :-0.2849408E-04  (-0.2848621E-04)
 number of electron      90.0000000 magnetization 
 augmentation part       90.0000000 magnetization 

 Free energy of the ion-electron system (eV)
  ---------------------------------------------------
  alpha Z        PSCENC =        26.78341302
  Ewald energy   TEWEN  =      1925.27048329
  -Hartree energ DENC   =     -4210.38807378
  -exchange      EXHF   =         0.00000000
  -V(xc)+E(xc)   XCENC  =      -834.30088619
  PAW double counting   =      2946.23044814    -1975.02251642
  entropy T*S    EENTRO =        -0.00000000
  eigenvalues    EBANDS =      -651.10068025
  atomic energy  EATOM  =      2699.02954745
  Solvation  Ediel_sol  =         0.00000000
  ---------------------------------------------------
  free energy    TOTEN  =       -73.49826474 eV

  energy without entropy =      -73.49826474  energy(sigma->0) =      -73.49826474


--------------------------------------------------------------------------------------------------------




--------------------------------------- Iteration      1(   8)  ---------------------------------------


     EDDAV:  cpu time     18.4136: real time     18.4504
       DOS:  cpu time      0.0013: real time      0.0013
    --------------------------------------------
      LOOP:  cpu time     18.4149: real time     18.4517

 eigenvalue-minimisations  :  2048
 total energy-change (2. order) :-0.1424006E-05  (-0.1424227E-05)
 number of electron      90.0000000 magnetization 
 augmentation part       90.0000000 magnetization 

 Free energy of the ion-electron system (eV)
  ---------------------------------------------------
  alpha Z        PSCENC =        26.78341302
  Ewald energy   TEWEN  =      1925.27048329
  -Hartree energ DENC   =     -4210.38807378
  -exchange      EXHF   =         0.00000000
  -V(xc)+E(xc)   XCENC  =      -834.30088619
  PAW double counting   =      2946.23044814    -1975.02251642
  entropy T*S    EENTRO =        -0.00000000
  eigenvalues    EBANDS =      -651.10068167
  atomic energy  EATOM  =      2699.02954745
  Solvation  Ediel_sol  =         0.00000000
  ---------------------------------------------------
  free energy    TOTEN  =       -73.49826616 eV

  energy without entropy =      -73.49826616  energy(sigma->0) =      -73.49826616


--------------------------------------------------------------------------------------------------------




--------------------------------------- Iteration      1(   9)  ---------------------------------------


     EDDAV:  cpu time     13.8717: real time     13.8979
       DOS:  cpu time      0.0010: real time      0.0010
    --------------------------------------------
      LOOP:  cpu time     13.8727: real time     13.8989

 eigenvalue-minimisations  :  1424
 total energy-change (2. order) :-0.1167246E-07  (-0.1111648E-07)
 number of electron      90.0000000 magnetization 
 augmentation part       90.0000000 magnetization 

 Free energy of the ion-electron system (eV)
  ---------------------------------------------------
  alpha Z        PSCENC =        26.78341302
  Ewald energy   TEWEN  =      1925.27048329
  -Hartree energ DENC   =     -4210.38807378
  -exchange      EXHF   =         0.00000000
  -V(xc)+E(xc)   XCENC  =      -834.30088619
  PAW double counting   =      2946.23044814    -1975.02251642
  entropy T*S    EENTRO =        -0.00000000
  eigenvalues    EBANDS =      -651.10068168
  atomic energy  EATOM  =      2699.02954745
  Solvation  Ediel_sol  =         0.00000000
  ---------------------------------------------------
  free energy    TOTEN  =       -73.49826617 eV

  energy without entropy =      -73.49826617  energy(sigma->0) =      -73.49826617


--------------------------------------------------------------------------------------------------------




--------------------------------------- Iteration      1(  10)  ---------------------------------------


     EDDAV:  cpu time     12.9172: real time     12.9416
       DOS:  cpu time      0.0008: real time      0.0008
    --------------------------------------------
      LOOP:  cpu time     12.9180: real time     12.9424

 eigenvalue-minimisations  :  1296
 total energy-change (2. order) :-0.4233698E-09  (-0.3529020E-09)
 number of electron      90.0000000 magnetization 
 augmentation part       90.0000000 magnetization 

 Free energy of the ion-electron system (eV)
  ---------------------------------------------------
  alpha Z        PSCENC =        26.78341302
  Ewald energy   TEWEN  =      1925.27048329
  -Hartree energ DENC   =     -4210.38807378
  -exchange      EXHF   =         0.00000000
  -V(xc)+E(xc)   XCENC  =      -834.30088619
  PAW double counting   =      2946.23044814    -1975.02251642
  entropy T*S    EENTRO =        -0.00000000
  eigenvalues    EBANDS =      -651.10068168
  atomic energy  EATOM  =      2699.02954745
  Solvation  Ediel_sol  =         0.00000000
  ---------------------------------------------------
  free energy    TOTEN  =       -73.49826617 eV

  energy without entropy =      -73.49826617  energy(sigma->0) =      -73.49826617


--------------------------------------------------------------------------------------------------------




--------------------------------------- Iteration      1(  11)  ---------------------------------------


     EDDAV:  cpu time     11.9336: real time     11.9567
       DOS:  cpu time      0.0013: real time      0.0013
    --------------------------------------------
      LOOP:  cpu time     11.9349: real time     11.9579

 eigenvalue-minimisations  :  1216
 total energy-change (2. order) : 0.4411049E-10  (-0.5516145E-10)
 number of electron      90.0000000 magnetization 
 augmentation part       90.0000000 magnetization 

 Free energy of the ion-electron system (eV)
  ---------------------------------------------------
  alpha Z        PSCENC =        26.78341302
  Ewald energy   TEWEN  =      1925.27048329
  -Hartree energ DENC   =     -4210.38807378
  -exchange      EXHF   =         0.00000000
  -V(xc)+E(xc)   XCENC  =      -834.30088619
  PAW double counting   =      2946.23044814    -1975.02251642
  entropy T*S    EENTRO =        -0.00000000
  eigenvalues    EBANDS =      -651.10068168
  atomic energy  EATOM  =      2699.02954745
  Solvation  Ediel_sol  =         0.00000000
  ---------------------------------------------------
  free energy    TOTEN  =       -73.49826617 eV

  energy without entropy =      -73.49826617  energy(sigma->0) =      -73.49826617


--------------------------------------------------------------------------------------------------------




--------------------------------------- Iteration      1(  12)  ---------------------------------------


     EDDAV:  cpu time     11.4801: real time     11.5031
       DOS:  cpu time      0.0010: real time      0.0010
    CHARGE:  cpu time      0.7696: real time      0.7715
    MIXING:  cpu time      0.0459: real time      0.0460
    --------------------------------------------
      LOOP:  cpu time     12.2967: real time     12.3216

 eigenvalue-minimisations  :  1072
 total energy-change (2. order) :-0.1514309E-09  ( 0.6579126E-11)
 number of electron      90.0000000 magnetization 
 augmentation part      -14.7687963 magnetization 

 Broyden mixing:
  rms(total) = 0.47740E+00    rms(broyden)= 0.47563E+00
  rms(prec ) = 0.54856E+00
  weight for this iteration     100.00

 Free energy of the ion-electron system (eV)
  ---------------------------------------------------
  alpha Z        PSCENC =        26.78341302
  Ewald energy   TEWEN  =      1925.27048329
  -Hartree energ DENC   =     -4210.38807378
  -exchange      EXHF   =         0.00000000
  -V(xc)+E(xc)   XCENC  =      -834.30088619
  PAW double counting   =      2946.23044814    -1975.02251642
  entropy T*S    EENTRO =        -0.00000000
  eigenvalues    EBANDS =      -651.10068168
  atomic energy  EATOM  =      2699.02954745
  Solvation  Ediel_sol  =         0.00000000
  ---------------------------------------------------
  free energy    TOTEN  =       -73.49826617 eV

  energy without entropy =      -73.49826617  energy(sigma->0) =      -73.49826617


--------------------------------------------------------------------------------------------------------




--------------------------------------- Iteration      1(  13)  ---------------------------------------


    POTLOK:  cpu time      0.1491: real time      0.1495
    SETDIJ:  cpu time      0.7529: real time      0.7537
     EDDAV:  cpu time     15.1305: real time     15.2110
       DOS:  cpu time      0.0019: real time      0.0019
    CHARGE:  cpu time      0.6613: real time      0.6629
    MIXING:  cpu time      0.0260: real time      0.0261
    --------------------------------------------
      LOOP:  cpu time     16.7218: real time     16.8050

 eigenvalue-minimisations  :  1504
 total energy-change (2. order) : 0.1388650E+00  (-0.2715657E-02)
 number of electron      90.0000000 magnetization 
 augmentation part      -14.7469395 magnetization 

 Broyden mixing:
  rms(total) = 0.42370E+00    rms(broyden)= 0.42363E+00
  rms(prec ) = 0.48705E+00
  weight for this iteration     100.00

 eigenvalues of (default mixing * dielectric matrix)
  average eigenvalue GAMMA=   8.9567
  8.9567

 Free energy of the ion-electron system (eV)
  ---------------------------------------------------
  alpha Z        PSCENC =        26.78341302
  Ewald energy   TEWEN  =      1925.27048329
  -Hartree energ DENC   =     -4217.22696548
  -exchange      EXHF   =         0.00000000
  -V(xc)+E(xc)   XCENC  =      -833.93332402
  PAW double counting   =      2984.80362236    -2013.75044260
  entropy T*S    EENTRO =        -0.00000000
  eigenvalues    EBANDS =      -644.33573521
  atomic energy  EATOM  =      2699.02954745
  Solvation  Ediel_sol  =         0.00000000
  ---------------------------------------------------
  free energy    TOTEN  =       -73.35940119 eV

  energy without entropy =      -73.35940119  energy(sigma->0) =      -73.35940119


--------------------------------------------------------------------------------------------------------




--------------------------------------- Iteration      1(  14)  ---------------------------------------


    POTLOK:  cpu time      0.1537: real time      0.1562
    SETDIJ:  cpu time      0.8085: real time      0.8101
     EDDAV:  cpu time     13.7063: real time     13.7309
       DOS:  cpu time      0.0018: real time      0.0018
    CHARGE:  cpu time      0.6741: real time      0.6758
    MIXING:  cpu time      0.0271: real time      0.0271
    --------------------------------------------
      LOOP:  cpu time     15.3715: real time     15.4018

 eigenvalue-minimisations  :  1392
 total energy-change (2. order) : 0.2705835E+00  (-0.1304013E+00)
 number of electron      90.0000000 magnetization 
 augmentation part      -14.5853792 magnetization 

 Broyden mixing:
  rms(total) = 0.61249E-01    rms(broyden)= 0.61243E-01
  rms(prec ) = 0.83071E-01
  weight for this iteration     100.00

 eigenvalues of (default mixing * dielectric matrix)
  average eigenvalue GAMMA=   6.8043
  3.8679  9.7407

 Free energy of the ion-electron system (eV)
  ---------------------------------------------------
  alpha Z        PSCENC =        26.78341302
  Ewald energy   TEWEN  =      1925.27048329
  -Hartree energ DENC   =     -4268.18955348
  -exchange      EXHF   =         0.00000000
  -V(xc)+E(xc)   XCENC  =      -830.81910324
  PAW double counting   =      3291.07707444    -2321.19959435
  entropy T*S    EENTRO =        -0.00000000
  eigenvalues    EBANDS =      -595.04108477
  atomic energy  EATOM  =      2699.02954745
  Solvation  Ediel_sol  =         0.00000000
  ---------------------------------------------------
  free energy    TOTEN  =       -73.08881766 eV

  energy without entropy =      -73.08881766  energy(sigma->0) =      -73.08881766


--------------------------------------------------------------------------------------------------------




--------------------------------------- Iteration      1(  15)  ---------------------------------------


    POTLOK:  cpu time      0.1662: real time      0.1665
    SETDIJ:  cpu time      0.8196: real time      0.8213
     EDDAV:  cpu time     14.2348: real time     14.2635
       DOS:  cpu time      0.0007: real time      0.0007
    CHARGE:  cpu time      0.6712: real time      0.6731
    MIXING:  cpu time      0.0245: real time      0.0246
    --------------------------------------------
      LOOP:  cpu time     15.9170: real time     15.9496

 eigenvalue-minimisations  :  1472
 total energy-change (2. order) : 0.2808703E-01  (-0.1172055E-01)
 number of electron      90.0000000 magnetization 
 augmentation part      -14.6121301 magnetization 

 Broyden mixing:
  rms(total) = 0.23261E-01    rms(broyden)= 0.23249E-01
  rms(prec ) = 0.29782E-01
  weight for this iteration     100.00

 eigenvalues of (default mixing * dielectric matrix)
  average eigenvalue GAMMA=   5.5170
  9.8861  5.7673  0.8977

 Free energy of the ion-electron system (eV)
  ---------------------------------------------------
  alpha Z        PSCENC =        26.78341302
  Ewald energy   TEWEN  =      1925.27048329
  -Hartree energ DENC   =     -4259.90577894
  -exchange      EXHF   =         0.00000000
  -V(xc)+E(xc)   XCENC  =      -830.64481864
  PAW double counting   =      3306.53058950    -2336.64613371
  entropy T*S    EENTRO =        -0.00000000
  eigenvalues    EBANDS =      -603.47803259
  atomic energy  EATOM  =      2699.02954745
  Solvation  Ediel_sol  =         0.00000000
  ---------------------------------------------------
  free energy    TOTEN  =       -73.06073062 eV

  energy without entropy =      -73.06073062  energy(sigma->0) =      -73.06073062


--------------------------------------------------------------------------------------------------------




--------------------------------------- Iteration      1(  16)  ---------------------------------------


    POTLOK:  cpu time      0.1593: real time      0.1597
    SETDIJ:  cpu time      1.0181: real time      1.0205
     EDDAV:  cpu time     16.2482: real time     16.2817
       DOS:  cpu time      0.0008: real time      0.0008
    CHARGE:  cpu time      0.6618: real time      0.6633
    MIXING:  cpu time      0.0365: real time      0.0366
    --------------------------------------------
      LOOP:  cpu time     18.1247: real time     18.1626

 eigenvalue-minimisations  :  1776
 total energy-change (2. order) : 0.1944046E-02  (-0.3127533E-02)
 number of electron      90.0000000 magnetization 
 augmentation part      -14.6306217 magnetization 

 Broyden mixing:
  rms(total) = 0.14817E-01    rms(broyden)= 0.14808E-01
  rms(prec ) = 0.18481E-01
  weight for this iteration     100.00

 eigenvalues of (default mixing * dielectric matrix)
  average eigenvalue GAMMA=   4.3812
  9.5658  5.4850  1.1499  1.3241

 Free energy of the ion-electron system (eV)
  ---------------------------------------------------
  alpha Z        PSCENC =        26.78341302
  Ewald energy   TEWEN  =      1925.27048329
  -Hartree energ DENC   =     -4255.30824800
  -exchange      EXHF   =         0.00000000
  -V(xc)+E(xc)   XCENC  =      -830.66223664
  PAW double counting   =      3303.66938037    -2333.74838094
  entropy T*S    EENTRO =        -0.00000000
  eigenvalues    EBANDS =      -608.09274512
  atomic energy  EATOM  =      2699.02954745
  Solvation  Ediel_sol  =         0.00000000
  ---------------------------------------------------
  free energy    TOTEN  =       -73.05878658 eV

  energy without entropy =      -73.05878658  energy(sigma->0) =      -73.05878658


--------------------------------------------------------------------------------------------------------




--------------------------------------- Iteration      1(  17)  ---------------------------------------


    POTLOK:  cpu time      0.1315: real time      0.1318
    SETDIJ:  cpu time      0.8022: real time      0.8034
     EDDAV:  cpu time     14.2218: real time     14.2478
       DOS:  cpu time      0.0006: real time      0.0006
    CHARGE:  cpu time      0.6580: real time      0.6593
    MIXING:  cpu time      0.0263: real time      0.0263
    --------------------------------------------
      LOOP:  cpu time     15.8403: real time     15.8693

 eigenvalue-minimisations  :  1488
 total energy-change (2. order) : 0.1003956E-02  (-0.3500857E-03)
 number of electron      90.0000000 magnetization 
 augmentation part      -14.6261338 magnetization 

 Broyden mixing:
  rms(total) = 0.12241E-01    rms(broyden)= 0.12241E-01
  rms(prec ) = 0.14114E-01
  weight for this iteration     100.00

 eigenvalues of (default mixing * dielectric matrix)
  average eigenvalue GAMMA=   5.0773
  9.9797  8.6585  4.6800  0.9789  1.0895

 Free energy of the ion-electron system (eV)
  ---------------------------------------------------
  alpha Z        PSCENC =        26.78341302
  Ewald energy   TEWEN  =      1925.27048329
  -Hartree energ DENC   =     -4256.35031739
  -exchange      EXHF   =         0.00000000
  -V(xc)+E(xc)   XCENC  =      -830.68684301
  PAW double counting   =      3300.41424661    -2330.48879730
  entropy T*S    EENTRO =        -0.00000000
  eigenvalues    EBANDS =      -607.02951528
  atomic energy  EATOM  =      2699.02954745
  Solvation  Ediel_sol  =         0.00000000
  ---------------------------------------------------
  free energy    TOTEN  =       -73.05778262 eV

  energy without entropy =      -73.05778262  energy(sigma->0) =      -73.05778262


--------------------------------------------------------------------------------------------------------




--------------------------------------- Iteration      1(  18)  ---------------------------------------


    POTLOK:  cpu time      0.1663: real time      0.1669
    SETDIJ:  cpu time      0.8211: real time      0.8228
     EDDAV:  cpu time     17.6674: real time     17.6973
       DOS:  cpu time      0.0006: real time      0.0006
    CHARGE:  cpu time      0.4388: real time      0.4398
    MIXING:  cpu time      0.0105: real time      0.0105
    --------------------------------------------
      LOOP:  cpu time     19.1046: real time     19.1378

 eigenvalue-minimisations  :  1888
 total energy-change (2. order) : 0.1339052E-03  (-0.2183438E-03)
 number of electron      90.0000000 magnetization 
 augmentation part      -14.6321061 magnetization 

 Broyden mixing:
  rms(total) = 0.20612E-02    rms(broyden)= 0.20547E-02
  rms(prec ) = 0.26813E-02
  weight for this iteration     100.00

 eigenvalues of (default mixing * dielectric matrix)
  average eigenvalue GAMMA=   4.3066
 10.0011  7.1399  5.0023  1.6545  1.0209  1.0209

 Free energy of the ion-electron system (eV)
  ---------------------------------------------------
  alpha Z        PSCENC =        26.78341302
  Ewald energy   TEWEN  =      1925.27048329
  -Hartree energ DENC   =     -4255.41188974
  -exchange      EXHF   =         0.00000000
  -V(xc)+E(xc)   XCENC  =      -830.66951727
  PAW double counting   =      3298.01352428    -2328.06955385
  entropy T*S    EENTRO =        -0.00000000
  eigenvalues    EBANDS =      -608.00365589
  atomic energy  EATOM  =      2699.02954745
  Solvation  Ediel_sol  =         0.00000000
  ---------------------------------------------------
  free energy    TOTEN  =       -73.05764871 eV

  energy without entropy =      -73.05764871  energy(sigma->0) =      -73.05764871


--------------------------------------------------------------------------------------------------------




--------------------------------------- Iteration      1(  19)  ---------------------------------------


    POTLOK:  cpu time      0.0799: real time      0.0801
    SETDIJ:  cpu time      0.7352: real time      0.7362
     EDDAV:  cpu time     16.4543: real time     16.4849
       DOS:  cpu time      0.0008: real time      0.0008
    CHARGE:  cpu time      0.6424: real time      0.6438
    MIXING:  cpu time      0.0391: real time      0.0391
    --------------------------------------------
      LOOP:  cpu time     17.9517: real time     17.9850

 eigenvalue-minimisations  :  1712
 total energy-change (2. order) : 0.1484222E-04  (-0.2023421E-04)
 number of electron      90.0000000 magnetization 
 augmentation part      -14.6302737 magnetization 

 Broyden mixing:
  rms(total) = 0.16923E-02    rms(broyden)= 0.16920E-02
  rms(prec ) = 0.18833E-02
  weight for this iteration     100.00

 eigenvalues of (default mixing * dielectric matrix)
  average eigenvalue GAMMA=   4.9312
  9.9062  9.2996  7.5588  4.6949  1.0931  1.0249  0.9411

 Free energy of the ion-electron system (eV)
  ---------------------------------------------------
  alpha Z        PSCENC =        26.78341302
  Ewald energy   TEWEN  =      1925.27048329
  -Hartree energ DENC   =     -4255.89680194
  -exchange      EXHF   =         0.00000000
  -V(xc)+E(xc)   XCENC  =      -830.65760239
  PAW double counting   =      3299.65735230    -2329.72238832
  entropy T*S    EENTRO =        -0.00000000
  eigenvalues    EBANDS =      -607.52163728
  atomic energy  EATOM  =      2699.02954745
  Solvation  Ediel_sol  =         0.00000000
  ---------------------------------------------------
  free energy    TOTEN  =       -73.05763387 eV

  energy without entropy =      -73.05763387  energy(sigma->0) =      -73.05763387


--------------------------------------------------------------------------------------------------------




--------------------------------------- Iteration      1(  20)  ---------------------------------------


    POTLOK:  cpu time      0.1561: real time      0.1566
    SETDIJ:  cpu time      0.8263: real time      0.8278
     EDDAV:  cpu time     15.7891: real time     15.8184
       DOS:  cpu time      0.0012: real time      0.0012
    CHARGE:  cpu time      0.6630: real time      0.6646
    MIXING:  cpu time      0.0316: real time      0.0317
    --------------------------------------------
      LOOP:  cpu time     17.4672: real time     17.5002

 eigenvalue-minimisations  :  1632
 total energy-change (2. order) :-0.8928376E-05  (-0.2164733E-05)
 number of electron      90.0000000 magnetization 
 augmentation part      -14.6301772 magnetization 

 Broyden mixing:
  rms(total) = 0.45100E-03    rms(broyden)= 0.45051E-03
  rms(prec ) = 0.64838E-03
  weight for this iteration     100.00

 eigenvalues of (default mixing * dielectric matrix)
  average eigenvalue GAMMA=   4.5430
 10.5124  9.3074  7.6079  4.7967  1.1217  0.9931  0.9931  1.0115

 Free energy of the ion-electron system (eV)
  ---------------------------------------------------
  alpha Z        PSCENC =        26.78341302
  Ewald energy   TEWEN  =      1925.27048329
  -Hartree energ DENC   =     -4255.82084830
  -exchange      EXHF   =         0.00000000
  -V(xc)+E(xc)   XCENC  =      -830.66264354
  PAW double counting   =      3298.88648849    -2328.95342074
  entropy T*S    EENTRO =        -0.00000000
  eigenvalues    EBANDS =      -607.59066246
  atomic energy  EATOM  =      2699.02954745
  Solvation  Ediel_sol  =         0.00000000
  ---------------------------------------------------
  free energy    TOTEN  =       -73.05764280 eV

  energy without entropy =      -73.05764280  energy(sigma->0) =      -73.05764280


--------------------------------------------------------------------------------------------------------




--------------------------------------- Iteration      1(  21)  ---------------------------------------


    POTLOK:  cpu time      0.1492: real time      0.1496
    SETDIJ:  cpu time      0.8556: real time      0.8571
     EDDAV:  cpu time     15.6928: real time     15.7209
       DOS:  cpu time      0.0006: real time      0.0006
    CHARGE:  cpu time      0.6204: real time      0.6213
    MIXING:  cpu time      0.0317: real time      0.0318
    --------------------------------------------
      LOOP:  cpu time     17.3504: real time     17.3814

 eigenvalue-minimisations  :  1552
 total energy-change (2. order) : 0.2259960E-05  (-0.7975692E-06)
 number of electron      90.0000000 magnetization 
 augmentation part      -14.6303956 magnetization 

 Broyden mixing:
  rms(total) = 0.15233E-03    rms(broyden)= 0.15157E-03
  rms(prec ) = 0.18132E-03
  weight for this iteration     100.00

 eigenvalues of (default mixing * dielectric matrix)
  average eigenvalue GAMMA=   4.3561
 10.3017  8.2117  8.2117  4.9012  3.5369  1.1035  1.0014  1.0014  0.9352

 Free energy of the ion-electron system (eV)
  ---------------------------------------------------
  alpha Z        PSCENC =        26.78341302
  Ewald energy   TEWEN  =      1925.27048329
  -Hartree energ DENC   =     -4255.73831013
  -exchange      EXHF   =         0.00000000
  -V(xc)+E(xc)   XCENC  =      -830.66251678
  PAW double counting   =      3298.88879353    -2328.95588393
  entropy T*S    EENTRO =        -0.00000000
  eigenvalues    EBANDS =      -607.67316698
  atomic energy  EATOM  =      2699.02954745
  Solvation  Ediel_sol  =         0.00000000
  ---------------------------------------------------
  free energy    TOTEN  =       -73.05764054 eV

  energy without entropy =      -73.05764054  energy(sigma->0) =      -73.05764054


--------------------------------------------------------------------------------------------------------




--------------------------------------- Iteration      1(  22)  ---------------------------------------


    POTLOK:  cpu time      0.1797: real time      0.1802
    SETDIJ:  cpu time      0.6410: real time      0.6417
     EDDAV:  cpu time     21.9537: real time     21.9990
       DOS:  cpu time      0.0013: real time      0.0013
    CHARGE:  cpu time      0.9009: real time      0.9035
    MIXING:  cpu time      0.0400: real time      0.0401
    --------------------------------------------
      LOOP:  cpu time     23.7166: real time     23.7656

 eigenvalue-minimisations  :  1968
 total energy-change (2. order) :-0.5000388E-06  (-0.1739894E-06)
 number of electron      90.0000000 magnetization 
 augmentation part      -14.6304768 magnetization 

 Broyden mixing:
  rms(total) = 0.13544E-03    rms(broyden)= 0.13456E-03
  rms(prec ) = 0.15988E-03
  weight for this iteration     100.00

 eigenvalues of (default mixing * dielectric matrix)
  average eigenvalue GAMMA=   4.8525
 12.0948 10.0717  8.6293  7.6177  4.8290  0.9449  1.0033  1.0454  1.0454  1.2435

 Free energy of the ion-electron system (eV)
  ---------------------------------------------------
  alpha Z        PSCENC =        26.78341302
  Ewald energy   TEWEN  =      1925.27048329
  -Hartree energ DENC   =     -4255.71879566
  -exchange      EXHF   =         0.00000000
  -V(xc)+E(xc)   XCENC  =      -830.66233217
  PAW double counting   =      3298.88401109    -2328.95060029
  entropy T*S    EENTRO =        -0.00000000
  eigenvalues    EBANDS =      -607.69336776
  atomic energy  EATOM  =      2699.02954745
  Solvation  Ediel_sol  =         0.00000000
  ---------------------------------------------------
  free energy    TOTEN  =       -73.05764104 eV

  energy without entropy =      -73.05764104  energy(sigma->0) =      -73.05764104


--------------------------------------------------------------------------------------------------------




--------------------------------------- Iteration      1(  23)  ---------------------------------------


    POTLOK:  cpu time      0.2161: real time      0.2169
    SETDIJ:  cpu time      0.8938: real time      0.8956
     EDDAV:  cpu time     20.8804: real time     20.9190
       DOS:  cpu time      0.0007: real time      0.0007
    CHARGE:  cpu time      0.5349: real time      0.5353
    MIXING:  cpu time      0.0410: real time      0.0410
    --------------------------------------------
      LOOP:  cpu time     22.5669: real time     22.6085

 eigenvalue-minimisations  :  1504
 total energy-change (2. order) : 0.1048474E-05  (-0.5079599E-07)
 number of electron      90.0000000 magnetization 
 augmentation part      -14.6304590 magnetization 

 Broyden mixing:
  rms(total) = 0.34931E-04    rms(broyden)= 0.31512E-04
  rms(prec ) = 0.37378E-04
  weight for this iteration     100.00

 eigenvalues of (default mixing * dielectric matrix)
  average eigenvalue GAMMA=   4.4149
 10.8952 10.0962  8.6671  7.5090  4.8184  1.5016  1.0951  0.9479  1.0174  1.0174
  0.9990

 Free energy of the ion-electron system (eV)
  ---------------------------------------------------
  alpha Z        PSCENC =        26.78341302
  Ewald energy   TEWEN  =      1925.27048329
  -Hartree energ DENC   =     -4255.72527373
  -exchange      EXHF   =         0.00000000
  -V(xc)+E(xc)   XCENC  =      -830.66205313
  PAW double counting   =      3298.76165460    -2328.82762261
  entropy T*S    EENTRO =        -0.00000000
  eigenvalues    EBANDS =      -607.68778888
  atomic energy  EATOM  =      2699.02954745
  Solvation  Ediel_sol  =         0.00000000
  ---------------------------------------------------
  free energy    TOTEN  =       -73.05763999 eV

  energy without entropy =      -73.05763999  energy(sigma->0) =      -73.05763999


--------------------------------------------------------------------------------------------------------




--------------------------------------- Iteration      1(  24)  ---------------------------------------


    POTLOK:  cpu time      0.1331: real time      0.1332
    SETDIJ:  cpu time      0.6566: real time      0.6569
     EDDAV:  cpu time     10.4855: real time     10.4926
       DOS:  cpu time      0.0008: real time      0.0008
    --------------------------------------------
      LOOP:  cpu time     11.2759: real time     11.2834

 eigenvalue-minimisations  :   992
 total energy-change (2. order) :-0.1600529E-07  (-0.2872495E-08)
 number of electron      90.0000000 magnetization 
 augmentation part      -14.6304590 magnetization 

 Free energy of the ion-electron system (eV)
  ---------------------------------------------------
  alpha Z        PSCENC =        26.78341302
  Ewald energy   TEWEN  =      1925.27048329
  -Hartree energ DENC   =     -4255.72237951
  -exchange      EXHF   =         0.00000000
  -V(xc)+E(xc)   XCENC  =      -830.66219058
  PAW double counting   =      3298.76674547    -2328.83277670
  entropy T*S    EENTRO =        -0.00000000
  eigenvalues    EBANDS =      -607.69048245
  atomic energy  EATOM  =      2699.02954745
  Solvation  Ediel_sol  =         0.00000000
  ---------------------------------------------------
  free energy    TOTEN  =       -73.05764001 eV

  energy without entropy =      -73.05764001  energy(sigma->0) =      -73.05764001


--------------------------------------------------------------------------------------------------------




 average (electrostatic) potential at core
  the test charge radii are     1.1712
  (the norm of the test charge is              1.0000)
       1 -80.9056       2 -80.9056       3 -80.9056       4 -80.9056       5 -80.9056
       6 -80.9056       7 -80.9056       8 -80.9056       9 -80.9056      10 -80.9056
      11 -80.9056      12 -80.9056      13 -80.9056      14 -80.9056      15 -80.9056
      16 -80.9056      17 -80.9056      18 -80.9056
 
 
 
 E-fermi :  -2.2394     XC(G=0):  -3.3492     alpha+bet : -2.6626

 Fermi energy:        -2.2394075332

 k-point     1 :       0.0000    0.0000    0.0000
  band No.  band energies     occupation 
      1     -13.5646      2.00000
      2     -12.4477      2.00000
      3     -12.4477      2.00000
      4     -12.4477      2.00000
      5     -12.4477      2.00000
      6     -12.4477      2.00000
      7     -12.4477      2.00000
      8     -10.7619      2.00000
      9     -10.7619      2.00000
     10     -10.7619      2.00000
     11     -10.7619      2.00000
     12      -9.1795      2.00000
     13      -9.1795      2.00000
     14      -9.1795      2.00000
     15      -9.1795      2.00000
     16      -9.1795      2.00000
     17      -9.1795      2.00000
     18      -8.5918      2.00000
     19      -5.8036      2.00000
     20      -5.8036      2.00000
     21      -5.2923      2.00000
     22      -5.2923      2.00000
     23      -5.2923      2.00000
     24      -5.2923      2.00000
     25      -5.2923      2.00000
     26      -5.2923      2.00000
     27      -4.0750      2.00000
     28      -4.0750      2.00000
     29      -4.0750      2.00000
     30      -4.0750      2.00000
     31      -3.5575      2.00000
     32      -3.5575      2.00000
     33      -3.5575      2.00000
     34      -3.5575      2.00000
     35      -3.5575      2.00000
     36      -3.5575      2.00000
     37      -3.1121      2.00000
     38      -3.1121      2.00000
     39      -3.1121      2.00000
     40      -3.1121      2.00000
     41      -3.1121      2.00000
     42      -3.1121      2.00000
     43      -2.8908      2.00000
     44      -2.2837      2.00000
     45      -2.2837      2.00000
     46      -1.0137      0.00000
     47      -1.0137      0.00000
     48      -1.0137      0.00000
     49      -1.0137      0.00000
     50      -1.0137      0.00000
     51      -1.0137      0.00000
     52      -0.7893      0.00000
     53      -0.7893      0.00000
     54      -0.7169      0.00000
     55       0.5065      0.00000
     56       0.5065      0.00000
     57       0.7792      0.00000
     58       0.7792      0.00000
     59       0.7792      0.00000
     60       0.7792      0.00000
     61       0.7792      0.00000
     62       0.7792      0.00000
     63       1.2856      0.00000
     64       1.2874      0.00000

 k-point     2 :       0.2500   -0.0000    0.0000
  band No.  band energies     occupation 
      1     -13.4907      2.00000
      2     -12.9165      2.00000
      3     -12.6414      2.00000
      4     -12.6414      2.00000
      5     -12.1365      2.00000
      6     -12.1365      2.00000
      7     -11.9356      2.00000
      8     -11.2554      2.00000
      9     -11.2554      2.00000
     10     -10.2900      2.00000
     11     -10.2900      2.00000
     12      -9.7406      2.00000
     13      -9.4862      2.00000
     14      -9.4862      2.00000
     15      -8.9768      2.00000
     16      -8.9768      2.00000
     17      -8.7749      2.00000
     18      -8.5889      2.00000
     19      -5.6348      2.00000
     20      -5.6348      2.00000
     21      -5.3012      2.00000
     22      -5.2885      2.00000
     23      -5.2885      2.00000
     24      -5.1149      2.00000
     25      -5.1149      2.00000
     26      -4.9040      2.00000
     27      -4.4300      2.00000
     28      -4.4300      2.00000
     29      -4.0748      2.00000
     30      -4.0748      2.00000
     31      -3.8156      2.00000
     32      -3.8156      2.00000
     33      -3.7656      2.00000
     34      -3.7337      2.00000
     35      -3.7337      2.00000
     36      -3.5320      2.00000
     37      -3.2437      2.00000
     38      -3.2437      2.00000
     39      -3.2316      2.00000
     40      -3.0109      2.00000
     41      -2.8815      2.00000
     42      -2.8815      2.00000
     43      -2.8584      2.00000
     44      -2.8254      2.00000
     45      -2.4536      2.00000
     46      -0.9374      0.00000
     47      -0.8162      0.00000
     48      -0.6636      0.00000
     49      -0.6636      0.00000
     50      -0.6053      0.00000
     51      -0.6053      0.00000
     52      -0.5920      0.00000
     53      -0.5920      0.00000
     54      -0.2167      0.00000
     55       0.3554      0.00000
     56       0.4127      0.00000
     57       0.6362      0.00000
     58       0.6362      0.00000
     59       0.6705      0.00000
     60       0.9192      0.00000
     61       0.9196      0.00000
     62       0.9538      0.00000
     63       0.9569      0.00000
     64       1.0697      0.00000

 k-point     3 :       0.5000   -0.0000    0.0000
  band No.  band energies     occupation 
      1     -13.2718      2.00000
      2     -13.2718      2.00000
      3     -12.7072      2.00000
      4     -12.7072      2.00000
      5     -11.7282      2.00000
      6     -11.7282      2.00000
      7     -11.7282      2.00000
      8     -11.7282      2.00000
      9     -11.6471      2.00000
     10     -10.0647      2.00000
     11      -9.8623      2.00000
     12      -9.8623      2.00000
     13      -9.8623      2.00000
     14      -9.8623      2.00000
     15      -8.9064      2.00000
     16      -8.9064      2.00000
     17      -8.6147      2.00000
     18      -8.6147      2.00000
     19      -5.3032      2.00000
     20      -5.3032      2.00000
     21      -5.3032      2.00000
     22      -5.3032      2.00000
     23      -5.2281      2.00000
     24      -4.9179      2.00000
     25      -4.9179      2.00000
     26      -4.5721      2.00000
     27      -4.5721      2.00000
     28      -4.5721      2.00000
     29      -4.5721      2.00000
     30      -4.1306      2.00000
     31      -4.1306      2.00000
     32      -4.0787      2.00000
     33      -4.0787      2.00000
     34      -3.8368      2.00000
     35      -3.7471      2.00000
     36      -3.4517      2.00000
     37      -3.4517      2.00000
     38      -3.4517      2.00000
     39      -3.4517      2.00000
     40      -2.8312      2.00000
     41      -2.8312      2.00000
     42      -2.8054      2.00000
     43      -2.8054      2.00000
     44      -2.7945      2.00000
     45      -2.7945      2.00000
     46      -0.6622      0.00000
     47      -0.5117      0.00000
     48      -0.5117      0.00000
     49      -0.2142      0.00000
     50      -0.2142      0.00000
     51      -0.2142      0.00000
     52      -0.2142      0.00000
     53      -0.1057      0.00000
     54      -0.1057      0.00000
     55       0.1512      0.00000
     56       0.4470      0.00000
     57       0.4470      0.00000
     58       0.4875      0.00000
     59       0.4875      0.00000
     60       0.4875      0.00000
     61       0.4875      0.00000
     62       0.9883      0.00000
     63       0.9931      0.00000
     64       0.9960      0.00000

 k-point     4 :       0.2500    0.2500    0.0000
  band No.  band energies     occupation 
      1     -13.3443      2.00000
      2     -13.0566      2.00000
      3     -13.0566      2.00000
      4     -12.2442      2.00000
      5     -12.2442      2.00000
      6     -11.7523      2.00000
      7     -11.6757      2.00000
      8     -11.6757      2.00000
      9     -11.4194      2.00000
     10     -10.1911      2.00000
     11      -9.9971      2.00000
     12      -9.9971      2.00000
     13      -9.7946      2.00000
     14      -9.3225      2.00000
     15      -9.3225      2.00000
     16      -8.6901      2.00000
     17      -8.6901      2.00000
     18      -8.5999      2.00000
     19      -5.3996      2.00000
     20      -5.3112      2.00000
     21      -5.2593      2.00000
     22      -5.2593      2.00000
     23      -5.0974      2.00000
     24      -5.0974      2.00000
     25      -4.7850      2.00000
     26      -4.6162      2.00000
     27      -4.6162      2.00000
     28      -4.5704      2.00000
     29      -4.5704      2.00000
     30      -4.3780      2.00000
     31      -4.1088      2.00000
     32      -4.1088      2.00000
     33      -3.7592      2.00000
     34      -3.7483      2.00000
     35      -3.6541      2.00000
     36      -3.6541      2.00000
     37      -3.3777      2.00000
     38      -3.3777      2.00000
     39      -3.3456      2.00000
     40      -3.0399      2.00000
     41      -3.0399      2.00000
     42      -2.8587      2.00000
     43      -2.7826      2.00000
     44      -2.7604      2.00000
     45      -2.7604      2.00000
     46      -0.3751      0.00000
     47      -0.3751      0.00000
     48      -0.3263      0.00000
     49      -0.3263      0.00000
     50      -0.2856      0.00000
     51      -0.2470      0.00000
     52      -0.1397      0.00000
     53      -0.1397      0.00000
     54       0.0850      0.00000
     55       0.1862      0.00000
     56       0.1862      0.00000
     57       0.2007      0.00000
     58       0.3889      0.00000
     59       0.3889      0.00000
     60       0.4573      0.00000
     61       0.6368      0.00000
     62       0.6842      0.00000
     63       0.6842      0.00000
     64       0.9775      0.00000

 k-point     5 :       0.0000    0.0000    0.3333
  band No.  band energies     occupation 
      1     -13.5646      2.00000
      2     -12.4476      2.00000
      3     -12.4476      2.00000
      4     -12.4476      2.00000
      5     -12.4476      2.00000
      6     -12.4476      2.00000
      7     -12.4476      2.00000
      8     -10.7619      2.00000
      9     -10.7619      2.00000
     10     -10.7619      2.00000
     11     -10.7619      2.00000
     12      -9.1795      2.00000
     13      -9.1795      2.00000
     14      -9.1795      2.00000
     15      -9.1795      2.00000
     16      -9.1795      2.00000
     17      -9.1795      2.00000
     18      -8.5918      2.00000
     19      -5.8036      2.00000
     20      -5.8036      2.00000
     21      -5.2923      2.00000
     22      -5.2923      2.00000
     23      -5.2923      2.00000
     24      -5.2923      2.00000
     25      -5.2923      2.00000
     26      -5.2923      2.00000
     27      -4.0751      2.00000
     28      -4.0751      2.00000
     29      -4.0751      2.00000
     30      -4.0751      2.00000
     31      -3.5575      2.00000
     32      -3.5575      2.00000
     33      -3.5575      2.00000
     34      -3.5575      2.00000
     35      -3.5575      2.00000
     36      -3.5575      2.00000
     37      -3.1121      2.00000
     38      -3.1121      2.00000
     39      -3.1121      2.00000
     40      -3.1121      2.00000
     41      -3.1121      2.00000
     42      -3.1121      2.00000
     43      -2.8908      2.00000
     44      -2.2837      2.00000
     45      -2.2837      2.00000
     46      -1.0137      0.00000
     47      -1.0137      0.00000
     48      -1.0137      0.00000
     49      -1.0137      0.00000
     50      -1.0137      0.00000
     51      -1.0137      0.00000
     52      -0.7893      0.00000
     53      -0.7893      0.00000
     54      -0.7171      0.00000
     55       0.5065      0.00000
     56       0.5065      0.00000
     57       0.7792      0.00000
     58       0.7792      0.00000
     59       0.7792      0.00000
     60       0.7793      0.00000
     61       0.7793      0.00000
     62       0.7793      0.00000
     63       1.2854      0.00000
     64       1.2865      0.00000

 k-point     6 :       0.2500   -0.0000    0.3333
  band No.  band energies     occupation 
      1     -13.4908      2.00000
      2     -12.9165      2.00000
      3     -12.6414      2.00000
      4     -12.6414      2.00000
      5     -12.1365      2.00000
      6     -12.1365      2.00000
      7     -11.9356      2.00000
      8     -11.2554      2.00000
      9     -11.2554      2.00000
     10     -10.2900      2.00000
     11     -10.2900      2.00000
     12      -9.7406      2.00000
     13      -9.4862      2.00000
     14      -9.4862      2.00000
     15      -8.9768      2.00000
     16      -8.9768      2.00000
     17      -8.7749      2.00000
     18      -8.5890      2.00000
     19      -5.6347      2.00000
     20      -5.6347      2.00000
     21      -5.3012      2.00000
     22      -5.2886      2.00000
     23      -5.2886      2.00000
     24      -5.1149      2.00000
     25      -5.1149      2.00000
     26      -4.9040      2.00000
     27      -4.4301      2.00000
     28      -4.4301      2.00000
[...]
      2.056683  5.937133  8.821994    -0.020386   -0.155604    0.000000  
      6.170050  5.937133  8.821994     0.027519    0.398682   -0.000000  
     -4.113367  9.499413  8.821994     0.170720    0.128153    0.000000  
      0.000000  9.499413  8.821994    -0.063744   -0.208205   -0.000000  
      4.113367  9.499413  8.821994    -0.169431    0.080052   -0.000000  
 
  44 f  =    1.089739 THz     6.847033 2PiTHz   36.349786 cm-1     4.506797 meV
             X         Y         Z           dx          dy          dz
      2.056683  1.187427  7.178006     0.016947    0.320074    0.000000  
      6.170050  1.187427  7.178006    -0.094563   -0.015235   -0.000000  
     10.283416  1.187427  7.178006     0.093757   -0.304838   -0.000000  
      0.000000  4.749707  7.178006    -0.146418    0.074137   -0.000000  
      4.113367  4.749707  7.178006     0.036614    0.248989   -0.000000  
      8.226733  4.749707  7.178006     0.061825   -0.323126    0.000000  
     -2.056683  8.311986  7.178006    -0.130370    0.055849   -0.000000  
      2.056683  8.311986  7.178006    -0.078771    0.003053   -0.000000  
      6.170050  8.311986  7.178006     0.240981   -0.058902    0.000000  
      0.000000  2.374853  8.821994    -0.115349    0.072660   -0.000000  
      4.113367  2.374853  8.821994     0.049886    0.259919    0.000000  
      8.226733  2.374853  8.821994     0.079081   -0.332579   -0.000000  
     -2.056683  5.937133  8.821994    -0.155462    0.038422    0.000000  
      2.056683  5.937133  8.821994    -0.107134    0.023192   -0.000000  
      6.170050  5.937133  8.821994     0.215178   -0.061614    0.000000  
     -4.113367  9.499413  8.821994     0.028053    0.309387    0.000000  
      0.000000  9.499413  8.821994    -0.099828   -0.011046   -0.000000  
      4.113367  9.499413  8.821994     0.105576   -0.298341    0.000000  
 
  45 f  =    1.089739 THz     6.847033 2PiTHz   36.349786 cm-1     4.506797 meV
             X         Y         Z           dx          dy          dz
      2.056683  1.187427  7.178006     0.164090   -0.221468   -0.000000  
      6.170050  1.187427  7.178006    -0.128635    0.239835    0.000000  
     10.283416  1.187427  7.178006     0.089796   -0.018367   -0.000000  
      0.000000  4.749707  7.178006     0.113781   -0.184258    0.000000  
      4.113367  4.749707  7.178006    -0.187231    0.262691   -0.000000  
      8.226733  4.749707  7.178006    -0.016676   -0.078433   -0.000000  
     -2.056683  8.311986  7.178006     0.097435   -0.244324   -0.000000  
      2.056683  8.311986  7.178006    -0.147415    0.299901    0.000000  
      6.170050  8.311986  7.178006     0.014854   -0.055577   -0.000000  
      0.000000  2.374853  8.821994     0.190894   -0.193238    0.000000  
      4.113367  2.374853  8.821994    -0.113930    0.255228    0.000000  
      8.226733  2.374853  8.821994     0.046380   -0.061989    0.000000  
     -2.056683  5.937133  8.821994     0.083739   -0.252767   -0.000000  
      2.056683  5.937133  8.821994    -0.163766    0.294980   -0.000000  
      6.170050  5.937133  8.821994    -0.014989   -0.042213   -0.000000  
     -4.113367  9.499413  8.821994     0.117385   -0.232991   -0.000000  
      0.000000  9.499413  8.821994    -0.175905    0.235452    0.000000  
      4.113367  9.499413  8.821994     0.030191   -0.002461    0.000000  
 
  46 f  =    0.726864 THz     4.567023 2PiTHz   24.245584 cm-1     3.006068 meV
             X         Y         Z           dx          dy          dz
      2.056683  1.187427  7.178006    -0.058792   -0.046147   -0.094670  
      6.170050  1.187427  7.178006     0.017033    0.074307   -0.387379  
     10.283416  1.187427  7.178006     0.041759   -0.001297   -0.081693  
      0.000000  4.749707  7.178006    -0.047357    0.023113    0.079760  
      4.113367  4.749707  7.178006     0.083436    0.111831    0.114363  
      8.226733  4.749707  7.178006    -0.036079    0.119505    0.282949  
     -2.056683  8.311986  7.178006    -0.125196   -0.110534   -0.032670  
      2.056683  8.311986  7.178006     0.094871   -0.073358   -0.188279  
      6.170050  8.311986  7.178006     0.030325   -0.097420    0.307619  
      0.000000  2.374853  8.821994     0.009286   -0.040957   -0.009897  
      4.113367  2.374853  8.821994     0.061330   -0.105655   -0.200983  
      8.226733  2.374853  8.821994    -0.070617   -0.152723   -0.112928  
     -2.056683  5.937133  8.821994     0.066127    0.052089    0.203579  
      2.056683  5.937133  8.821994    -0.020722    0.067581    0.016071  
      6.170050  5.937133  8.821994    -0.045405   -0.041416    0.387022  
     -4.113367  9.499413  8.821994     0.091338    0.085142    0.096857  
      0.000000  9.499413  8.821994     0.036119    0.082373   -0.377125  
      4.113367  9.499413  8.821994    -0.127457    0.053566   -0.002596  
 
  47 f  =    0.726864 THz     4.567023 2PiTHz   24.245584 cm-1     3.006068 meV
             X         Y         Z           dx          dy          dz
      2.056683  1.187427  7.178006     0.086541   -0.046438   -0.418383  
      6.170050  1.187427  7.178006     0.065807   -0.063667    0.171417  
     10.283416  1.187427  7.178006    -0.152348   -0.022420   -0.199239  
      0.000000  4.749707  7.178006    -0.053704    0.158043   -0.139796  
      4.113367  4.749707  7.178006     0.061253    0.062473   -0.003324  
      8.226733  4.749707  7.178006    -0.007549    0.017491    0.248640  
     -2.056683  8.311986  7.178006     0.091095   -0.040052    0.202563  
      2.056683  8.311986  7.178006    -0.078991    0.028947    0.169743  
      6.170050  8.311986  7.178006    -0.012104   -0.094375   -0.031621  
      0.000000  2.374853  8.821994     0.060859   -0.052489   -0.446373  
      4.113367  2.374853  8.821994    -0.153083   -0.026308   -0.130792  
      8.226733  2.374853  8.821994     0.092223   -0.061001    0.136308  
     -2.056683  5.937133  8.821994     0.083913   -0.051688    0.185378  
      2.056683  5.937133  8.821994    -0.023438   -0.087047   -0.000963  
      6.170050  5.937133  8.821994    -0.060475    0.041270    0.167860  
     -4.113367  9.499413  8.821994    -0.068785    0.148048   -0.135345  
      0.000000  9.499413  8.821994    -0.000385    0.011219    0.278512  
      4.113367  9.499413  8.821994     0.069170    0.077996   -0.054586  
 
  48 f  =    0.726864 THz     4.567023 2PiTHz   24.245584 cm-1     3.006068 meV
             X         Y         Z           dx          dy          dz
      2.056683  1.187427  7.178006    -0.069732   -0.062546   -0.152596  
      6.170050  1.187427  7.178006     0.084516   -0.057112   -0.103408  
     10.283416  1.187427  7.178006    -0.014784   -0.156019    0.269616  
      0.000000  4.749707  7.178006     0.038692   -0.013477   -0.206854  
      4.113367  4.749707  7.178006     0.012098    0.096366   -0.141104  
      8.226733  4.749707  7.178006    -0.050790   -0.023564   -0.150146  
     -2.056683  8.311986  7.178006     0.002686    0.059652   -0.128512  
      2.056683  8.311986  7.178006     0.120522    0.086109    0.302742  
      6.170050  8.311986  7.178006    -0.123208    0.070589    0.310262  
      0.000000  2.374853  8.821994     0.098968    0.091534   -0.053382  
      4.113367  2.374853  8.821994    -0.013666    0.005693   -0.275503  
      8.226733  2.374853  8.821994    -0.085303    0.083702    0.006642  
     -2.056683  5.937133  8.821994     0.013616   -0.015151   -0.234377  
      2.056683  5.937133  8.821994    -0.031689   -0.139864   -0.025509  
      6.170050  5.937133  8.821994     0.018074   -0.131945    0.016492  
     -4.113367  9.499413  8.821994     0.116992    0.056163    0.018867  
      0.000000  9.499413  8.821994    -0.117042    0.040412    0.036890  
      4.113367  9.499413  8.821994     0.000050    0.009458    0.509880  
 
  49 f  =    0.726864 THz     4.567023 2PiTHz   24.245584 cm-1     3.006068 meV
             X         Y         Z           dx          dy          dz
      2.056683  1.187427  7.178006    -0.039920   -0.135168    0.131336  
      6.170050  1.187427  7.178006     0.030531   -0.056455    0.007064  
     10.283416  1.187427  7.178006     0.009389    0.016859    0.073488  
      0.000000  4.749707  7.178006    -0.146925   -0.033947   -0.114817  
      4.113367  4.749707  7.178006     0.063473   -0.036032   -0.424846  
      8.226733  4.749707  7.178006     0.083452    0.013540    0.069016  
     -2.056683  8.311986  7.178006    -0.072862    0.019173    0.351359  
      2.056683  8.311986  7.178006    -0.043532    0.121628   -0.200352  
      6.170050  8.311986  7.178006     0.116394    0.090402    0.107753  
      0.000000  2.374853  8.821994     0.004656    0.071193    0.037589  
      4.113367  2.374853  8.821994     0.022430    0.150154   -0.153214  
      8.226733  2.374853  8.821994    -0.027087   -0.004838    0.039713  
     -2.056683  5.937133  8.821994     0.054630   -0.096527    0.184732  
      2.056683  5.937133  8.821994     0.081926   -0.023063   -0.409627  
      6.170050  5.937133  8.821994    -0.136556   -0.080504   -0.140087  
     -4.113367  9.499413  8.821994    -0.054839    0.027902    0.369914  
      0.000000  9.499413  8.821994     0.131899    0.009311    0.102499  
      4.113367  9.499413  8.821994    -0.077061   -0.053627   -0.031518  
 
  50 f  =    0.726864 THz     4.567023 2PiTHz   24.245584 cm-1     3.006068 meV
             X         Y         Z           dx          dy          dz
      2.056683  1.187427  7.178006    -0.106138    0.088972   -0.185698  
      6.170050  1.187427  7.178006     0.147473    0.055508    0.006924  
     10.283416  1.187427  7.178006    -0.041335    0.094528    0.360054  
      0.000000  4.749707  7.178006    -0.078548   -0.053551    0.221172  
      4.113367  4.749707  7.178006    -0.008313    0.018857   -0.185969  
      8.226733  4.749707  7.178006     0.086862   -0.106080    0.249530  
     -2.056683  8.311986  7.178006     0.049648   -0.113386   -0.174085  
      2.056683  8.311986  7.178006     0.019276    0.017108   -0.063832  
      6.170050  8.311986  7.178006    -0.068924   -0.001957   -0.228096  
      0.000000  2.374853  8.821994     0.144463   -0.047487    0.229423  
      4.113367  2.374853  8.821994    -0.046353    0.008747   -0.201511  
      8.226733  2.374853  8.821994    -0.098110   -0.021413    0.373414  
     -2.056683  5.937133  8.821994     0.000596    0.132801    0.185343  
      2.056683  5.937133  8.821994     0.097755    0.022773   -0.058235  
      6.170050  5.937133  8.821994    -0.098351    0.075953   -0.116220  
     -4.113367  9.499413  8.821994     0.000355   -0.001360   -0.315179  
      0.000000  9.499413  8.821994    -0.046112   -0.028466   -0.113203  
      4.113367  9.499413  8.821994     0.045757   -0.141549    0.016168  
 
  51 f  =    0.726864 THz     4.567023 2PiTHz   24.245584 cm-1     3.006068 meV
             X         Y         Z           dx          dy          dz
      2.056683  1.187427  7.178006     0.076709    0.012927    0.072140  
      6.170050  1.187427  7.178006     0.010369    0.124284    0.272016  
     10.283416  1.187427  7.178006    -0.087078    0.022038    0.100638  
      0.000000  4.749707  7.178006    -0.013075   -0.069557   -0.365290  
      4.113367  4.749707  7.178006     0.139978   -0.084867    0.127085  
      8.226733  4.749707  7.178006    -0.126902   -0.089291    0.181040  
     -2.056683  8.311986  7.178006    -0.052899    0.062828   -0.227722  
      2.056683  8.311986  7.178006     0.050193    0.076364   -0.253180  
      6.170050  8.311986  7.178006     0.002706   -0.054727    0.093274  
      0.000000  2.374853  8.821994     0.008698    0.120072   -0.089365  
      4.113367  2.374853  8.821994    -0.067213    0.006429    0.258352  
      8.226733  2.374853  8.821994     0.058515   -0.004289    0.303048  
     -2.056683  5.937133  8.821994     0.141306    0.044537   -0.254970  
      2.056683  5.937133  8.821994    -0.127675    0.042363   -0.303537  
      6.170050  5.937133  8.821994    -0.013631    0.038391    0.229920  
     -4.113367  9.499413  8.821994     0.069160   -0.038074    0.000489  
      0.000000  9.499413  8.821994     0.004934   -0.158463   -0.140555  
      4.113367  9.499413  8.821994    -0.074093   -0.050966   -0.003383  
 
  52 f  =    0.000000 THz     0.000001 2PiTHz    0.000004 cm-1     0.000000 meV
             X         Y         Z           dx          dy          dz
      2.056683  1.187427  7.178006    -0.174269    0.158632   -0.004656  
      6.170050  1.187427  7.178006    -0.174269    0.158632   -0.004656  
     10.283416  1.187427  7.178006    -0.174269    0.158632   -0.004656  
      0.000000  4.749707  7.178006    -0.174269    0.158632   -0.004656  
      4.113367  4.749707  7.178006    -0.174269    0.158632   -0.004656  
      8.226733  4.749707  7.178006    -0.174269    0.158632   -0.004656  
     -2.056683  8.311986  7.178006    -0.174269    0.158632   -0.004656  
      2.056683  8.311986  7.178006    -0.174269    0.158632   -0.004656  
      6.170050  8.311986  7.178006    -0.174269    0.158632   -0.004656  
      0.000000  2.374853  8.821994    -0.174269    0.158632   -0.004656  
      4.113367  2.374853  8.821994    -0.174269    0.158632   -0.004656  
      8.226733  2.374853  8.821994    -0.174269    0.158632   -0.004656  
     -2.056683  5.937133  8.821994    -0.174269    0.158632   -0.004656  
      2.056683  5.937133  8.821994    -0.174269    0.158632   -0.004656  
      6.170050  5.937133  8.821994    -0.174269    0.158632   -0.004656  
     -4.113367  9.499413  8.821994    -0.174269    0.158632   -0.004656  
      0.000000  9.499413  8.821994    -0.174269    0.158632   -0.004656  
      4.113367  9.499413  8.821994    -0.174269    0.158632   -0.004656  
 
  53 f/i=    0.000000 THz     0.000001 2PiTHz    0.000006 cm-1     0.000001 meV
             X         Y         Z           dx          dy          dz
      2.056683  1.187427  7.178006    -0.147947   -0.164892   -0.080484  
      6.170050  1.187427  7.178006    -0.147947   -0.164892   -0.080484  
     10.283416  1.187427  7.178006    -0.147947   -0.164892   -0.080484  
      0.000000  4.749707  7.178006    -0.147947   -0.164892   -0.080484  
      4.113367  4.749707  7.178006    -0.147947   -0.164892   -0.080484  
      8.226733  4.749707  7.178006    -0.147947   -0.164892   -0.080484  
     -2.056683  8.311986  7.178006    -0.147947   -0.164892   -0.080484  
      2.056683  8.311986  7.178006    -0.147947   -0.164892   -0.080484  
      6.170050  8.311986  7.178006    -0.147947   -0.164892   -0.080484  
      0.000000  2.374853  8.821994    -0.147947   -0.164892   -0.080484  
      4.113367  2.374853  8.821994    -0.147947   -0.164892   -0.080484  
      8.226733  2.374853  8.821994    -0.147947   -0.164892   -0.080484  
     -2.056683  5.937133  8.821994    -0.147947   -0.164892   -0.080484  
      2.056683  5.937133  8.821994    -0.147947   -0.164892   -0.080484  
      6.170050  5.937133  8.821994    -0.147947   -0.164892   -0.080484  
     -4.113367  9.499413  8.821994    -0.147947   -0.164892   -0.080484  
      0.000000  9.499413  8.821994    -0.147947   -0.164892   -0.080484  
      4.113367  9.499413  8.821994    -0.147947   -0.164892   -0.080484  
 
  54 f/i=    0.000000 THz     0.000001 2PiTHz    0.000007 cm-1     0.000001 meV
             X         Y         Z           dx          dy          dz
      2.056683  1.187427  7.178006     0.057425    0.056585   -0.221486  
      6.170050  1.187427  7.178006     0.057425    0.056585   -0.221486  
     10.283416  1.187427  7.178006     0.057425    0.056585   -0.221486  
      0.000000  4.749707  7.178006     0.057425    0.056585   -0.221486  
      4.113367  4.749707  7.178006     0.057425    0.056585   -0.221486  
      8.226733  4.749707  7.178006     0.057425    0.056585   -0.221486  
     -2.056683  8.311986  7.178006     0.057425    0.056585   -0.221486  
      2.056683  8.311986  7.178006     0.057425    0.056585   -0.221486  
      6.170050  8.311986  7.178006     0.057425    0.056585   -0.221486  
      0.000000  2.374853  8.821994     0.057425    0.056585   -0.221486  
      4.113367  2.374853  8.821994     0.057425    0.056585   -0.221486  
      8.226733  2.374853  8.821994     0.057425    0.056585   -0.221486  
     -2.056683  5.937133  8.821994     0.057425    0.056585   -0.221486  
      2.056683  5.937133  8.821994     0.057425    0.056585   -0.221486  
      6.170050  5.937133  8.821994     0.057425    0.056585   -0.221486  
     -4.113367  9.499413  8.821994     0.057425    0.056585   -0.221486  
      0.000000  9.499413  8.821994     0.057425    0.056585   -0.221486  
      4.113367  9.499413  8.821994     0.057425    0.056585   -0.221486  
 


--------------------------------------------------------------------------------------------------------



 ELASTIC MODULI CONTR FROM IONIC RELAXATION (kBar)
 Direction    XX          YY          ZZ          XY          YZ          ZX
 --------------------------------------------------------------------------------
 XX         -50.9195    -16.8997    -75.3189      0.0000    -42.1157      0.0000
 YY         -16.8997    -50.9195    -75.3189      0.0000     42.1157      0.0000
 ZZ         -75.3189    -75.3189   -167.2960      0.0000      0.0000      0.0000
 XY           0.0000      0.0000      0.0000    -17.0099     -0.0000    -42.5052
 YZ         -42.1157     42.1157      0.0000     -0.0000   -104.2766     -0.0000
 ZX          -0.0000      0.0000      0.0000    -42.5052     -0.0000   -106.2141
 --------------------------------------------------------------------------------



--------------------------------------------------------------------------------------------------------


     LOOP+:  cpu time   1740.1533: real time   1743.4105
    4ORBIT:  cpu time      0.0000: real time      0.0000



 total charge

# of ion       s       p       d       f       tot
--------------------------------------------------
    1        1.581   1.846   0.079   0.012   3.518
    2        1.581   1.846   0.079   0.012   3.518
    3        1.581   1.846   0.079   0.012   3.518
    4        1.581   1.846   0.079   0.012   3.518
    5        1.581   1.846   0.079   0.012   3.518
    6        1.581   1.846   0.079   0.012   3.518
    7        1.581   1.846   0.079   0.012   3.518
    8        1.581   1.846   0.079   0.012   3.518
    9        1.581   1.846   0.079   0.012   3.518
   10        1.581   1.846   0.079   0.012   3.518
   11        1.581   1.846   0.079   0.012   3.518
   12        1.581   1.846   0.079   0.012   3.518
   13        1.581   1.846   0.079   0.012   3.518
   14        1.581   1.846   0.079   0.012   3.518
   15        1.581   1.846   0.079   0.012   3.518
   16        1.581   1.846   0.079   0.012   3.518
   17        1.581   1.846   0.079   0.012   3.518
   18        1.581   1.846   0.079   0.012   3.518
--------------------------------------------------
tot         28.457  33.229   1.419   0.222  63.328
 

 total amount of memory used by VASP MPI-rank0   107795. kBytes
=======================================================================

   base      :      30000. kBytes
   nonl-proj :      33550. kBytes
   fftplans  :      19418. kBytes
   grid      :      16156. kBytes
   one-center:        884. kBytes
   wavefun   :       7787. kBytes
 
  
  
 General timing and accounting informations for this job:
 ========================================================
  
                  Total CPU time used (sec):     1744.799
                            User time (sec):     1737.543
                          System time (sec):        7.257
                         Elapsed time (sec):     1749.012
  
                   Maximum memory used (kb):      507576.
                   Average memory used (kb):          N/A
  
                          Minor page faults:       472039
                          Major page faults:         3529
                 Voluntary context switches:          421
