PROCAR new format
# of k-points:    9         # of bands:   64         # of ions:   18

 k-point     1 :    0.00000000 0.00000000 0.00000000     weight = 0.02083333

band     1 # energy  -13.56457287 # occ.  2.00000000
 
ion      s      p      d      f    tot
    1  0.037  0.002  0.000  0.000  0.039
    2  0.037  0.002  0.000  0.000  0.039
    3  0.037  0.002  0.000  0.000  0.039
    4  0.037  0.002  0.000  0.000  0.039
    5  0.037  0.002  0.000  0.000  0.039
    6  0.037  0.002  0.000  0.000  0.039
    7  0.037  0.002  0.000  0.000  0.039
    8  0.037  0.002  0.000  0.000  0.039
    9  0.037  0.002  0.000  0.000  0.039
   10  0.037  0.002  0.000  0.000  0.039
   11  0.037  0.002  0.000  0.000  0.039
   12  0.037  0.002  0.000  0.000  0.039
   13  0.037  0.002  0.000  0.000  0.039
   14  0.037  0.002  0.000  0.000  0.039
   15  0.037  0.002  0.000  0.000  0.039
   16  0.037  0.002  0.000  0.000  0.039
   17  0.037  0.002  0.000  0.000  0.039
   18  0.037  0.002  0.000  0.000  0.039
tot    0.670  0.030  0.000  0.001  0.702
 
band     2 # energy  -12.44773544 # occ.  2.00000000
 
ion      s      p      d      f    tot
    1  0.001  0.001  0.000  0.000  0.003
    2  0.042  0.005  0.001  0.000  0.047
    3  0.015  0.002  0.000  0.000  0.017
    4  0.057  0.003  0.000  0.000  0.060
    5  0.033  0.004  0.001  0.000  0.038
    6  0.042  0.005  0.001  0.000  0.047
    7  0.093  0.003  0.000  0.000  0.096
    8  0.057  0.003  0.000  0.000  0.060
    9  0.001  0.001  0.000  0.000  0.003
   10  0.001  0.001  0.000  0.000  0.003
   11  0.057  0.003  0.000  0.000  0.060
   12  0.093  0.003  0.000  0.000  0.096
   13  0.042  0.005  0.001  0.000  0.047
   14  0.033  0.004  0.001  0.000  0.038
   15  0.057  0.003  0.000  0.000  0.060
   16  0.015  0.002  0.000  0.000  0.017
   17  0.042  0.005  0.001  0.000  0.047
   18  0.001  0.001  0.000  0.000  0.003
tot    0.684  0.051  0.006  0.001  0.743
 
band     3 # energy  -12.44773544 # occ.  2.00000000
 
ion      s      p      d      f    tot
    1  0.009  0.001  0.000  0.000  0.011
    2  0.108  0.005  0.000  0.000  0.113
    3  0.000  0.001  0.000  0.000  0.001
    4  0.054  0.003  0.000  0.000  0.058
    5  0.000  0.002  0.001  0.000  0.002
    6  0.108  0.005  0.000  0.000  0.113
    7  0.000  0.005  0.001  0.000  0.006
    8  0.054  0.003  0.000  0.000  0.058
    9  0.009  0.001  0.000  0.000  0.011
   10  0.009  0.001  0.000  0.000  0.011
   11  0.054  0.003  0.000  0.000  0.058
   12  0.000  0.005  0.001  0.000  0.006
   13  0.108  0.005  0.000  0.000  0.113
   14  0.000  0.002  0.001  0.000  0.002
   15  0.054  0.003  0.000  0.000  0.058
   16  0.000  0.001  0.000  0.000  0.001
   17  0.108  0.005  0.000  0.000  0.113
   18  0.009  0.001  0.000  0.000  0.011
tot    0.684  0.051  0.006  0.001  0.743
 
band     4 # energy  -12.44773542 # occ.  2.00000000
 
ion      s      p      d      f    tot
    1  0.000  0.001  0.000  0.000  0.002
    2  0.020  0.002  0.000  0.000  0.023
    3  0.028  0.002  0.000  0.000  0.030
    4  0.022  0.004  0.001  0.000  0.027
    5  0.170  0.007  0.000  0.000  0.177
    6  0.020  0.002  0.000  0.000  0.023
    7  0.060  0.002  0.000  0.000  0.062
    8  0.022  0.004  0.001  0.000  0.027
    9  0.000  0.001  0.000  0.000  0.002
   10  0.000  0.001  0.000  0.000  0.002
   11  0.022  0.004  0.001  0.000  0.027
   12  0.060  0.002  0.000  0.000  0.062
   13  0.020  0.002  0.000  0.000  0.023
   14  0.170  0.007  0.000  0.000  0.177
   15  0.022  0.004  0.001  0.000  0.027
   16  0.028  0.002  0.000  0.000  0.030
   17  0.020  0.002  0.000  0.000  0.023
   18  0.000  0.001  0.000  0.000  0.002
tot    0.684  0.051  0.006  0.001  0.743
 
band     5 # energy  -12.44773538 # occ.  2.00000000
 
ion      s      p      d      f    tot
    1  0.105  0.005  0.000  0.000  0.110
    2  0.006  0.001  0.000  0.000  0.008
    3  0.000  0.004  0.001  0.000  0.005
    4  0.060  0.003  0.000  0.000  0.063
    5  0.000  0.003  0.000  0.000  0.004
    6  0.006  0.001  0.000  0.000  0.008
    7  0.000  0.000  0.000  0.000  0.000
    8  0.060  0.003  0.000  0.000  0.063
    9  0.105  0.005  0.000  0.000  0.110
   10  0.105  0.005  0.000  0.000  0.110
   11  0.060  0.003  0.000  0.000  0.063
   12  0.000  0.000  0.000  0.000  0.000
   13  0.006  0.001  0.000  0.000  0.008
   14  0.000  0.003  0.000  0.000  0.004
   15  0.060  0.003  0.000  0.000  0.063
   16  0.000  0.004  0.001  0.000  0.005
   17  0.006  0.001  0.000  0.000  0.008
   18  0.105  0.005  0.000  0.000  0.110
tot    0.684  0.051  0.006  0.001  0.743
 
band     6 # energy  -12.44773536 # occ.  2.00000000
 
ion      s      p      d      f    tot
    1  0.075  0.004  0.000  0.000  0.079
    2  0.052  0.002  0.000  0.000  0.054
    3  0.056  0.005  0.000  0.000  0.061
    4  0.002  0.003  0.001  0.000  0.005
    5  0.010  0.000  0.000  0.000  0.010
    6  0.052  0.002  0.000  0.000  0.054
    7  0.018  0.003  0.001  0.000  0.022
    8  0.002  0.003  0.001  0.000  0.005
    9  0.075  0.004  0.000  0.000  0.079
   10  0.075  0.004  0.000  0.000  0.079
   11  0.002  0.003  0.001  0.000  0.005
   12  0.019  0.003  0.001  0.000  0.022
   13  0.052  0.002  0.000  0.000  0.054
   14  0.010  0.000  0.000  0.000  0.011
   15  0.002  0.003  0.001  0.000  0.005
   16  0.056  0.005  0.000  0.000  0.061
   17  0.052  0.002  0.000  0.000  0.054
   18  0.075  0.004  0.000  0.000  0.079
tot    0.684  0.051  0.006  0.001  0.743
 
band     7 # energy  -12.44773536 # occ.  2.00000000
 
ion      s      p      d      f    tot
    1  0.038  0.004  0.001  0.000  0.043
    2  0.000  0.002  0.000  0.000  0.003
    3  0.129  0.005  0.000  0.000  0.134
    4  0.032  0.001  0.000  0.000  0.034
    5  0.015  0.001  0.000  0.000  0.017
    6  0.000  0.002  0.000  0.000  0.003
    7  0.057  0.004  0.000  0.000  0.061
    8  0.032  0.001  0.000  0.000  0.034
    9  0.038  0.004  0.001  0.000  0.043
   10  0.038  0.004  0.001  0.000  0.043
   11  0.032  0.001  0.000  0.000  0.034
   12  0.057  0.004  0.000  0.000  0.061
   13  0.000  0.002  0.000  0.000  0.003
   14  0.015  0.001  0.000  0.000  0.017
   15  0.032  0.001  0.000  0.000  0.034
   16  0.129  0.005  0.000  0.000  0.134
   17  0.000  0.002  0.000  0.000  0.003
   18  0.038  0.004  0.001  0.000  0.043
tot    0.684  0.051  0.006  0.001  0.743
 
band     8 # energy  -10.76187696 # occ.  2.00000000
 
ion      s      p      d      f    tot
    1  0.061  0.004  0.001  0.000  0.066
    2  0.061  0.004  0.001  0.000  0.066
    3  0.000  0.003  0.001  0.000  0.004
    4  0.061  0.004  0.001  0.000  0.066
    5  0.000  0.003  0.001  0.000  0.004
    6  0.061  0.004  0.001  0.000  0.066
    7  0.000  0.003  0.001  0.000  0.004
    8  0.061  0.004  0.001  0.000  0.066
    9  0.061  0.004  0.001  0.000  0.066
   10  0.061  0.004  0.001  0.000  0.066
   11  0.061  0.004  0.001  0.000  0.066
   12  0.000  0.003  0.001  0.000  0.004
   13  0.061  0.004  0.001  0.000  0.066
   14  0.000  0.003  0.001  0.000  0.004
   15  0.061  0.004  0.001  0.000  0.066
   16  0.000  0.003  0.001  0.000  0.004
   17  0.061  0.004  0.001  0.000  0.066
   18  0.061  0.004  0.001  0.000  0.066
tot    0.735  0.065  0.014  0.002  0.816
 
band     9 # energy  -10.76187696 # occ.  2.00000000
 
ion      s      p      d      f    tot
    1  0.020  0.003  0.001  0.000  0.025
    2  0.020  0.003  0.001  0.000  0.025
    3  0.082  0.004  0.001  0.000  0.087
    4  0.020  0.003  0.001  0.000  0.025
    5  0.082  0.004  0.001  0.000  0.087
    6  0.020  0.003  0.001  0.000  0.025
    7  0.082  0.004  0.001  0.000  0.087
    8  0.020  0.003  0.001  0.000  0.025
    9  0.020  0.003  0.001  0.000  0.025
   10  0.020  0.003  0.001  0.000  0.025
   11  0.020  0.003  0.001  0.000  0.025
   12  0.082  0.004  0.001  0.000  0.087
   13  0.020  0.003  0.001  0.000  0.025
   14  0.082  0.004  0.001  0.000  0.087
   15  0.020  0.003  0.001  0.000  0.025
   16  0.082  0.004  0.001  0.000  0.087
   17  0.020  0.003  0.001  0.000  0.025
   18  0.020  0.003  0.001  0.000  0.025
tot    0.735  0.065  0.014  0.002  0.816
 
band    10 # energy  -10.76187688 # occ.  2.00000000
 
ion      s      p      d      f    tot
    1  0.061  0.004  0.001  0.000  0.066
    2  0.061  0.004  0.001  0.000  0.066
    3  0.000  0.003  0.001  0.000  0.004
    4  0.061  0.004  0.001  0.000  0.066
    5  0.000  0.003  0.001  0.000  0.004
    6  0.061  0.004  0.001  0.000  0.066
    7  0.000  0.003  0.001  0.000  0.004
    8  0.061  0.004  0.001  0.000  0.066
    9  0.061  0.004  0.001  0.000  0.066
   10  0.061  0.004  0.001  0.000  0.066
   11  0.061  0.004  0.001  0.000  0.066
   12  0.000  0.003  0.001  0.000  0.004
   13  0.061  0.004  0.001  0.000  0.066
   14  0.000  0.003  0.001  0.000  0.004
   15  0.061  0.004  0.001  0.000  0.066
   16  0.000  0.003  0.001  0.000  0.004
   17  0.061  0.004  0.001  0.000  0.066
   18  0.061  0.004  0.001  0.000  0.066
tot    0.735  0.065  0.014  0.002  0.816
 
band    11 # energy  -10.76187688 # occ.  2.00000000
 
ion      s      p      d      f    tot
    1  0.020  0.003  0.001  0.000  0.025
    2  0.020  0.003  0.001  0.000  0.025
    3  0.082  0.004  0.001  0.000  0.087
    4  0.020  0.003  0.001  0.000  0.025
    5  0.082  0.004  0.001  0.000  0.087
    6  0.020  0.003  0.001  0.000  0.025
    7  0.082  0.004  0.001  0.000  0.087
    8  0.020  0.003  0.001  0.000  0.025
    9  0.020  0.003  0.001  0.000  0.025
   10  0.020  0.003  0.001  0.000  0.025
   11  0.020  0.003  0.001  0.000  0.025
   12  0.082  0.004  0.001  0.000  0.087
   13  0.020  0.003  0.001  0.000  0.025
   14  0.082  0.004  0.001  0.000  0.087
   15  0.020  0.003  0.001  0.000  0.025
   16  0.082  0.004  0.001  0.000  0.087
   17  0.020  0.003  0.001  0.000  0.025
   18  0.020  0.003  0.001  0.000  0.025
tot    0.735  0.065  0.014  0.002  0.816
 
band    12 # energy   -9.17954042 # occ.  2.00000000
 
ion      s      p      d      f    tot
    1  0.009  0.001  0.000  0.000  0.010
    2  0.050  0.005  0.001  0.000  0.056
    3  0.010  0.003  0.001  0.000  0.014
    4  0.016  0.006  0.002  0.000  0.024
    5  0.149  0.001  0.000  0.000  0.151
    6  0.050  0.005  0.001  0.000  0.056
    7  0.083  0.001  0.000  0.000  0.084
    8  0.017  0.006  0.002  0.000  0.024
    9  0.009  0.001  0.000  0.000  0.010
   10  0.009  0.001  0.000  0.000  0.010
   11  0.017  0.006  0.002  0.000  0.024
   12  0.082  0.001  0.000  0.000  0.084
   13  0.051  0.005  0.001  0.000  0.056
   14  0.148  0.001  0.000  0.000  0.150
   15  0.017  0.006  0.002  0.000  0.024
   16  0.010  0.003  0.001  0.000  0.014
   17  0.050  0.005  0.001  0.000  0.056
   18  0.009  0.001  0.000  0.000  0.010
tot    0.786  0.055  0.014  0.002  0.856
 
band    13 # energy   -9.17954042 # occ.  2.00000000
 
ion      s      p      d      f    tot
    1  0.008  0.004  0.001  0.000  0.012
    2  0.045  0.005  0.001  0.000  0.051
    3  0.000  0.003  0.001  0.000  0.004
    4  0.090  0.000  0.000  0.000  0.090
    5  0.053  0.006  0.002  0.000  0.060
    6  0.045  0.005  0.001  0.000  0.051
    7  0.056  0.000  0.000  0.000  0.057
    8  0.090  0.000  0.000  0.000  0.090
    9  0.008  0.004  0.001  0.000  0.012
   10  0.008  0.004  0.001  0.000  0.012
   11  0.089  0.000  0.000  0.000  0.090
   12  0.056  0.000  0.000  0.000  0.057
   13  0.045  0.005  0.001  0.000  0.051
   14  0.053  0.006  0.002  0.000  0.061
   15  0.089  0.000  0.000  0.000  0.090
   16  0.000  0.003  0.001  0.000  0.004
   17  0.045  0.005  0.001  0.000  0.051
   18  0.008  0.004  0.001  0.000  0.012
tot    0.786  0.055  0.014  0.002  0.856
 
band    14 # energy   -9.17954041 # occ.  2.00000000
 
ion      s      p      d      f    tot
    1  0.013  0.002  0.001  0.000  0.016
    2  0.126  0.003  0.001  0.000  0.129
    3  0.000  0.000  0.000  0.000  0.001
    4  0.058  0.002  0.001  0.000  0.061
    5  0.000  0.005  0.001  0.000  0.006
    6  0.125  0.003  0.001  0.000  0.129
    7  0.000  0.007  0.002  0.000  0.010
    8  0.058  0.002  0.001  0.000  0.061
    9  0.013  0.002  0.001  0.000  0.016
   10  0.013  0.002  0.001  0.000  0.016
   11  0.058  0.002  0.001  0.000  0.061
   12  0.000  0.007  0.002  0.000  0.010
   13  0.125  0.003  0.001  0.000  0.129
   14  0.000  0.005  0.001  0.000  0.006
   15  0.058  0.002  0.001  0.000  0.061
   16  0.000  0.000  0.000  0.000  0.001
   17  0.126  0.003  0.001  0.000  0.129
   18  0.013  0.002  0.001  0.000  0.016
tot    0.786  0.055  0.014  0.002  0.856
 
band    15 # energy   -9.17954035 # occ.  2.00000000
 
ion      s      p      d      f    tot
    1  0.036  0.006  0.001  0.000  0.044
    2  0.005  0.003  0.001  0.000  0.010
    3  0.161  0.001  0.000  0.000  0.162
    4  0.014  0.002  0.000  0.000  0.016
    5  0.003  0.001  0.000  0.000  0.004
    6  0.005  0.003  0.001  0.000  0.010
    7  0.120  0.003  0.001  0.000  0.123
    8  0.014  0.002  0.000  0.000  0.016
    9  0.036  0.006  0.001  0.000  0.044
   10  0.036  0.006  0.001  0.000  0.044
   11  0.014  0.002  0.000  0.000  0.016
   12  0.120  0.003  0.001  0.000  0.123
   13  0.005  0.003  0.001  0.000  0.010
   14  0.003  0.001  0.000  0.000  0.004
   15  0.014  0.002  0.000  0.000  0.016
   16  0.161  0.001  0.000  0.000  0.162
   17  0.005  0.003  0.001  0.000  0.010
   18  0.036  0.006  0.001  0.000  0.044
tot    0.786  0.055  0.014  0.002  0.856
 
band    16 # energy   -9.17954035 # occ.  2.00000000
 
ion      s      p      d      f    tot
    1  0.118  0.003  0.001  0.000  0.122
    2  0.006  0.002  0.001  0.000  0.008
    3  0.000  0.009  0.002  0.000  0.011
    4  0.073  0.002  0.001  0.000  0.076
    5  0.000  0.003  0.001  0.000  0.005
    6  0.006  0.002  0.001  0.000  0.008
    7  0.000  0.001  0.000  0.000  0.001
    8  0.073  0.002  0.001  0.000  0.076
    9  0.118  0.003  0.001  0.000  0.122
   10  0.118  0.003  0.001  0.000  0.122
   11  0.073  0.002  0.001  0.000  0.076
   12  0.000  0.001  0.000  0.000  0.001
   13  0.006  0.002  0.001  0.000  0.008
   14  0.000  0.003  0.001  0.000  0.005
   15  0.073  0.002  0.001  0.000  0.076
   16  0.000  0.009  0.002  0.000  0.011
   17  0.006  0.002  0.001  0.000  0.008
   18  0.118  0.003  0.001  0.000  0.122
tot    0.786  0.055  0.014  0.002  0.856
 
band    17 # energy   -9.17954034 # occ.  2.00000000
 
ion      s      p      d      f    tot
    1  0.079  0.003  0.001  0.000  0.083
    2  0.030  0.001  0.000  0.000  0.031
    3  0.091  0.002  0.001  0.000  0.094
    4  0.011  0.006  0.001  0.000  0.019
    5  0.058  0.001  0.000  0.000  0.059
    6  0.030  0.001  0.000  0.000  0.031
    7  0.004  0.005  0.001  0.000  0.010
    8  0.011  0.006  0.001  0.000  0.019
    9  0.079  0.003  0.001  0.000  0.083
   10  0.079  0.003  0.001  0.000  0.083
   11  0.011  0.006  0.001  0.000  0.019
   12  0.004  0.005  0.001  0.000  0.010
   13  0.030  0.001  0.000  0.000  0.031
   14  0.058  0.001  0.000  0.000  0.059
   15  0.011  0.006  0.001  0.000  0.019
   16  0.091  0.002  0.001  0.000  0.094
   17  0.030  0.001  0.000  0.000  0.031
   18  0.079  0.003  0.001  0.000  0.083
tot    0.786  0.055  0.014  0.002  0.856
 
band    18 # energy   -8.59180521 # occ.  2.00000000
 
ion      s      p      d      f    tot
    1  0.040  0.003  0.000  0.000  0.043
    2  0.040  0.003  0.000  0.000  0.043
    3  0.040  0.003  0.000  0.000  0.043
    4  0.040  0.003  0.000  0.000  0.043
    5  0.040  0.003  0.000  0.000  0.043
    6  0.040  0.003  0.000  0.000  0.043
    7  0.040  0.003  0.000  0.000  0.043
    8  0.040  0.003  0.000  0.000  0.043
    9  0.040  0.003  0.000  0.000  0.043
   10  0.040  0.003  0.000  0.000  0.043
   11  0.040  0.003  0.000  0.000  0.043
   12  0.040  0.003  0.000  0.000  0.043
   13  0.040  0.003  0.000  0.000  0.043
   14  0.040  0.003  0.000  0.000  0.043
   15  0.040  0.003  0.000  0.000  0.043
   16  0.040  0.003  0.000  0.000  0.043
   17  0.040  0.003  0.000  0.000  0.043
   18  0.040  0.003  0.000  0.000  0.043
tot    0.711  0.062  0.002  0.001  0.776
 
band    19 # energy   -5.80360371 # occ.  2.00000000
 
ion      s      p      d      f    tot
    1  0.000  0.029  0.001  0.000  0.031
    2  0.000  0.029  0.001  0.000  0.031
    3  0.000  0.029  0.001  0.000  0.031
    4  0.000  0.029  0.001  0.000  0.031
    5  0.000  0.029  0.001  0.000  0.031
    6  0.000  0.029  0.001  0.000  0.031
    7  0.000  0.029  0.001  0.000  0.031
    8  0.000  0.029  0.001  0.000  0.031
    9  0.000  0.029  0.001  0.000  0.031
   10  0.000  0.029  0.001  0.000  0.031
   11  0.000  0.029  0.001  0.000  0.031
   12  0.000  0.029  0.001  0.000  0.031
   13  0.000  0.029  0.001  0.000  0.031
   14  0.000  0.029  0.001  0.000  0.031
   15  0.000  0.029  0.001  0.000  0.031
   16  0.000  0.029  0.001  0.000  0.031
   17  0.000  0.029  0.001  0.000  0.031
   18  0.000  0.029  0.001  0.000  0.031
tot    0.000  0.526  0.025  0.000  0.551
 
band    20 # energy   -5.80360370 # occ.  2.00000000
 
ion      s      p      d      f    tot
    1  0.000  0.029  0.001  0.000  0.031
    2  0.000  0.029  0.001  0.000  0.031
    3  0.000  0.029  0.001  0.000  0.031
    4  0.000  0.029  0.001  0.000  0.031
    5  0.000  0.029  0.001  0.000  0.031
    6  0.000  0.029  0.001  0.000  0.031
    7  0.000  0.029  0.001  0.000  0.031
    8  0.000  0.029  0.001  0.000  0.031
    9  0.000  0.029  0.001  0.000  0.031
   10  0.000  0.029  0.001  0.000  0.031
   11  0.000  0.029  0.001  0.000  0.031
   12  0.000  0.029  0.001  0.000  0.031
   13  0.000  0.029  0.001  0.000  0.031
   14  0.000  0.029  0.001  0.000  0.031
   15  0.000  0.029  0.001  0.000  0.031
   16  0.000  0.029  0.001  0.000  0.031
   17  0.000  0.029  0.001  0.000  0.031
   18  0.000  0.029  0.001  0.000  0.031
tot    0.000  0.526  0.025  0.000  0.551
 
band    21 # energy   -5.29234946 # occ.  2.00000000
 
ion      s      p      d      f    tot
    1  0.000  0.010  0.001  0.000  0.011
    2  0.003  0.042  0.001  0.000  0.046
    3  0.001  0.033  0.001  0.000  0.034
    4  0.001  0.034  0.001  0.000  0.037
    5  0.001  0.015  0.001  0.000  0.016
    6  0.003  0.042  0.001  0.000  0.046
    7  0.004  0.039  0.001  0.000  0.044
    8  0.001  0.034  0.001  0.000  0.037
    9  0.000  0.010  0.001  0.000  0.011
   10  0.000  0.010  0.001  0.000  0.011
   11  0.001  0.034  0.001  0.000  0.037
   12  0.004  0.039  0.001  0.000  0.044
   13  0.003  0.042  0.001  0.000  0.046
   14  0.001  0.015  0.001  0.000  0.016
   15  0.001  0.034  0.001  0.000  0.037
   16  0.001  0.033  0.001  0.000  0.034
   17  0.003  0.042  0.001  0.000  0.046
   18  0.000  0.010  0.001  0.000  0.011
tot    0.030  0.518  0.016  0.001  0.565
 
band    22 # energy   -5.29234944 # occ.  2.00000000
 
ion      s      p      d      f    tot
    1  0.003  0.043  0.001  0.000  0.047
    2  0.000  0.019  0.001  0.000  0.020
    3  0.001  0.022  0.001  0.000  0.024
    4  0.002  0.025  0.001  0.000  0.028
    5  0.003  0.051  0.001  0.000  0.054
    6  0.000  0.019  0.001  0.000  0.020
    7  0.000  0.014  0.001  0.000  0.015
    8  0.002  0.025  0.001  0.000  0.028
    9  0.003  0.043  0.001  0.000  0.047
   10  0.003  0.043  0.001  0.000  0.047
   11  0.002  0.025  0.001  0.000  0.028
   12  0.000  0.014  0.001  0.000  0.015
   13  0.000  0.019  0.001  0.000  0.020
   14  0.003  0.051  0.001  0.000  0.054
   15  0.002  0.025  0.001  0.000  0.028
   16  0.001  0.022  0.001  0.000  0.024
   17  0.000  0.019  0.001  0.000  0.020
   18  0.003  0.043  0.001  0.000  0.047
tot    0.030  0.518  0.016  0.001  0.565
 
band    23 # energy   -5.29234935 # occ.  2.00000000
 
ion      s      p      d      f    tot
    1  0.000  0.016  0.001  0.000  0.017
    2  0.003  0.043  0.001  0.000  0.047
    3  0.000  0.001  0.001  0.000  0.002
    4  0.004  0.028  0.001  0.000  0.034
    5  0.000  0.034  0.000  0.000  0.034
    6  0.003  0.043  0.001  0.000  0.047
    7  0.000  0.049  0.001  0.000  0.050
    8  0.004  0.028  0.001  0.000  0.034
    9  0.000  0.016  0.001  0.000  0.017
   10  0.000  0.016  0.001  0.000  0.017
   11  0.004  0.028  0.001  0.000  0.034
   12  0.000  0.049  0.001  0.000  0.050
   13  0.003  0.043  0.001  0.000  0.047
   14  0.000  0.034  0.000  0.000  0.034
   15  0.004  0.028  0.001  0.000  0.034
   16  0.000  0.001  0.001  0.000  0.002
   17  0.003  0.043  0.001  0.000  0.047
   18  0.000  0.016  0.001  0.000  0.017
tot    0.030  0.518  0.016  0.001  0.565
 
band    24 # energy   -5.29234934 # occ.  2.00000000
 
ion      s      p      d      f    tot
    1  0.002  0.030  0.001  0.000  0.033
    2  0.001  0.009  0.000  0.000  0.011
    3  0.001  0.023  0.001  0.000  0.025
    4  0.000  0.046  0.001  0.000  0.047
    5  0.006  0.045  0.001  0.000  0.053
    6  0.001  0.009  0.000  0.000  0.011
    7  0.002  0.020  0.000  0.000  0.023
    8  0.000  0.046  0.001  0.000  0.047
    9  0.002  0.030  0.001  0.000  0.033
   10  0.002  0.030  0.001  0.000  0.033
   11  0.000  0.046  0.001  0.000  0.047
   12  0.002  0.020  0.000  0.000  0.023
   13  0.001  0.009  0.000  0.000  0.011
   14  0.006  0.045  0.001  0.000  0.053
   15  0.000  0.046  0.001  0.000  0.047
   16  0.001  0.023  0.001  0.000  0.025
   17  0.001  0.009  0.000  0.000  0.011
   18  0.002  0.030  0.001  0.000  0.033
tot    0.030  0.518  0.016  0.001  0.565
 
band    25 # energy   -5.29234933 # occ.  2.00000000
 
ion      s      p      d      f    tot
    1  0.000  0.031  0.001  0.000  0.031
    2  0.001  0.045  0.001  0.000  0.047
    3  0.007  0.040  0.001  0.000  0.047
    4  0.001  0.009  0.001  0.000  0.011
    5  0.000  0.006  0.000  0.000  0.007
    6  0.001  0.045  0.001  0.000  0.047
    7  0.004  0.043  0.002  0.000  0.049
    8  0.001  0.009  0.001  0.000  0.011
    9  0.000  0.031  0.001  0.000  0.031
   10  0.000  0.031  0.001  0.000  0.031
   11  0.001  0.009  0.001  0.000  0.011
   12  0.004  0.043  0.002  0.000  0.049
   13  0.001  0.045  0.001  0.000  0.047
   14  0.000  0.006  0.000  0.000  0.007
   15  0.001  0.009  0.001  0.000  0.011
   16  0.007  0.040  0.001  0.000  0.047
   17  0.001  0.045  0.001  0.000  0.047
   18  0.000  0.031  0.001  0.000  0.031
tot    0.030  0.518  0.016  0.001  0.565
 
band    26 # energy   -5.29234932 # occ.  2.00000000
 
ion      s      p      d      f    tot
    1  0.005  0.042  0.001  0.000  0.048
    2  0.002  0.016  0.000  0.000  0.018
    3  0.000  0.055  0.001  0.000  0.055
    4  0.001  0.030  0.001  0.000  0.032
    5  0.000  0.022  0.001  0.000  0.023
    6  0.002  0.016  0.000  0.000  0.018
    7  0.000  0.007  0.000  0.000  0.008
    8  0.001  0.030  0.001  0.000  0.032
    9  0.005  0.042  0.001  0.000  0.048
   10  0.005  0.042  0.001  0.000  0.048
   11  0.001  0.030  0.001  0.000  0.032
   12  0.000  0.007  0.000  0.000  0.008
   13  0.002  0.016  0.000  0.000  0.018
   14  0.000  0.022  0.001  0.000  0.023
   15  0.001  0.030  0.001  0.000  0.032
   16  0.000  0.055  0.001  0.000  0.055
   17  0.002  0.016  0.000  0.000  0.018
   18  0.005  0.042  0.001  0.000  0.048
tot    0.030  0.518  0.016  0.001  0.565
 
band    27 # energy   -4.07502761 # occ.  2.00000000
 
ion      s      p      d      f    tot
    1  0.007  0.039  0.001  0.000  0.047
    2  0.007  0.039  0.001  0.000  0.047
    3  0.000  0.013  0.000  0.000  0.013
    4  0.007  0.039  0.001  0.000  0.047
    5  0.000  0.013  0.000  0.000  0.013
    6  0.007  0.039  0.001  0.000  0.047
    7  0.000  0.013  0.000  0.000  0.013
    8  0.007  0.039  0.001  0.000  0.047
    9  0.007  0.039  0.001  0.000  0.047
   10  0.007  0.039  0.001  0.000  0.047
   11  0.007  0.039  0.001  0.000  0.047
   12  0.000  0.013  0.000  0.000  0.013
   13  0.007  0.039  0.001  0.000  0.047
   14  0.000  0.013  0.000  0.000  0.013
   15  0.007  0.039  0.001  0.000  0.047
   16  0.000  0.013  0.000  0.000  0.013
   17  0.007  0.039  0.001  0.000  0.047
   18  0.007  0.039  0.001  0.000  0.047
tot    0.087  0.548  0.009  0.001  0.645
 
band    28 # energy   -4.07502759 # occ.  2.00000000
 
ion      s      p      d      f    tot
    1  0.002  0.022  0.000  0.000  0.025
    2  0.002  0.022  0.000  0.000  0.025
    3  0.010  0.048  0.001  0.000  0.058
    4  0.002  0.022  0.000  0.000  0.025
    5  0.010  0.048  0.001  0.000  0.058
    6  0.002  0.022  0.000  0.000  0.025
    7  0.010  0.048  0.001  0.000  0.058
    8  0.002  0.022  0.000  0.000  0.025
    9  0.002  0.022  0.000  0.000  0.025
   10  0.002  0.022  0.000  0.000  0.025
   11  0.002  0.022  0.000  0.000  0.025
   12  0.010  0.048  0.001  0.000  0.058
   13  0.002  0.022  0.000  0.000  0.025
   14  0.010  0.048  0.001  0.000  0.058
   15  0.002  0.022  0.000  0.000  0.025
   16  0.010  0.048  0.001  0.000  0.058
   17  0.002  0.022  0.000  0.000  0.025
   18  0.002  0.022  0.000  0.000  0.025
tot    0.087  0.548  0.009  0.001  0.645
 
band    29 # energy   -4.07502758 # occ.  2.00000000
 
ion      s      p      d      f    tot
    1  0.002  0.022  0.000  0.000  0.025
    2  0.002  0.022  0.000  0.000  0.025
    3  0.010  0.048  0.001  0.000  0.058
    4  0.002  0.022  0.000  0.000  0.025
    5  0.010  0.048  0.001  0.000  0.058
    6  0.002  0.022  0.000  0.000  0.025
    7  0.010  0.048  0.001  0.000  0.058
    8  0.002  0.022  0.000  0.000  0.025
    9  0.002  0.022  0.000  0.000  0.025
   10  0.002  0.022  0.000  0.000  0.025
   11  0.002  0.022  0.000  0.000  0.025
   12  0.010  0.048  0.001  0.000  0.058
   13  0.002  0.022  0.000  0.000  0.025
   14  0.010  0.048  0.001  0.000  0.058
   15  0.002  0.022  0.000  0.000  0.025
   16  0.010  0.048  0.001  0.000  0.058
   17  0.002  0.022  0.000  0.000  0.025
   18  0.002  0.022  0.000  0.000  0.025
tot    0.087  0.548  0.009  0.001  0.645
 
band    30 # energy   -4.07502756 # occ.  2.00000000
 
ion      s      p      d      f    tot
    1  0.007  0.039  0.001  0.000  0.047
    2  0.007  0.039  0.001  0.000  0.047
    3  0.000  0.013  0.000  0.000  0.013
    4  0.007  0.039  0.001  0.000  0.047
    5  0.000  0.013  0.000  0.000  0.013
    6  0.007  0.039  0.001  0.000  0.047
    7  0.000  0.013  0.000  0.000  0.013
    8  0.007  0.039  0.001  0.000  0.047
    9  0.007  0.039  0.001  0.000  0.047
   10  0.007  0.039  0.001  0.000  0.047
   11  0.007  0.039  0.001  0.000  0.047
   12  0.000  0.013  0.000  0.000  0.013
   13  0.007  0.039  0.001  0.000  0.047
   14  0.000  0.013  0.000  0.000  0.013
   15  0.007  0.039  0.001  0.000  0.047
   16  0.000  0.013  0.000  0.000  0.013
   17  0.007  0.039  0.001  0.000  0.047
   18  0.007  0.039  0.001  0.000  0.047
tot    0.087  0.548  0.009  0.001  0.645
 
band    31 # energy   -3.55752747 # occ.  2.00000000
 
ion      s      p      d      f    tot
    1  0.000  0.010  0.001  0.000  0.011
    2  0.000  0.058  0.003  0.000  0.062
    3  0.000  0.006  0.001  0.000  0.006
    4  0.000  0.074  0.003  0.000  0.077
    5  0.000  0.039  0.002  0.001  0.041
    6  0.000  0.058  0.003  0.000  0.062
    7  0.000  0.015  0.001  0.000  0.016
    8  0.000  0.074  0.003  0.000  0.077
    9  0.000  0.010  0.001  0.000  0.011
   10  0.000  0.010  0.001  0.000  0.011
   11  0.000  0.074  0.003  0.000  0.077
   12  0.000  0.015  0.001  0.000  0.016
   13  0.000  0.058  0.003  0.000  0.062
   14  0.000  0.039  0.002  0.001  0.041
   15  0.000  0.074  0.003  0.000  0.077
   16  0.000  0.006  0.001  0.000  0.006
   17  0.000  0.058  0.003  0.000  0.062
   18  0.000  0.010  0.001  0.000  0.011
tot    0.000  0.689  0.035  0.006  0.730
 
band    32 # energy   -3.55752746 # occ.  2.00000000
 
ion      s      p      d      f    tot
    1  0.000  0.029  0.001  0.000  0.030
    2  0.000  0.029  0.001  0.000  0.031
    3  0.000  0.018  0.002  0.000  0.021
    4  0.000  0.029  0.001  0.001  0.031
    5  0.000  0.113  0.005  0.001  0.119
    6  0.000  0.029  0.001  0.000  0.031
    7  0.000  0.040  0.001  0.000  0.042
    8  0.000  0.029  0.001  0.001  0.031
    9  0.000  0.029  0.001  0.000  0.030
   10  0.000  0.029  0.001  0.000  0.030
   11  0.000  0.029  0.001  0.001  0.031
   12  0.000  0.040  0.001  0.000  0.042
   13  0.000  0.029  0.001  0.000  0.031
   14  0.000  0.113  0.005  0.001  0.119
   15  0.000  0.029  0.001  0.001  0.031
   16  0.000  0.018  0.002  0.000  0.021
   17  0.000  0.029  0.001  0.000  0.031
   18  0.000  0.029  0.001  0.000  0.030
tot    0.000  0.689  0.035  0.006  0.730
 
band    33 # energy   -3.55752740 # occ.  2.00000000
 
ion      s      p      d      f    tot
    1  0.000  0.029  0.001  0.001  0.031
    2  0.000  0.029  0.001  0.000  0.031
    3  0.000  0.096  0.004  0.000  0.100
    4  0.000  0.029  0.001  0.000  0.030
    5  0.000  0.001  0.001  0.000  0.002
    6  0.000  0.029  0.001  0.000  0.031
    7  0.000  0.074  0.004  0.001  0.079
    8  0.000  0.029  0.001  0.000  0.030
    9  0.000  0.029  0.001  0.001  0.031
   10  0.000  0.029  0.001  0.001  0.031
   11  0.000  0.029  0.001  0.000  0.030
   12  0.000  0.074  0.004  0.001  0.079
   13  0.000  0.029  0.001  0.000  0.031
   14  0.000  0.001  0.001  0.000  0.002
   15  0.000  0.029  0.001  0.000  0.030
   16  0.000  0.096  0.004  0.000  0.100
   17  0.000  0.029  0.001  0.000  0.031
   18  0.000  0.029  0.001  0.001  0.031
tot    0.000  0.689  0.035  0.006  0.730
 
band    34 # energy   -3.55752739 # occ.  2.00000000
 
ion      s      p      d      f    tot
    1  0.000  0.085  0.004  0.000  0.090
    2  0.000  0.036  0.001  0.000  0.038
    3  0.000  0.031  0.001  0.001  0.032
    4  0.000  0.023  0.002  0.000  0.025
    5  0.000  0.000  0.000  0.000  0.001
    6  0.000  0.036  0.001  0.000  0.038
    7  0.000  0.025  0.001  0.000  0.027
    8  0.000  0.023  0.002  0.000  0.025
    9  0.000  0.085  0.004  0.000  0.090
   10  0.000  0.085  0.004  0.000  0.090
   11  0.000  0.023  0.002  0.000  0.025
   12  0.000  0.025  0.001  0.000  0.027
   13  0.000  0.036  0.001  0.000  0.038
   14  0.000  0.000  0.000  0.000  0.001
   15  0.000  0.023  0.002  0.000  0.025
   16  0.000  0.031  0.001  0.001  0.032
   17  0.000  0.036  0.001  0.000  0.038
   18  0.000  0.085  0.004  0.000  0.090
tot    0.000  0.689  0.035  0.006  0.730
 
band    35 # energy   -3.55752717 # occ.  2.00000000
 