unknown system                          
           1
    12.340100    0.000000    0.000000
    -6.170050   10.686840    0.000000
     0.000000    0.000000   16.000000
   H 
    18
Direct configuration=     1
   0.22222222  0.11111111  0.44862540
   0.55555556  0.11111111  0.44862540
   0.88888889  0.11111111  0.44862540
   0.22222222  0.44444444  0.44862540
   0.55555556  0.44444444  0.44862540
   0.88888889  0.44444444  0.44862540
   0.22222222  0.77777778  0.44862540
   0.55555556  0.77777778  0.44862540
   0.88888889  0.77777778  0.44862540
   0.11111111  0.22222222  0.55137460
   0.44444444  0.22222222  0.55137460
   0.77777778  0.22222222  0.55137460
   0.11111111  0.55555556  0.55137460
   0.44444444  0.55555556  0.55137460
   0.77777778  0.55555556  0.55137460
   0.11111111  0.88888889  0.55137460
   0.44444444  0.88888889  0.55137460
   0.77777778  0.88888889  0.55137460
