   2   2   1   0
  0.9013366E+02  0.3606893E-09  0.3606893E-09  0.1600000E-08  0.1000000E-16
  1.000000000000000E-004
  CAR 
 unknown system                          
      9.83379418    -17.72757885 6001     -2.97305267      1.00000000
    -17.728  0.0000E+00  0.0000E+00
    -17.723  0.0000E+00  0.0000E+00
    -17.718  0.0000E+00  0.0000E+00
    -17.714  0.0000E+00  0.0000E+00
    -17.709  0.0000E+00  0.0000E+00
    -17.705  0.0000E+00  0.0000E+00
    -17.700  0.0000E+00  0.0000E+00
    -17.695  0.0000E+00  0.0000E+00
    -17.691  0.0000E+00  0.0000E+00
    -17.686  0.0000E+00  0.0000E+00
    -17.682  0.0000E+00  0.0000E+00
    -17.677  0.0000E+00  0.0000E+00
    -17.672  0.0000E+00  0.0000E+00
    -17.668  0.0000E+00  0.0000E+00
    -17.663  0.0000E+00  0.0000E+00
    -17.659  0.0000E+00  0.0000E+00
    -17.654  0.0000E+00  0.0000E+00
    -17.649  0.0000E+00  0.0000E+00
    -17.645  0.0000E+00  0.0000E+00
    -17.640  0.0000E+00  0.0000E+00
    -17.636  0.0000E+00  0.0000E+00
    -17.631  0.0000E+00  0.0000E+00
    -17.627  0.0000E+00  0.0000E+00
    -17.622  0.0000E+00  0.0000E+00
    -17.617  0.0000E+00  0.0000E+00
    -17.613  0.0000E+00  0.0000E+00
    -17.608  0.0000E+00  0.0000E+00
    -17.604  0.0000E+00  0.0000E+00
    -17.599  0.0000E+00  0.0000E+00
    -17.594  0.0000E+00  0.0000E+00
    -17.590  0.0000E+00  0.0000E+00
    -17.585  0.0000E+00  0.0000E+00
    -17.581  0.0000E+00  0.0000E+00
    -17.576  0.0000E+00  0.0000E+00
    -17.571  0.0000E+00  0.0000E+00
    -17.567  0.0000E+00  0.0000E+00
    -17.562  0.0000E+00  0.0000E+00
    -17.558  0.0000E+00  0.0000E+00
    -17.553  0.0000E+00  0.0000E+00
    -17.548  0.0000E+00  0.0000E+00
    -17.544  0.0000E+00  0.0000E+00
    -17.539  0.0000E+00  0.0000E+00
    -17.535  0.0000E+00  0.0000E+00
    -17.530  0.0000E+00  0.0000E+00
    -17.525  0.0000E+00  0.0000E+00
    -17.521  0.0000E+00  0.0000E+00
    -17.516  0.0000E+00  0.0000E+00
    -17.512  0.0000E+00  0.0000E+00
    -17.507  0.0000E+00  0.0000E+00
    -17.502  0.0000E+00  0.0000E+00
    -17.498  0.0000E+00  0.0000E+00
    -17.493  0.0000E+00  0.0000E+00
    -17.489  0.0000E+00  0.0000E+00
    -17.484  0.0000E+00  0.0000E+00
    -17.480  0.0000E+00  0.0000E+00
    -17.475  0.0000E+00  0.0000E+00
    -17.470  0.0000E+00  0.0000E+00
    -17.466  0.0000E+00  0.0000E+00
    -17.461  0.0000E+00  0.0000E+00
    -17.457  0.0000E+00  0.0000E+00
    -17.452  0.0000E+00  0.0000E+00
    -17.447  0.0000E+00  0.0000E+00
    -17.443  0.0000E+00  0.0000E+00
    -17.438  0.0000E+00  0.0000E+00
    -17.434  0.0000E+00  0.0000E+00
    -17.429  0.0000E+00  0.0000E+00
    -17.424  0.0000E+00  0.0000E+00
    -17.420  0.0000E+00  0.0000E+00
    -17.415  0.0000E+00  0.0000E+00
    -17.411  0.0000E+00  0.0000E+00
    -17.406  0.0000E+00  0.0000E+00
    -17.401  0.0000E+00  0.0000E+00
    -17.397  0.0000E+00  0.0000E+00
    -17.392  0.0000E+00  0.0000E+00
    -17.388  0.0000E+00  0.0000E+00
    -17.383  0.0000E+00  0.0000E+00
    -17.378  0.0000E+00  0.0000E+00
    -17.374  0.0000E+00  0.0000E+00
    -17.369  0.0000E+00  0.0000E+00
    -17.365  0.0000E+00  0.0000E+00
    -17.360  0.0000E+00  0.0000E+00
    -17.356  0.0000E+00  0.0000E+00
    -17.351  0.0000E+00  0.0000E+00
    -17.346  0.0000E+00  0.0000E+00
    -17.342  0.0000E+00  0.0000E+00
    -17.337  0.0000E+00  0.0000E+00
    -17.333  0.0000E+00  0.0000E+00
    -17.328  0.0000E+00  0.0000E+00
    -17.323  0.0000E+00  0.0000E+00
    -17.319  0.0000E+00  0.0000E+00
    -17.314  0.0000E+00  0.0000E+00
    -17.310  0.0000E+00  0.0000E+00
    -17.305  0.0000E+00  0.0000E+00
    -17.300  0.0000E+00  0.0000E+00
    -17.296  0.0000E+00  0.0000E+00
    -17.291  0.0000E+00  0.0000E+00
    -17.287  0.0000E+00  0.0000E+00
    -17.282  0.0000E+00  0.0000E+00
    -17.277  0.0000E+00  0.0000E+00
    -17.273  0.0000E+00  0.0000E+00
    -17.268  0.0000E+00  0.0000E+00
    -17.264  0.0000E+00  0.0000E+00
    -17.259  0.0000E+00  0.0000E+00
    -17.254  0.0000E+00  0.0000E+00
    -17.250  0.0000E+00  0.0000E+00
    -17.245  0.0000E+00  0.0000E+00
    -17.241  0.0000E+00  0.0000E+00
    -17.236  0.0000E+00  0.0000E+00
    -17.231  0.0000E+00  0.0000E+00
    -17.227  0.0000E+00  0.0000E+00
    -17.222  0.0000E+00  0.0000E+00
    -17.218  0.0000E+00  0.0000E+00
    -17.213  0.0000E+00  0.0000E+00
    -17.209  0.0000E+00  0.0000E+00
    -17.204  0.0000E+00  0.0000E+00
    -17.199  0.0000E+00  0.0000E+00
    -17.195  0.0000E+00  0.0000E+00
    -17.190  0.0000E+00  0.0000E+00
    -17.186  0.0000E+00  0.0000E+00
    -17.181  0.0000E+00  0.0000E+00
    -17.176  0.0000E+00  0.0000E+00
    -17.172  0.0000E+00  0.0000E+00
    -17.167  0.0000E+00  0.0000E+00
    -17.163  0.0000E+00  0.0000E+00
    -17.158  0.0000E+00  0.0000E+00
    -17.153  0.0000E+00  0.0000E+00
    -17.149  0.0000E+00  0.0000E+00
    -17.144  0.0000E+00  0.0000E+00
    -17.140  0.0000E+00  0.0000E+00
    -17.135  0.0000E+00  0.0000E+00
    -17.130  0.0000E+00  0.0000E+00
    -17.126  0.0000E+00  0.0000E+00
    -17.121  0.0000E+00  0.0000E+00
    -17.117  0.0000E+00  0.0000E+00
    -17.112  0.0000E+00  0.0000E+00
    -17.107  0.0000E+00  0.0000E+00
    -17.103  0.0000E+00  0.0000E+00
    -17.098  0.0000E+00  0.0000E+00
    -17.094  0.0000E+00  0.0000E+00
    -17.089  0.0000E+00  0.0000E+00
    -17.084  0.0000E+00  0.0000E+00
    -17.080  0.0000E+00  0.0000E+00
    -17.075  0.0000E+00  0.0000E+00
    -17.071  0.0000E+00  0.0000E+00
    -17.066  0.0000E+00  0.0000E+00
    -17.062  0.0000E+00  0.0000E+00
    -17.057  0.0000E+00  0.0000E+00
    -17.052  0.0000E+00  0.0000E+00
    -17.048  0.0000E+00  0.0000E+00
    -17.043  0.0000E+00  0.0000E+00
    -17.039  0.0000E+00  0.0000E+00
    -17.034  0.0000E+00  0.0000E+00
    -17.029  0.0000E+00  0.0000E+00
    -17.025  0.0000E+00  0.0000E+00
    -17.020  0.0000E+00  0.0000E+00
    -17.016  0.0000E+00  0.0000E+00
    -17.011  0.0000E+00  0.0000E+00
    -17.006  0.0000E+00  0.0000E+00
    -17.002  0.0000E+00  0.0000E+00
    -16.997  0.0000E+00  0.0000E+00
    -16.993  0.0000E+00  0.0000E+00
    -16.988  0.0000E+00  0.0000E+00
    -16.983  0.0000E+00  0.0000E+00
    -16.979  0.0000E+00  0.0000E+00
    -16.974  0.0000E+00  0.0000E+00
    -16.970  0.0000E+00  0.0000E+00
    -16.965  0.0000E+00  0.0000E+00
    -16.960  0.0000E+00  0.0000E+00
    -16.956  0.0000E+00  0.0000E+00
    -16.951  0.0000E+00  0.0000E+00
    -16.947  0.0000E+00  0.0000E+00
    -16.942  0.0000E+00  0.0000E+00
    -16.937  0.0000E+00  0.0000E+00
    -16.933  0.0000E+00  0.0000E+00
    -16.928  0.0000E+00  0.0000E+00
    -16.924  0.0000E+00  0.0000E+00
    -16.919  0.0000E+00  0.0000E+00
    -16.915  0.0000E+00  0.0000E+00
    -16.910  0.0000E+00  0.0000E+00
    -16.905  0.0000E+00  0.0000E+00
    -16.901  0.0000E+00  0.0000E+00
    -16.896  0.0000E+00  0.0000E+00
    -16.892  0.0000E+00  0.0000E+00
    -16.887  0.0000E+00  0.0000E+00
    -16.882  0.0000E+00  0.0000E+00
    -16.878  0.0000E+00  0.0000E+00
    -16.873  0.0000E+00  0.0000E+00
    -16.869  0.0000E+00  0.0000E+00
    -16.864  0.0000E+00  0.0000E+00
    -16.859  0.0000E+00  0.0000E+00
    -16.855  0.0000E+00  0.0000E+00
    -16.850  0.0000E+00  0.0000E+00
    -16.846  0.0000E+00  0.0000E+00
    -16.841  0.0000E+00  0.0000E+00
    -16.836  0.0000E+00  0.0000E+00
    -16.832  0.0000E+00  0.0000E+00
    -16.827  0.0000E+00  0.0000E+00
    -16.823  0.0000E+00  0.0000E+00
    -16.818  0.0000E+00  0.0000E+00
    -16.813  0.0000E+00  0.0000E+00
    -16.809  0.0000E+00  0.0000E+00
    -16.804  0.0000E+00  0.0000E+00
    -16.800  0.0000E+00  0.0000E+00
    -16.795  0.0000E+00  0.0000E+00
    -16.790  0.0000E+00  0.0000E+00
    -16.786  0.0000E+00  0.0000E+00
    -16.781  0.0000E+00  0.0000E+00
    -16.777  0.0000E+00  0.0000E+00
    -16.772  0.0000E+00  0.0000E+00
    -16.768  0.0000E+00  0.0000E+00
    -16.763  0.0000E+00  0.0000E+00
    -16.758  0.0000E+00  0.0000E+00
    -16.754  0.0000E+00  0.0000E+00
    -16.749  0.0000E+00  0.0000E+00
    -16.745  0.0000E+00  0.0000E+00
    -16.740  0.0000E+00  0.0000E+00
    -16.735  0.0000E+00  0.0000E+00
    -16.731  0.0000E+00  0.0000E+00
    -16.726  0.0000E+00  0.0000E+00
    -16.722  0.0000E+00  0.0000E+00
    -16.717  0.0000E+00  0.0000E+00
    -16.712  0.0000E+00  0.0000E+00
    -16.708  0.0000E+00  0.0000E+00
    -16.703  0.0000E+00  0.0000E+00
    -16.699  0.0000E+00  0.0000E+00
    -16.694  0.0000E+00  0.0000E+00
    -16.689  0.0000E+00  0.0000E+00
    -16.685  0.0000E+00  0.0000E+00
    -16.680  0.0000E+00  0.0000E+00
    -16.676  0.0000E+00  0.0000E+00
    -16.671  0.0000E+00  0.0000E+00
    -16.666  0.0000E+00  0.0000E+00
    -16.662  0.0000E+00  0.0000E+00
    -16.657  0.0000E+00  0.0000E+00
    -16.653  0.0000E+00  0.0000E+00
    -16.648  0.0000E+00  0.0000E+00
    -16.643  0.0000E+00  0.0000E+00
    -16.639  0.0000E+00  0.0000E+00
    -16.634  0.0000E+00  0.0000E+00
    -16.630  0.0000E+00  0.0000E+00
    -16.625  0.0000E+00  0.0000E+00
    -16.621  0.0000E+00  0.0000E+00
    -16.616  0.0000E+00  0.0000E+00
    -16.611  0.0000E+00  0.0000E+00
    -16.607  0.0000E+00  0.0000E+00
    -16.602  0.0000E+00  0.0000E+00
    -16.598  0.0000E+00  0.0000E+00
    -16.593  0.0000E+00  0.0000E+00
    -16.588  0.0000E+00  0.0000E+00
    -16.584  0.0000E+00  0.0000E+00
    -16.579  0.0000E+00  0.0000E+00
    -16.575  0.0000E+00  0.0000E+00
    -16.570  0.0000E+00  0.0000E+00
    -16.565  0.0000E+00  0.0000E+00
    -16.561  0.0000E+00  0.0000E+00
    -16.556  0.0000E+00  0.0000E+00
    -16.552  0.0000E+00  0.0000E+00
    -16.547  0.0000E+00  0.0000E+00
    -16.542  0.0000E+00  0.0000E+00
    -16.538  0.0000E+00  0.0000E+00
    -16.533  0.1430E-15  0.6569E-18
    -16.529  0.3289E-13  0.1518E-15
    -16.524  0.4086E-11  0.1892E-13
    -16.519  0.3348E-09  0.1557E-11
    -16.515  0.1811E-07  0.8475E-10
    -16.510  0.6477E-06  0.3060E-08
    -16.506  0.1532E-04  0.7344E-07
    -16.501  0.2400E-03  0.1176E-05
    -16.497  0.2492E-02  0.1263E-04
    -16.492  0.1717E-01  0.9150E-04
    -16.487  0.7855E-01  0.4523E-03
    -16.483  0.2388E+00  0.1549E-02
    -16.478  0.4828E+00  0.3767E-02
    -16.474  0.6493E+00  0.6749E-02
    -16.469  0.5810E+00  0.9418E-02
    -16.464  0.3459E+00  0.1101E-01
    -16.460  0.1370E+00  0.1164E-01
    -16.455  0.3606E-01  0.1180E-01
    -16.451  0.6305E-02  0.1183E-01
    -16.446  0.7318E-03  0.1183E-01
    -16.441  0.5632E-04  0.1183E-01
    -16.437  0.2956E-05  0.1183E-01
    -16.432  0.3213E-05  0.1183E-01
    -16.428  0.7573E-04  0.1183E-01
    -16.423  0.1219E-02  0.1184E-01
    -16.418  0.1300E-01  0.1190E-01
    -16.414  0.9197E-01  0.1232E-01
    -16.409  0.4321E+00  0.1431E-01
    -16.405  0.1349E+01  0.2051E-01
    -16.400  0.2801E+01  0.3337E-01
    -16.395  0.3869E+01  0.5114E-01
    -16.391  0.3555E+01  0.6747E-01
    -16.386  0.2174E+01  0.7746E-01
    -16.382  0.8840E+00  0.8152E-01
    -16.377  0.2390E+00  0.8262E-01
    -16.372  0.4292E-01  0.8281E-01
    -16.368  0.5117E-02  0.8284E-01
    -16.363  0.4045E-03  0.8284E-01
    -16.359  0.2119E-04  0.8284E-01
    -16.354  0.7345E-06  0.8284E-01
    -16.350  0.1684E-07  0.8284E-01
    -16.345  0.2551E-09  0.8284E-01
    -16.340  0.2550E-11  0.8284E-01
    -16.336  0.1716E-13  0.8284E-01
    -16.331  0.0000E+00  0.8284E-01
    -16.327  0.0000E+00  0.8284E-01
    -16.322  0.0000E+00  0.8284E-01
    -16.317  0.0000E+00  0.8284E-01
    -16.313  0.0000E+00  0.8284E-01
    -16.308  0.0000E+00  0.8284E-01
    -16.304  0.0000E+00  0.8284E-01
    -16.299  0.8581E-15  0.8284E-01
    -16.294  0.2025E-12  0.8284E-01
    -16.290  0.2511E-10  0.8284E-01
    -16.285  0.2052E-08  0.8284E-01
    -16.281  0.1108E-06  0.8284E-01
    -16.276  0.3954E-05  0.8284E-01
    -16.271  0.9334E-04  0.8284E-01
    -16.267  0.1459E-02  0.8285E-01
    -16.262  0.1512E-01  0.8292E-01
    -16.258  0.1039E+00  0.8339E-01
    -16.253  0.4745E+00  0.8557E-01
    -16.248  0.1439E+01  0.9219E-01
    -16.244  0.2904E+01  0.1055E+00
    -16.239  0.3897E+01  0.1234E+00
    -16.235  0.3480E+01  0.1394E+00
    -16.230  0.2068E+01  0.1489E+00
    -16.225  0.8171E+00  0.1527E+00
    -16.221  0.2146E+00  0.1537E+00
    -16.216  0.3745E-01  0.1538E+00
    -16.212  0.4338E-02  0.1538E+00
    -16.207  0.3331E-03  0.1538E+00
    -16.203  0.1715E-04  0.1538E+00
    -16.198  0.7153E-05  0.1538E+00
    -16.193  0.1459E-03  0.1538E+00
    -16.189  0.2142E-02  0.1539E+00
    -16.184  0.2084E-01  0.1540E+00
    -16.180  0.1346E+00  0.1546E+00
    -16.175  0.5772E+00  0.1572E+00
    -16.170  0.1645E+01  0.1648E+00
    -16.166  0.3119E+01  0.1791E+00
    -16.161  0.3933E+01  0.1972E+00
    -16.157  0.3300E+01  0.2123E+00
    -16.152  0.1842E+01  0.2208E+00
    -16.147  0.6840E+00  0.2239E+00
    -16.143  0.1688E+00  0.2247E+00
    -16.138  0.2767E-01  0.2248E+00
    -16.134  0.3010E-02  0.2249E+00
    -16.129  0.2171E-03  0.2249E+00
    -16.124  0.1037E-04  0.2249E+00
    -16.120  0.3278E-06  0.2249E+00
    -16.115  0.6852E-08  0.2249E+00
    -16.111  0.9461E-10  0.2249E+00
    -16.106  0.8632E-12  0.2249E+00
    -16.101  0.5148E-14  0.2249E+00
    -16.097  0.0000E+00  0.2249E+00
    -16.092  0.0000E+00  0.2249E+00
    -16.088  0.0000E+00  0.2249E+00
    -16.083  0.0000E+00  0.2249E+00
    -16.078  0.0000E+00  0.2249E+00
    -16.074  0.0000E+00  0.2249E+00
    -16.069  0.0000E+00  0.2249E+00
    -16.065  0.0000E+00  0.2249E+00
    -16.060  0.0000E+00  0.2249E+00
    -16.056  0.0000E+00  0.2249E+00
    -16.051  0.0000E+00  0.2249E+00
    -16.046  0.0000E+00  0.2249E+00
    -16.042  0.0000E+00  0.2249E+00
    -16.037  0.0000E+00  0.2249E+00
    -16.033  0.0000E+00  0.2249E+00
    -16.028  0.0000E+00  0.2249E+00
    -16.023  0.0000E+00  0.2249E+00
    -16.019  0.0000E+00  0.2249E+00
    -16.014  0.0000E+00  0.2249E+00
    -16.010  0.0000E+00  0.2249E+00
    -16.005  0.0000E+00  0.2249E+00
    -16.000  0.0000E+00  0.2249E+00
    -15.996  0.0000E+00  0.2249E+00
    -15.991  0.3432E-14  0.2249E+00
    -15.987  0.4960E-12  0.2249E+00
    -15.982  0.6057E-10  0.2249E+00
    -15.977  0.4868E-08  0.2249E+00
    -15.973  0.2584E-06  0.2249E+00
    -15.968  0.9068E-05  0.2249E+00
    -15.964  0.2105E-03  0.2249E+00
    -15.959  0.3236E-02  0.2249E+00
    -15.954  0.3297E-01  0.2250E+00
    -15.950  0.2229E+00  0.2260E+00
    -15.945  0.1001E+01  0.2306E+00
    -15.941  0.2986E+01  0.2444E+00
    -15.936  0.5925E+01  0.2716E+00
    -15.931  0.7821E+01  0.3075E+00
    -15.927  0.6869E+01  0.3391E+00
    -15.922  0.4014E+01  0.3575E+00
    -15.918  0.1560E+01  0.3647E+00
    -15.913  0.4030E+00  0.3665E+00
    -15.909  0.6916E-01  0.3668E+00
    -15.904  0.7877E-02  0.3669E+00
    -15.899  0.5949E-03  0.3669E+00
    -15.895  0.2976E-04  0.3669E+00
    -15.890  0.9855E-06  0.3669E+00
    -15.886  0.2158E-07  0.3669E+00
    -15.881  0.3121E-09  0.3669E+00
    -15.876  0.2979E-11  0.3669E+00
    -15.872  0.2059E-13  0.3669E+00
    -15.867  0.0000E+00  0.3669E+00
    -15.863  0.0000E+00  0.3669E+00
    -15.858  0.0000E+00  0.3669E+00
    -15.853  0.0000E+00  0.3669E+00
    -15.849  0.0000E+00  0.3669E+00
    -15.844  0.0000E+00  0.3669E+00
    -15.840  0.2574E-14  0.3669E+00
    -15.835  0.5097E-12  0.3669E+00
    -15.830  0.5843E-10  0.3669E+00
    -15.826  0.4424E-08  0.3669E+00
    -15.821  0.2212E-06  0.3669E+00
    -15.817  0.7314E-05  0.3669E+00
    -15.812  0.1600E-03  0.3669E+00
    -15.807  0.2318E-02  0.3669E+00
    -15.803  0.2226E-01  0.3670E+00
    -15.798  0.1419E+00  0.3676E+00
    -15.794  0.6006E+00  0.3704E+00
    -15.789  0.1690E+01  0.3782E+00
    -15.785  0.3162E+01  0.3927E+00
    -15.780  0.3936E+01  0.4108E+00
    -15.775  0.3260E+01  0.4257E+00
    -15.771  0.1796E+01  0.4340E+00
    -15.766  0.6582E+00  0.4370E+00
    -15.762  0.1603E+00  0.4377E+00
    -15.757  0.2594E-01  0.4379E+00
    -15.752  0.2785E-02  0.4379E+00
    -15.748  0.1982E-03  0.4379E+00
    -15.743  0.9346E-05  0.4379E+00
    -15.739  0.2916E-06  0.4379E+00
    -15.734  0.6014E-08  0.4379E+00
    -15.729  0.8194E-10  0.4379E+00
    -15.725  0.7379E-12  0.4379E+00
    -15.720  0.3432E-14  0.4379E+00
    -15.716  0.0000E+00  0.4379E+00
    -15.711  0.0000E+00  0.4379E+00
    -15.706  0.0000E+00  0.4379E+00
    -15.702  0.0000E+00  0.4379E+00
    -15.697  0.0000E+00  0.4379E+00
    -15.693  0.0000E+00  0.4379E+00
    -15.688  0.0000E+00  0.4379E+00
    -15.683  0.0000E+00  0.4379E+00
    -15.679  0.0000E+00  0.4379E+00
    -15.674  0.0000E+00  0.4379E+00
    -15.670  0.0000E+00  0.4379E+00
    -15.665  0.0000E+00  0.4379E+00
    -15.660  0.0000E+00  0.4379E+00
    -15.656  0.0000E+00  0.4379E+00
    -15.651  0.0000E+00  0.4379E+00
    -15.647  0.0000E+00  0.4379E+00
    -15.642  0.0000E+00  0.4379E+00
    -15.638  0.0000E+00  0.4379E+00
    -15.633  0.0000E+00  0.4379E+00
    -15.628  0.0000E+00  0.4379E+00
    -15.624  0.0000E+00  0.4379E+00
    -15.619  0.0000E+00  0.4379E+00
    -15.615  0.2574E-14  0.4379E+00
    -15.610  0.4239E-12  0.4379E+00
    -15.605  0.4938E-10  0.4379E+00
    -15.601  0.3797E-08  0.4379E+00
    -15.596  0.1928E-06  0.4379E+00
    -15.592  0.6473E-05  0.4379E+00
    -15.587  0.1438E-03  0.4379E+00
    -15.582  0.2115E-02  0.4379E+00
    -15.578  0.2062E-01  0.4380E+00
    -15.573  0.1335E+00  0.4386E+00
    -15.569  0.5735E+00  0.4412E+00
    -15.564  0.1638E+01  0.4487E+00
    -15.559  0.3112E+01  0.4630E+00
    -15.555  0.3932E+01  0.4811E+00
    -15.550  0.3306E+01  0.4963E+00
    -15.546  0.1850E+01  0.5048E+00
    -15.541  0.6881E+00  0.5080E+00
    -15.536  0.1702E+00  0.5087E+00
    -15.532  0.2795E-01  0.5089E+00
    -15.527  0.3047E-02  0.5089E+00
    -15.523  0.2212E-03  0.5089E+00
    -15.518  0.4018E-04  0.5089E+00
    -15.513  0.5930E-03  0.5089E+00
    -15.509  0.7851E-02  0.5089E+00
    -15.504  0.6897E-01  0.5092E+00
    -15.500  0.4021E+00  0.5111E+00
    -15.495  0.1557E+01  0.5182E+00
    -15.491  0.4010E+01  0.5367E+00
    -15.486  0.6866E+01  0.5682E+00
    -15.481  0.7822E+01  0.6041E+00
    -15.477  0.5929E+01  0.6314E+00
    -15.472  0.2990E+01  0.6451E+00
    -15.468  0.1003E+01  0.6497E+00
    -15.463  0.2234E+00  0.6507E+00
    -15.458  0.3307E-01  0.6509E+00
    -15.454  0.3247E-02  0.6509E+00
    -15.449  0.2113E-03  0.6509E+00
    -15.445  0.9109E-05  0.6509E+00
    -15.440  0.2598E-06  0.6509E+00
    -15.435  0.4896E-08  0.6509E+00
    -15.431  0.6095E-10  0.6509E+00
    -15.426  0.4977E-12  0.6509E+00
    -15.422  0.3432E-14  0.6509E+00
    -15.417  0.0000E+00  0.6509E+00
    -15.412  0.0000E+00  0.6509E+00
    -15.408  0.0000E+00  0.6509E+00
    -15.403  0.0000E+00  0.6509E+00
    -15.399  0.0000E+00  0.6509E+00
    -15.394  0.0000E+00  0.6509E+00
    -15.389  0.0000E+00  0.6509E+00
    -15.385  0.0000E+00  0.6509E+00
    -15.380  0.0000E+00  0.6509E+00
    -15.376  0.0000E+00  0.6509E+00
    -15.371  0.0000E+00  0.6509E+00
    -15.366  0.0000E+00  0.6509E+00
    -15.362  0.0000E+00  0.6509E+00
    -15.357  0.0000E+00  0.6509E+00
    -15.353  0.0000E+00  0.6509E+00
    -15.348  0.0000E+00  0.6509E+00
    -15.344  0.0000E+00  0.6509E+00
    -15.339  0.0000E+00  0.6509E+00
    -15.334  0.0000E+00  0.6509E+00
    -15.330  0.0000E+00  0.6509E+00
    -15.325  0.4462E-13  0.6509E+00
    -15.321  0.6206E-11  0.6509E+00
    -15.316  0.5745E-09  0.6509E+00
    -15.311  0.3511E-07  0.6509E+00
    -15.307  0.1418E-05  0.6509E+00
    -15.302  0.3787E-04  0.6509E+00
    -15.298  0.6695E-03  0.6509E+00
    -15.293  0.7845E-02  0.6509E+00
    -15.288  0.6096E-01  0.6512E+00
    -15.284  0.3145E+00  0.6527E+00
    -15.279  0.1078E+01  0.6576E+00
    -15.275  0.2457E+01  0.6689E+00
    -15.270  0.3725E+01  0.6860E+00
    -15.265  0.3757E+01  0.7033E+00
    -15.261  0.2521E+01  0.7148E+00
    -15.256  0.1126E+01  0.7200E+00
    -15.252  0.3341E+00  0.7215E+00
    -15.247  0.6589E-01  0.7219E+00
    -15.242  0.8628E-02  0.7219E+00
    -15.238  0.7493E-03  0.7219E+00
    -15.233  0.4312E-04  0.7219E+00
    -15.229  0.1643E-05  0.7219E+00
    -15.224  0.4140E-07  0.7219E+00
    -15.219  0.6895E-09  0.7219E+00
    -15.215  0.7582E-11  0.7219E+00
    -15.210  0.5492E-13  0.7219E+00
    -15.206  0.0000E+00  0.7219E+00
    -15.201  0.0000E+00  0.7219E+00
    -15.197  0.0000E+00  0.7219E+00
    -15.192  0.0000E+00  0.7219E+00
    -15.187  0.0000E+00  0.7219E+00
    -15.183  0.0000E+00  0.7219E+00
    -15.178  0.0000E+00  0.7219E+00
    -15.174  0.0000E+00  0.7219E+00
    -15.169  0.0000E+00  0.7219E+00
    -15.164  0.0000E+00  0.7219E+00
    -15.160  0.0000E+00  0.7219E+00
    -15.155  0.0000E+00  0.7219E+00
    -15.151  0.0000E+00  0.7219E+00
    -15.146  0.0000E+00  0.7219E+00
    -15.141  0.0000E+00  0.7219E+00
    -15.137  0.0000E+00  0.7219E+00
    -15.132  0.0000E+00  0.7219E+00
    -15.128  0.0000E+00  0.7219E+00
    -15.123  0.0000E+00  0.7219E+00
    -15.118  0.0000E+00  0.7219E+00
    -15.114  0.0000E+00  0.7219E+00
    -15.109  0.1716E-14  0.7219E+00
    -15.105  0.2540E-12  0.7219E+00
    -15.100  0.3266E-10  0.7219E+00
    -15.095  0.2775E-08  0.7219E+00
    -15.091  0.1557E-06  0.7219E+00
    -15.086  0.5773E-05  0.7219E+00
    -15.082  0.1416E-03  0.7219E+00
    -15.077  0.2300E-02  0.7219E+00
    -15.072  0.2476E-01  0.7220E+00
    -15.068  0.1768E+00  0.7228E+00
    -15.063  0.8385E+00  0.7267E+00
    -15.059  0.2642E+01  0.7388E+00
    -15.054  0.5536E+01  0.7642E+00
    -15.050  0.7716E+01  0.7997E+00
    -15.045  0.7156E+01  0.8326E+00
    -15.040  0.4415E+01  0.8528E+00
    -15.036  0.1812E+01  0.8612E+00
    -15.031  0.4944E+00  0.8634E+00
    -15.027  0.8962E-01  0.8639E+00
    -15.022  0.1078E-01  0.8639E+00
    -15.017  0.8604E-03  0.8639E+00
    -15.013  0.4548E-04  0.8639E+00
    -15.008  0.1591E-05  0.8639E+00
    -15.004  0.3682E-07  0.8639E+00
    -14.999  0.5630E-09  0.8639E+00
    -14.994  0.5680E-11  0.8639E+00
    -14.990  0.3776E-13  0.8639E+00
    -14.985  0.0000E+00  0.8639E+00
    -14.981  0.0000E+00  0.8639E+00
    -14.976  0.1424E-12  0.8639E+00
    -14.971  0.1922E-10  0.8639E+00
    -14.967  0.1711E-08  0.8639E+00
    -14.962  0.1006E-06  0.8639E+00
    -14.958  0.3911E-05  0.8639E+00
    -14.953  0.1006E-03  0.8639E+00
    -14.948  0.1711E-02  0.8639E+00
    -14.944  0.1930E-01  0.8640E+00
    -14.939  0.1444E+00  0.8647E+00
    -14.935  0.7173E+00  0.8680E+00
    -14.930  0.2367E+01  0.8788E+00
    -14.926  0.5195E+01  0.9027E+00
    -14.921  0.7584E+01  0.9375E+00
    -14.916  0.7367E+01  0.9714E+00
    -14.912  0.4761E+01  0.9932E+00
    -14.907  0.2047E+01  0.1003E+01
    -14.903  0.5849E+00  0.1005E+01
    -14.898  0.1111E+00  0.1006E+01
    -14.893  0.1400E-01  0.1006E+01
    -14.889  0.1170E-02  0.1006E+01
    -14.884  0.6483E-04  0.1006E+01
    -14.880  0.2378E-05  0.1006E+01
    -14.875  0.5766E-07  0.1006E+01
    -14.870  0.9240E-09  0.1006E+01
    -14.866  0.9775E-11  0.1006E+01
    -14.861  0.6865E-13  0.1006E+01
    -14.857  0.0000E+00  0.1006E+01
    -14.852  0.0000E+00  0.1006E+01
    -14.847  0.0000E+00  0.1006E+01
    -14.843  0.0000E+00  0.1006E+01
    -14.838  0.0000E+00  0.1006E+01
    -14.834  0.0000E+00  0.1006E+01
    -14.829  0.0000E+00  0.1006E+01
    -14.824  0.0000E+00  0.1006E+01
    -14.820  0.0000E+00  0.1006E+01
    -14.815  0.0000E+00  0.1006E+01
    -14.811  0.0000E+00  0.1006E+01
    -14.806  0.0000E+00  0.1006E+01
    -14.801  0.0000E+00  0.1006E+01
    -14.797  0.0000E+00  0.1006E+01
    -14.792  0.0000E+00  0.1006E+01
    -14.788  0.0000E+00  0.1006E+01
    -14.783  0.0000E+00  0.1006E+01
    -14.779  0.0000E+00  0.1006E+01
    -14.774  0.0000E+00  0.1006E+01
    -14.769  0.0000E+00  0.1006E+01
    -14.765  0.0000E+00  0.1006E+01
    -14.760  0.0000E+00  0.1006E+01
    -14.756  0.0000E+00  0.1006E+01
    -14.751  0.0000E+00  0.1006E+01
    -14.746  0.0000E+00  0.1006E+01
    -14.742  0.0000E+00  0.1006E+01
    -14.737  0.0000E+00  0.1006E+01
    -14.733  0.0000E+00  0.1006E+01
    -14.728  0.1630E-13  0.1006E+01
    -14.723  0.2430E-11  0.1006E+01
    -14.719  0.2441E-09  0.1006E+01
    -14.714  0.1618E-07  0.1006E+01
    -14.710  0.7088E-06  0.1006E+01
    -14.705  0.2053E-04  0.1006E+01
    -14.700  0.3936E-03  0.1006E+01
    -14.696  0.4999E-02  0.1006E+01
    -14.691  0.4210E-01  0.1006E+01
    -14.687  0.2354E+00  0.1007E+01
    -14.682  0.8743E+00  0.1011E+01
    -14.677  0.2159E+01  0.1021E+01
    -14.673  0.3545E+01  0.1037E+01
    -14.668  0.3873E+01  0.1055E+01
    -14.664  0.2816E+01  0.1068E+01
    -14.659  0.1362E+01  0.1074E+01
    -14.654  0.4380E+00  0.1076E+01
    -14.650  0.9360E-01  0.1077E+01
    -14.645  0.1328E-01  0.1077E+01
    -14.641  0.1250E-02  0.1077E+01
    -14.636  0.7802E-04  0.1077E+01
    -14.632  0.3224E-05  0.1077E+01
    -14.627  0.8811E-07  0.1077E+01
    -14.622  0.1592E-08  0.1077E+01
    -14.618  0.1899E-10  0.1077E+01
    -14.613  0.1510E-12  0.1077E+01
    -14.609  0.0000E+00  0.1077E+01
    -14.604  0.0000E+00  0.1077E+01
    -14.599  0.0000E+00  0.1077E+01
    -14.595  0.0000E+00  0.1077E+01
    -14.590  0.0000E+00  0.1077E+01
    -14.586  0.0000E+00  0.1077E+01
    -14.581  0.0000E+00  0.1077E+01
    -14.576  0.0000E+00  0.1077E+01
    -14.572  0.0000E+00  0.1077E+01
    -14.567  0.0000E+00  0.1077E+01
    -14.563  0.0000E+00  0.1077E+01
    -14.558  0.1030E-13  0.1077E+01
    -14.553  0.1664E-11  0.1077E+01
    -14.549  0.1726E-09  0.1077E+01
    -14.544  0.1182E-07  0.1077E+01
    -14.540  0.5349E-06  0.1077E+01
    -14.535  0.1600E-04  0.1077E+01
    -14.530  0.3169E-03  0.1077E+01
    -14.526  0.4157E-02  0.1077E+01
    -14.521  0.3616E-01  0.1077E+01
    -14.517  0.2087E+00  0.1078E+01
    -14.512  0.8005E+00  0.1082E+01
    -14.507  0.2041E+01  0.1091E+01
    -14.503  0.3460E+01  0.1107E+01
    -14.498  0.3903E+01  0.1125E+01
    -14.494  0.2930E+01  0.1138E+01
    -14.489  0.1463E+01  0.1145E+01
    -14.485  0.4860E+00  0.1147E+01
    -14.480  0.1107E+00  0.1148E+01
    -14.475  0.5101E-01  0.1148E+01
    -14.471  0.2370E+00  0.1149E+01
    -14.466  0.1044E+01  0.1154E+01
    -14.462  0.3073E+01  0.1168E+01
    -14.457  0.6017E+01  0.1196E+01
    -14.452  0.7838E+01  0.1232E+01
    -14.448  0.6794E+01  0.1263E+01
    -14.443  0.3918E+01  0.1281E+01
    -14.439  0.1503E+01  0.1288E+01
    -14.434  0.3831E+00  0.1290E+01
    -14.429  0.6489E-01  0.1290E+01
    -14.425  0.7293E-02  0.1290E+01
    -14.420  0.5435E-03  0.1290E+01
    -14.416  0.2683E-04  0.1290E+01
    -14.411  0.8767E-06  0.1290E+01
    -14.406  0.1894E-07  0.1290E+01
    -14.402  0.2703E-09  0.1290E+01
    -14.397  0.2547E-11  0.1290E+01
    -14.393  0.1373E-13  0.1290E+01
    -14.388  0.0000E+00  0.1290E+01
    -14.383  0.0000E+00  0.1290E+01
    -14.379  0.3261E-13  0.1290E+01
    -14.374  0.5047E-11  0.1290E+01
    -14.370  0.5051E-09  0.1290E+01
    -14.365  0.3338E-07  0.1290E+01
    -14.360  0.1457E-05  0.1290E+01
    -14.356  0.4208E-04  0.1290E+01
    -14.351  0.8041E-03  0.1290E+01
    -14.347  0.1018E-01  0.1290E+01
    -14.342  0.8548E-01  0.1290E+01
    -14.338  0.4764E+00  0.1293E+01
    -14.333  0.1764E+01  0.1301E+01
    -14.328  0.4341E+01  0.1321E+01
    -14.324  0.7106E+01  0.1353E+01
    -14.319  0.7739E+01  0.1389E+01
    -14.315  0.5609E+01  0.1415E+01
    -14.310  0.2704E+01  0.1427E+01
    -14.305  0.8668E+00  0.1431E+01
    -14.301  0.1847E+00  0.1432E+01
    -14.296  0.2612E-01  0.1432E+01
    -14.292  0.2451E-02  0.1432E+01
    -14.287  0.1525E-03  0.1432E+01
    -14.282  0.6279E-05  0.1432E+01
    -14.278  0.1711E-06  0.1432E+01
    -14.273  0.3081E-08  0.1432E+01
    -14.269  0.3663E-10  0.1432E+01
    -14.264  0.2883E-12  0.1432E+01
    -14.259  0.0000E+00  0.1432E+01
    -14.255  0.0000E+00  0.1432E+01
    -14.250  0.0000E+00  0.1432E+01
    -14.246  0.0000E+00  0.1432E+01
    -14.241  0.0000E+00  0.1432E+01
    -14.236  0.0000E+00  0.1432E+01
    -14.232  0.0000E+00  0.1432E+01
    -14.227  0.0000E+00  0.1432E+01
    -14.223  0.0000E+00  0.1432E+01
    -14.218  0.0000E+00  0.1432E+01
    -14.214  0.0000E+00  0.1432E+01
    -14.209  0.0000E+00  0.1432E+01
    -14.204  0.1716E-14  0.1432E+01
    -14.200  0.2969E-12  0.1432E+01
    -14.195  0.3567E-10  0.1432E+01
    -14.191  0.2825E-08  0.1432E+01
    -14.186  0.1477E-06  0.1432E+01
    -14.181  0.5108E-05  0.1432E+01
    -14.177  0.1168E-03  0.1432E+01
    -14.172  0.1770E-02  0.1432E+01
    -14.168  0.1777E-01  0.1432E+01
    -14.163  0.1184E+00  0.1433E+01
    -14.158  0.5240E+00  0.1435E+01
    -14.154  0.1541E+01  0.1442E+01
    -14.149  0.3013E+01  0.1456E+01
    -14.145  0.3920E+01  0.1474E+01
    -14.140  0.3393E+01  0.1490E+01
    -14.135  0.1954E+01  0.1498E+01
    -14.131  0.7484E+00  0.1502E+01
    -14.126  0.1906E+00  0.1503E+01
    -14.122  0.3223E-01  0.1503E+01
    -14.117  0.3617E-02  0.1503E+01
    -14.112  0.2692E-03  0.1503E+01
    -14.108  0.1327E-04  0.1503E+01
    -14.103  0.4330E-06  0.1503E+01
    -14.099  0.9341E-08  0.1503E+01
    -14.094  0.1331E-09  0.1503E+01
    -14.089  0.1253E-11  0.1503E+01
    -14.085  0.6865E-14  0.1503E+01
    -14.080  0.0000E+00  0.1503E+01
    -14.076  0.0000E+00  0.1503E+01
    -14.071  0.0000E+00  0.1503E+01
    -14.067  0.0000E+00  0.1503E+01
    -14.062  0.0000E+00  0.1503E+01
    -14.057  0.0000E+00  0.1503E+01
    -14.053  0.0000E+00  0.1503E+01
    -14.048  0.4290E-14  0.1503E+01
    -14.044  0.7062E-12  0.1503E+01
    -14.039  0.7878E-10  0.1503E+01
    -14.034  0.5803E-08  0.1503E+01
    -14.030  0.2824E-06  0.1503E+01
    -14.025  0.9084E-05  0.1503E+01
    -14.021  0.1934E-03  0.1503E+01
    -14.016  0.2726E-02  0.1503E+01
    -14.011  0.2548E-01  0.1503E+01
    -14.007  0.1581E+00  0.1504E+01
    -14.002  0.6513E+00  0.1507E+01
    -13.998  0.1784E+01  0.1515E+01
    -13.993  0.3248E+01  0.1530E+01
    -13.988  0.3936E+01  0.1548E+01
    -13.984  0.3173E+01  0.1563E+01
    -13.979  0.1702E+01  0.1570E+01
    -13.975  0.6072E+00  0.1573E+01
    -13.970  0.1440E+00  0.1574E+01
    -13.965  0.2267E-01  0.1574E+01
    -13.961  0.2368E-02  0.1574E+01
    -13.956  0.1641E-03  0.1574E+01
    -13.952  0.7949E-05  0.1574E+01
    -13.947  0.1427E-04  0.1574E+01
    -13.942  0.3087E-03  0.1574E+01
    -13.938  0.4496E-02  0.1574E+01