 running   16 mpi-ranks, on    1 nodes
 distrk:  each k-point on   16 cores,    1 groups
 distr:  one band on    1 cores,   16 groups
 vasp.6.4.2 20Jul23 (build Nov 14 2023 12:59:38) complex                        
  
 POSCAR found type information on POSCAR As
 POSCAR found :  1 types and       2 ions
 Reading from existing POTCAR
 scaLAPACK will be used
 -----------------------------------------------------------------------------
|                                                                             |
|           W    W    AA    RRRRR   N    N  II  N    N   GGGG   !!!           |
|           W    W   A  A   R    R  NN   N  II  NN   N  G    G  !!!           |
|           W    W  A    A  R    R  N N  N  II  N N  N  G       !!!           |
|           W WW W  AAAAAA  RRRRR   N  N N  II  N  N N  G  GGG   !            |
|           WW  WW  A    A  R   R   N   NN  II  N   NN  G    G                |
|           W    W  A    A  R    R  N    N  II  N    N   GGGG   !!!           |
|                                                                             |
|     For optimal performance we recommend to set                             |
|       NCORE = 2 up to number-of-cores-per-socket                            |
|     NCORE specifies how many cores store one orbital (NPAR=cpu/NCORE).      |
|     This setting can greatly improve the performance of VASP for DFT.       |
|     The default, NCORE=1 might be grossly inefficient on modern             |
|     multi-core architectures or massively parallel machines. Do your        |
|     own testing! More info at https://www.vasp.at/wiki/index.php/NCORE      |
|     Unfortunately you need to use the default for GW and RPA                |
|     calculations (for HF NCORE is supported but not extensively tested      |
|     yet).                                                                   |
|                                                                             |
 -----------------------------------------------------------------------------

 Reading from existing POTCAR
 LDA part: xc-table for Pade appr. of Perdew
 -----------------------------------------------------------------------------
|                                                                             |
|           W    W    AA    RRRRR   N    N  II  N    N   GGGG   !!!           |
|           W    W   A  A   R    R  NN   N  II  NN   N  G    G  !!!           |
|           W    W  A    A  R    R  N N  N  II  N N  N  G       !!!           |
|           W WW W  AAAAAA  RRRRR   N  N N  II  N  N N  G  GGG   !            |
|           WW  WW  A    A  R   R   N   NN  II  N   NN  G    G                |
|           W    W  A    A  R    R  N    N  II  N    N   GGGG   !!!           |
|                                                                             |
|     The following INCAR tags have not been used:                            |
|     In line 28: STRESSTYPE                                                  |
|     Please check whether the tags are spelled correctly, have the           |
|     correct format, and do not appear multiple times in the file.           |
|                                                                             |
 -----------------------------------------------------------------------------

 POSCAR, INCAR and KPOINTS ok, starting setup
 FFT: planning ... GRIDC
 FFT: planning ... GRID_SOFT
 FFT: planning ... GRID
 WAVECAR not read
 entering main loop
       N       E                     dE             d eps       ncg     rms          rms(c)
DAV:   1     0.224404752749E+02    0.22440E+02   -0.25393E+03   672   0.231E+02
DAV:   2    -0.850843945278E+01   -0.30949E+02   -0.30080E+02   944   0.500E+01
DAV:   3    -0.937542767605E+01   -0.86699E+00   -0.86699E+00   800   0.125E+01
DAV:   4    -0.940224200045E+01   -0.26814E-01   -0.26814E-01  1200   0.186E+00
DAV:   5    -0.940231682104E+01   -0.74821E-04   -0.74821E-04   880   0.795E-02
DAV:   6    -0.940231815623E+01   -0.13352E-05   -0.13352E-05  1168   0.732E-03
DAV:   7    -0.940231815821E+01   -0.19832E-08   -0.20727E-08  1008   0.312E-04
DAV:   8    -0.940231815833E+01   -0.11300E-09   -0.21411E-10  1040   0.281E-05
DAV:   9    -0.940231815832E+01    0.44338E-11   -0.35784E-11   624   0.775E-06
DAV:  10    -0.940231815831E+01    0.67075E-11   -0.16534E-11   560   0.475E-06
DAV:  11    -0.940231815831E+01    0.54001E-11   -0.70149E-12   464   0.313E-06
DAV:  12    -0.940231815831E+01    0.33538E-11   -0.37906E-12   448   0.213E-06    0.193E+00
DAV:  13    -0.938772482432E+01    0.14593E-01   -0.31608E-03   928   0.164E-01    0.172E+00
DAV:  14    -0.934530538735E+01    0.42419E-01   -0.18452E-01  1024   0.124E+00    0.224E-01
DAV:  15    -0.934155510845E+01    0.37503E-02   -0.18385E-02  1072   0.382E-01    0.110E-01
DAV:  16    -0.934167473808E+01   -0.11963E-03   -0.55270E-04   800   0.974E-02    0.489E-02
DAV:  17    -0.934157473303E+01    0.10001E-03   -0.60940E-04  1040   0.788E-02    0.256E-02
DAV:  18    -0.934158119533E+01   -0.64623E-05   -0.74327E-05   800   0.271E-02    0.596E-03
DAV:  19    -0.934158094635E+01    0.24898E-06   -0.46232E-06   912   0.915E-03
   1 F= -.93415809E+01 E0= -.93415809E+01  d E =-.325070E-11
 Linear response reoptimize wavefunctions to high precision
DAV:   1    -0.934158134026E+01   -0.39391E-06   -0.15454E-06   752   0.478E-03
DAV:   2    -0.934158134248E+01   -0.22219E-08   -0.22216E-08  1184   0.632E-04
DAV:   3    -0.934158134249E+01   -0.10004E-10   -0.96430E-11   832   0.236E-05
 Linear response DOF=           2
 Linear response progress:
  Degree of freedom:   1/  2
       N       E                     dE             d eps       ncg     rms          rms(c)
RMM:   1    -0.370236900012E-01   -0.37024E-01    0.26075E-02  6926   0.753E-01
RMM:   2    -0.358444060800E-01    0.11793E-02   -0.22290E-03  4720   0.190E-01    0.536E-02
RMM:   3    -0.358736365024E-01   -0.29230E-04   -0.10160E-04  4207   0.428E-02    0.472E-02
RMM:   4    -0.358616487110E-01    0.11988E-04   -0.34786E-05  4981   0.265E-02    0.793E-03
RMM:   5    -0.358664404740E-01   -0.47918E-05   -0.11995E-06  4519   0.505E-03    0.512E-03
RMM:   6    -0.358496461715E-01    0.16794E-04   -0.17867E-06  4520   0.460E-03    0.107E-03
RMM:   7    -0.358474358281E-01    0.22103E-05   -0.64398E-08  4978   0.892E-04    0.794E-04
RMM:   8    -0.358439626589E-01    0.34732E-05   -0.20657E-08  4736   0.722E-04    0.842E-05
RMM:   9    -0.358439354897E-01    0.27169E-07   -0.33762E-10  5446   0.102E-04    0.725E-05
 first order change of Fermi-energy  6.897401465089104E-004
 force on displaced ion       1 direction 1 :  -7.691  -0.000   0.000
 Linear response progress:
  Degree of freedom:   2/  2
       N       E                     dE             d eps       ncg     rms          rms(c)
RMM:   1    -0.626896597824E-01   -0.62690E-01    0.31601E-02  1611   0.772E-01
RMM:   2    -0.613520863205E-01    0.13376E-02   -0.28883E-03  1181   0.211E-01    0.699E-02
RMM:   3    -0.612449251522E-01    0.10716E-03   -0.14452E-04  1035   0.520E-02    0.600E-02
RMM:   4    -0.607422558439E-01    0.50267E-03   -0.41820E-04  1237   0.598E-02    0.207E-02
RMM:   5    -0.606940667054E-01    0.48189E-04   -0.35373E-05  1179   0.191E-02    0.143E-02
RMM:   6    -0.607170724504E-01   -0.23006E-04   -0.66914E-06  1205   0.789E-03    0.827E-03
RMM:   7    -0.607370612667E-01   -0.19989E-04   -0.36021E-06  1326   0.670E-03    0.253E-03
RMM:   8    -0.607441125550E-01   -0.70513E-05   -0.31894E-07  1240   0.213E-03    0.184E-03
RMM:   9    -0.607427204965E-01    0.13921E-05   -0.33713E-07  1241   0.188E-03    0.673E-04
RMM:  10    -0.607466402644E-01   -0.39198E-05   -0.63308E-08  1220   0.802E-04    0.249E-04
RMM:  11    -0.607466370893E-01    0.31751E-08   -0.27219E-09  1336   0.205E-04    0.106E-04
 first order change of Fermi-energy  -5.10661410970612     
 force on displaced ion       1 direction 3 :   0.000  -0.000 -12.807
 Linear response finished
