PROCAR new format
# of k-points:   21         # of bands:   16         # of ions:    2

 k-point     1 :    0.00000000 0.00000000 0.00000000     weight = 0.00591716

band     1 # energy  -16.47478917 # occ.  2.00000000
 
ion      s      p      d    tot
    1  0.268  0.011  0.000  0.279
    2  0.268  0.011  0.000  0.279
tot    0.536  0.021  0.000  0.557
 
band     2 # energy  -10.18703481 # occ.  2.00000000
 
ion      s      p      d    tot
    1  0.284  0.025  0.001  0.310
    2  0.284  0.025  0.001  0.310
tot    0.568  0.050  0.001  0.619
 
band     3 # energy   -3.56280857 # occ.  2.00000000
 
ion      s      p      d    tot
    1  0.006  0.194  0.002  0.201
    2  0.006  0.194  0.002  0.201
tot    0.011  0.387  0.003  0.401
 
band     4 # energy   -3.01383817 # occ.  1.99999999
 
ion      s      p      d    tot
    1  0.000  0.283  0.014  0.298
    2  0.000  0.283  0.014  0.298
tot    0.000  0.567  0.028  0.595
 
band     5 # energy   -3.01383713 # occ.  1.99999999
 
ion      s      p      d    tot
    1  0.000  0.283  0.014  0.298
    2  0.000  0.283  0.014  0.298
tot    0.000  0.567  0.028  0.595
 
band     6 # energy   -1.09175247 # occ.  0.00000000
 
ion      s      p      d    tot
    1  0.144  0.118  0.011  0.273
    2  0.144  0.118  0.011  0.273
tot    0.288  0.237  0.021  0.546
 
band     7 # energy    0.47717618 # occ.  0.00000000
 
ion      s      p      d    tot
    1  0.000  0.260  0.019  0.279
    2  0.000  0.260  0.019  0.279
tot    0.000  0.521  0.037  0.558
 
band     8 # energy    0.47717715 # occ.  0.00000000
 
ion      s      p      d    tot
    1  0.000  0.260  0.019  0.279
    2  0.000  0.260  0.019  0.279
tot    0.000  0.521  0.037  0.558
 
band     9 # energy    1.90335476 # occ.  0.00000000
 
ion      s      p      d    tot
    1  0.000  0.014  0.012  0.026
    2  0.000  0.014  0.012  0.026
tot    0.000  0.028  0.025  0.053
 
band    10 # energy    1.99646962 # occ.  0.00000000
 
ion      s      p      d    tot
    1  0.005  0.017  0.000  0.022
    2  0.005  0.017  0.000  0.022
tot    0.010  0.034  0.000  0.044
 
band    11 # energy    3.37601642 # occ.  0.00000000
 
ion      s      p      d    tot
    1  0.012  0.026  0.000  0.037
    2  0.012  0.026  0.000  0.037
tot    0.024  0.051  0.000  0.075
 
band    12 # energy    4.30404632 # occ.  0.00000000
 
ion      s      p      d    tot
    1  0.002  0.002  0.017  0.021
    2  0.002  0.002  0.017  0.021
tot    0.003  0.004  0.034  0.042
 
band    13 # energy    5.86432576 # occ.  0.00000000
 
ion      s      p      d    tot
    1  0.083  0.009  0.007  0.099
    2  0.083  0.009  0.007  0.099
tot    0.166  0.018  0.014  0.197
 
band    14 # energy    6.88537167 # occ.  0.00000000
 
ion      s      p      d    tot
    1  0.005  0.027  0.014  0.047
    2  0.005  0.027  0.014  0.047
tot    0.010  0.055  0.029  0.093
 
band    15 # energy    7.06912128 # occ.  0.00000000
 
ion      s      p      d    tot
    1  0.000  0.033  0.133  0.166
    2  0.000  0.033  0.133  0.166
tot    0.000  0.066  0.267  0.332
 
band    16 # energy    7.06912131 # occ.  0.00000000
 
ion      s      p      d    tot
    1  0.000  0.033  0.133  0.166
    2  0.000  0.033  0.133  0.166
tot    0.000  0.066  0.267  0.332
 

 k-point     2 :    0.07692308 0.00000000 0.00000000     weight = 0.03550296

band     1 # energy  -16.39639875 # occ.  2.00000000
 
ion      s      p      d    tot
    1  0.268  0.011  0.000  0.279
    2  0.268  0.011  0.000  0.279
tot    0.536  0.023  0.000  0.559
 
band     2 # energy  -10.17654899 # occ.  2.00000000
 
ion      s      p      d    tot
    1  0.289  0.024  0.001  0.314
    2  0.289  0.024  0.001  0.314
tot    0.579  0.047  0.002  0.628
 
band     3 # energy   -3.80407489 # occ.  2.00000000
 
ion      s      p      d    tot
    1  0.020  0.241  0.013  0.275
    2  0.020  0.241  0.013  0.275
tot    0.041  0.482  0.027  0.549
 
band     4 # energy   -3.52487549 # occ.  2.00000000
 
ion      s      p      d    tot
    1  0.007  0.196  0.002  0.204
    2  0.007  0.196  0.002  0.204
tot    0.013  0.392  0.003  0.408
 
band     5 # energy   -3.19106288 # occ.  2.00000000
 
ion      s      p      d    tot
    1  0.000  0.278  0.014  0.292
    2  0.000  0.278  0.014  0.292
tot    0.000  0.556  0.028  0.584
 
band     6 # energy   -0.50775544 # occ.  0.00000000
 
ion      s      p      d    tot
    1  0.107  0.160  0.011  0.277
    2  0.107  0.160  0.011  0.277
tot    0.213  0.319  0.022  0.555
 
band     7 # energy    0.35545535 # occ.  0.00000000
 
ion      s      p      d    tot
    1  0.020  0.239  0.015  0.274
    2  0.020  0.239  0.015  0.274
tot    0.041  0.477  0.030  0.548
 
band     8 # energy    0.65811509 # occ.  0.00000000
 
ion      s      p      d    tot
    1  0.000  0.269  0.017  0.286
    2  0.000  0.269  0.017  0.286
tot    0.000  0.538  0.034  0.572
 
band     9 # energy    2.01581132 # occ.  0.00000000
 
ion      s      p      d    tot
    1  0.001  0.019  0.013  0.032
    2  0.001  0.019  0.013  0.032
tot    0.001  0.038  0.025  0.065
 
band    10 # energy    2.09237691 # occ.  0.00000000
 
ion      s      p      d    tot
    1  0.003  0.019  0.001  0.023
    2  0.003  0.019  0.001  0.023
tot    0.006  0.039  0.001  0.046
 
band    11 # energy    3.46196511 # occ.  0.00000000
 
ion      s      p      d    tot
    1  0.009  0.027  0.001  0.037
    2  0.009  0.027  0.001  0.037
tot    0.018  0.054  0.003  0.075
 
band    12 # energy    4.39756953 # occ.  0.00000000
 
ion      s      p      d    tot
    1  0.001  0.003  0.017  0.021
    2  0.001  0.003  0.017  0.021
tot    0.003  0.005  0.035  0.043
 
band    13 # energy    6.03906186 # occ.  0.00000000
 
ion      s      p      d    tot
    1  0.014  0.021  0.058  0.093
    2  0.014  0.021  0.058  0.093
tot    0.027  0.042  0.116  0.185
 
band    14 # energy    6.24140852 # occ.  0.00000000
 
ion      s      p      d    tot
    1  0.056  0.040  0.030  0.126
    2  0.056  0.040  0.030  0.126
tot    0.113  0.080  0.059  0.252
 
band    15 # energy    6.99228324 # occ.  0.00000000
 
ion      s      p      d    tot
    1  0.000  0.023  0.135  0.158
    2  0.000  0.023  0.135  0.158
tot    0.000  0.045  0.270  0.315
 
band    16 # energy    7.42678131 # occ.  0.00000000
 
ion      s      p      d    tot
    1  0.003  0.053  0.069  0.125
    2  0.003  0.053  0.069  0.125
tot    0.006  0.106  0.139  0.251
 

 k-point     3 :    0.15384615 0.00000000 0.00000000     weight = 0.03550296

band     1 # energy  -16.16315223 # occ.  2.00000000
 
ion      s      p      d    tot
    1  0.268  0.013  0.000  0.282
    2  0.268  0.013  0.000  0.282
tot    0.537  0.026  0.001  0.563
 
band     2 # energy  -10.17900949 # occ.  2.00000000
 
ion      s      p      d    tot
    1  0.305  0.020  0.001  0.326
    2  0.305  0.020  0.001  0.326
tot    0.611  0.039  0.003  0.653
 
band     3 # energy   -5.02525047 # occ.  2.00000000
 
ion      s      p      d    tot
    1  0.017  0.216  0.011  0.244
    2  0.017  0.216  0.011  0.244
tot    0.033  0.432  0.023  0.488
 
band     4 # energy   -3.59875538 # occ.  2.00000000
 
ion      s      p      d    tot
    1  0.000  0.269  0.013  0.282
    2  0.000  0.269  0.013  0.282
tot    0.000  0.537  0.026  0.563
 
band     5 # energy   -3.43773817 # occ.  2.00000000
 
ion      s      p      d    tot
    1  0.010  0.204  0.002  0.215
    2  0.010  0.204  0.002  0.215
tot    0.020  0.407  0.003  0.430
 
band     6 # energy   -0.67433236 # occ.  0.00000000
 
ion      s      p      d    tot
    1  0.053  0.176  0.015  0.244
    2  0.053  0.176  0.015  0.244
tot    0.107  0.352  0.030  0.489
 
band     7 # energy    0.92466208 # occ.  0.00000000
 
ion      s      p      d    tot
    1  0.067  0.197  0.004  0.268
    2  0.067  0.197  0.004  0.268
tot    0.134  0.393  0.009  0.536
 
band     8 # energy    1.03528544 # occ.  0.00000000
 
ion      s      p      d    tot
    1  0.000  0.284  0.014  0.298
    2  0.000  0.284  0.014  0.298
tot    0.000  0.568  0.028  0.596
 
band     9 # energy    2.28746067 # occ.  0.00000000
 
ion      s      p      d    tot
    1  0.002  0.023  0.010  0.034
    2  0.002  0.023  0.010  0.034
tot    0.003  0.045  0.020  0.068
 
band    10 # energy    2.40421216 # occ.  0.00000000
 
ion      s      p      d    tot
    1  0.002  0.038  0.005  0.045
    2  0.002  0.038  0.005  0.045
tot    0.004  0.076  0.010  0.090
 
band    11 # energy    3.67759776 # occ.  0.00000000
 
ion      s      p      d    tot
    1  0.005  0.030  0.007  0.042
    2  0.005  0.030  0.007  0.042
tot    0.011  0.060  0.013  0.084
 
band    12 # energy    4.64339713 # occ.  0.00000000
 
ion      s      p      d    tot
    1  0.003  0.004  0.018  0.025
    2  0.003  0.004  0.018  0.025
tot    0.005  0.009  0.036  0.050
 
band    13 # energy    5.31869771 # occ.  0.00000000
 
ion      s      p      d    tot
    1  0.003  0.020  0.075  0.098
    2  0.003  0.020  0.075  0.098
tot    0.006  0.040  0.150  0.196
 
band    14 # energy    6.48142659 # occ.  0.00000000
 
ion      s      p      d    tot
    1  0.029  0.045  0.045  0.119
    2  0.029  0.045  0.045  0.119
tot    0.058  0.090  0.091  0.238
 
band    15 # energy    7.01988458 # occ.  0.00000000
 
ion      s      p      d    tot
    1  0.000  0.008  0.139  0.147
    2  0.000  0.008  0.139  0.147
tot    0.000  0.015  0.278  0.293
 
band    16 # energy    7.23103667 # occ.  0.00000000
 
ion      s      p      d    tot
    1  0.014  0.082  0.048  0.144
    2  0.014  0.082  0.048  0.144
tot    0.027  0.164  0.096  0.288
 

 k-point     4 :    0.23076923-0.00000000 0.00000000     weight = 0.03550296

band     1 # energy  -15.78203345 # occ.  2.00000000
 
ion      s      p      d    tot
    1  0.270  0.016  0.001  0.286
    2  0.270  0.016  0.001  0.286
tot    0.539  0.031  0.001  0.572
 
band     2 # energy  -10.30818661 # occ.  2.00000000
 
ion      s      p      d    tot
    1  0.324  0.016  0.002  0.343
    2  0.324  0.016  0.002  0.343
tot    0.649  0.032  0.004  0.686
 
band     3 # energy   -6.02787093 # occ.  2.00000000
 
ion      s      p      d    tot
    1  0.004  0.204  0.008  0.216
    2  0.004  0.204  0.008  0.216
tot    0.007  0.408  0.017  0.431
 
band     4 # energy   -4.05145107 # occ.  2.00000000
 
ion      s      p      d    tot
    1  0.000  0.261  0.012  0.272
    2  0.000  0.261  0.012  0.272
tot    0.000  0.522  0.023  0.545
 
band     5 # energy   -3.40878539 # occ.  2.00000000
 
ion      s      p      d    tot
    1  0.020  0.214  0.001  0.235
    2  0.020  0.214  0.001  0.235
tot    0.039  0.429  0.002  0.471
 
band     6 # energy   -1.19809319 # occ.  0.00000000
 
ion      s      p      d    tot
    1  0.049  0.153  0.016  0.217
    2  0.049  0.153  0.016  0.217
tot    0.097  0.306  0.031  0.435
 
band     7 # energy    1.31055601 # occ.  0.00000000
 
ion      s      p      d    tot
    1  0.048  0.175  0.012  0.235
    2  0.048  0.175  0.012  0.235
tot    0.095  0.350  0.024  0.470
 
band     8 # energy    1.34650329 # occ.  0.00000000
 
ion      s      p      d    tot
    1  0.000  0.290  0.012  0.301
    2  0.000  0.290  0.012  0.301
tot    0.000  0.579  0.024  0.603
 
band     9 # energy    2.59650674 # occ.  0.00000000
 
ion      s      p      d    tot
    1  0.002  0.011  0.014  0.027
    2  0.002  0.011  0.014  0.027
tot    0.003  0.023  0.027  0.053
 
band    10 # energy    2.85849150 # occ.  0.00000000
 
ion      s      p      d    tot
    1  0.001  0.040  0.002  0.044
    2  0.001  0.040  0.002  0.044
tot    0.002  0.080  0.005  0.087
 
band    11 # energy    4.02748404 # occ.  0.00000000
 
ion      s      p      d    tot
    1  0.005  0.049  0.011  0.064
    2  0.005  0.049  0.011  0.064
tot    0.009  0.097  0.022  0.129
 
band    12 # energy    4.89550386 # occ.  0.00000000
 
ion      s      p      d    tot
    1  0.012  0.011  0.025  0.048
    2  0.012  0.011  0.025  0.048
tot    0.024  0.022  0.050  0.096
 
band    13 # energy    5.46050189 # occ.  0.00000000
 
ion      s      p      d    tot
    1  0.001  0.049  0.037  0.087
    2  0.001  0.049  0.037  0.087
tot    0.002  0.099  0.074  0.175
 
band    14 # energy    6.14979424 # occ.  0.00000000
 
ion      s      p      d    tot
    1  0.023  0.029  0.085  0.136
    2  0.023  0.029  0.085  0.136
tot    0.045  0.057  0.169  0.272
 
band    15 # energy    7.46448236 # occ.  0.00000000
 
ion      s      p      d    tot
    1  0.000  0.004  0.144  0.148
    2  0.000  0.004  0.144  0.148
tot    0.000  0.008  0.288  0.295
 
band    16 # energy    7.53186072 # occ.  0.00000000
 
ion      s      p      d    tot
    1  0.015  0.063  0.023  0.101
    2  0.015  0.063  0.023  0.101
tot    0.029  0.126  0.046  0.201
 

 k-point     5 :    0.30769231 0.00000000 0.00000000     weight = 0.03550296

band     1 # energy  -15.26992583 # occ.  2.00000000
 
ion      s      p      d    tot
    1  0.272  0.018  0.001  0.292
    2  0.272  0.018  0.001  0.292
tot    0.545  0.037  0.002  0.584
 
band     2 # energy  -10.71937444 # occ.  2.00000000
 
ion      s      p      d    tot
    1  0.324  0.020  0.003  0.348
    2  0.324  0.020  0.003  0.348
tot    0.649  0.041  0.007  0.696
 
band     3 # energy   -6.55785350 # occ.  2.00000000
 
ion      s      p      d    tot
    1  0.009  0.190  0.005  0.203
    2  0.009  0.190  0.005  0.203
tot    0.017  0.380  0.010  0.407
 
band     4 # energy   -4.44261541 # occ.  2.00000000
 
ion      s      p      d    tot
    1  0.000  0.256  0.010  0.266
    2  0.000  0.256  0.010  0.266
tot    0.000  0.511  0.020  0.532
 
band     5 # energy   -3.63067725 # occ.  2.00000000
 
ion      s      p      d    tot
    1  0.036  0.215  0.001  0.251
    2  0.036  0.215  0.001  0.251
tot    0.071  0.430  0.002  0.503
 
band     6 # energy   -1.41710230 # occ.  0.00000000
 
ion      s      p      d    tot
    1  0.038  0.142  0.018  0.198
    2  0.038  0.142  0.018  0.198
tot    0.076  0.284  0.035  0.396
 
band     7 # energy    0.98884404 # occ.  0.00000000
 
ion      s      p      d    tot
    1  0.024  0.148  0.027  0.198
    2  0.024  0.148  0.027  0.198
tot    0.048  0.296  0.053  0.397
 
band     8 # energy    1.48581819 # occ.  0.00000000
 
ion      s      p      d    tot
    1  0.000  0.283  0.012  0.295
    2  0.000  0.283  0.012  0.295
tot    0.000  0.565  0.025  0.590
 
band     9 # energy    3.12990265 # occ.  0.00000000
 
ion      s      p      d    tot
    1  0.007  0.007  0.011  0.025
    2  0.007  0.007  0.011  0.025
tot    0.013  0.015  0.022  0.050
 
band    10 # energy    3.34333064 # occ.  0.00000000
 
ion      s      p      d    tot
    1  0.002  0.043  0.006  0.051
    2  0.002  0.043  0.006  0.051
tot    0.004  0.086  0.013  0.102
 
band    11 # energy    4.28615444 # occ.  0.00000000
 
ion      s      p      d    tot
    1  0.002  0.043  0.025  0.071
    2  0.002  0.043  0.025  0.071
tot    0.005  0.086  0.051  0.141
 
band    12 # energy    5.36651911 # occ.  0.00000000
 
ion      s      p      d    tot
    1  0.007  0.029  0.026  0.062
    2  0.007  0.029  0.026  0.062
tot    0.015  0.058  0.052  0.125
 
band    13 # energy    5.65770992 # occ.  0.00000000
 
ion      s      p      d    tot
    1  0.008  0.018  0.014  0.040
    2  0.008  0.018  0.014  0.040
tot    0.016  0.035  0.028  0.079
 
band    14 # energy    6.89917538 # occ.  0.00000000
 
ion      s      p      d    tot
    1  0.018  0.089  0.069  0.176
    2  0.018  0.089  0.069  0.176
tot    0.036  0.178  0.138  0.352
 
band    15 # energy    7.40498914 # occ.  0.00000000
 
ion      s      p      d    tot
    1  0.028  0.015  0.022  0.064
    2  0.028  0.015  0.022  0.064
tot    0.056  0.029  0.044  0.129
 
band    16 # energy    8.40443398 # occ.  0.00000000
 
ion      s      p      d    tot
    1  0.000  0.014  0.147  0.161
    2  0.000  0.014  0.147  0.161
tot    0.000  0.027  0.294  0.322
 

 k-point     6 :    0.38461538 0.00000000 0.00000000     weight = 0.03550296

band     1 # energy  -14.67186111 # occ.  2.00000000
 
ion      s      p      d    tot
    1  0.278  0.021  0.002  0.301
    2  0.278  0.021  0.002  0.301
tot    0.556  0.041  0.003  0.601
 
band     2 # energy  -11.39041367 # occ.  2.00000000
 
ion      s      p      d    tot
    1  0.302  0.030  0.004  0.336
    2  0.302  0.030  0.004  0.336
tot    0.604  0.060  0.007  0.671
 
band     3 # energy   -6.60567024 # occ.  2.00000000
 
ion      s      p      d    tot
    1  0.036  0.175  0.002  0.213
    2  0.036  0.175  0.002  0.213
tot    0.073  0.349  0.005  0.427
 
band     4 # energy   -4.72189746 # occ.  2.00000000
 
ion      s      p      d    tot
    1  0.000  0.253  0.009  0.262
    2  0.000  0.253  0.009  0.262
tot    0.000  0.505  0.018  0.523
 
band     5 # energy   -4.09820743 # occ.  2.00000000
 
ion      s      p      d    tot
    1  0.042  0.204  0.001  0.246
    2  0.042  0.204  0.001  0.246
tot    0.083  0.407  0.002  0.492
 
band     6 # energy   -1.28920422 # occ.  0.00000000
 
ion      s      p      d    tot
    1  0.032  0.143  0.022  0.197
    2  0.032  0.143  0.022  0.197
tot    0.063  0.287  0.044  0.395
 
band     7 # energy    0.49777649 # occ.  0.00000000
 
ion      s      p      d    tot
    1  0.012  0.146  0.028  0.185
    2  0.012  0.146  0.028  0.185
tot    0.024  0.292  0.055  0.371
 
band     8 # energy    1.50625329 # occ.  0.00000000
 
ion      s      p      d    tot
    1  0.000  0.273  0.014  0.287
    2  0.000  0.273  0.014  0.287
tot    0.000  0.545  0.028  0.574
 
band     9 # energy    3.50273380 # occ.  0.00000000
 
ion      s      p      d    tot
    1  0.002  0.045  0.037  0.085
    2  0.002  0.045  0.037  0.085
tot    0.005  0.090  0.075  0.169
 
band    10 # energy    3.90977432 # occ.  0.00000000
 
ion      s      p      d    tot
    1  0.009  0.008  0.010  0.027
    2  0.009  0.008  0.010  0.027
tot    0.017  0.017  0.020  0.054
 
band    11 # energy    4.57217051 # occ.  0.00000000
 
ion      s      p      d    tot
    1  0.000  0.013  0.015  0.028
    2  0.000  0.013  0.015  0.028
tot    0.000  0.025  0.030  0.056
 
band    12 # energy    5.79549013 # occ.  0.00000000
 
ion      s      p      d    tot
    1  0.008  0.026  0.014  0.048
    2  0.008  0.026  0.014  0.048
tot    0.015  0.051  0.029  0.095
 
band    13 # energy    6.37950578 # occ.  0.00000000
 
ion      s      p      d    tot
    1  0.011  0.013  0.008  0.032
    2  0.011  0.013  0.008  0.032
tot    0.021  0.027  0.016  0.064
 
band    14 # energy    6.89458148 # occ.  0.00000000
 
ion      s      p      d    tot
    1  0.014  0.020  0.022  0.055
    2  0.014  0.020  0.022  0.055
tot    0.027  0.040  0.043  0.111
 
band    15 # energy    7.39716907 # occ.  0.00000000
 
ion      s      p      d    tot
    1  0.002  0.041  0.009  0.052
    2  0.002  0.041  0.009  0.052
tot    0.004  0.083  0.018  0.105
 
band    16 # energy    7.96690846 # occ.  0.00000000
 
ion      s      p      d    tot
    1  0.012  0.043  0.013  0.068
    2  0.012  0.043  0.013  0.068
tot    0.024  0.086  0.027  0.137
 

 k-point     7 :    0.46153846-0.00000000 0.00000000     weight = 0.03550296

band     1 # energy  -14.14622777 # occ.  2.00000000
 
ion      s      p      d    tot
    1  0.288  0.021  0.002  0.311
    2  0.288  0.021  0.002  0.311
tot    0.576  0.041  0.005  0.622
 
band     2 # energy  -12.00905994 # occ.  2.00000000
 
ion      s      p      d    tot
    1  0.279  0.037  0.003  0.319
    2  0.279  0.037  0.003  0.319
tot    0.558  0.075  0.006  0.639
 
band     3 # energy   -6.44638084 # occ.  2.00000000
 
ion      s      p      d    tot
    1  0.063  0.166  0.001  0.230
    2  0.063  0.166  0.001  0.230
tot    0.126  0.331  0.002  0.459
 
band     4 # energy   -4.86619017 # occ.  2.00000000
 
ion      s      p      d    tot
    1  0.000  0.251  0.008  0.260
    2  0.000  0.251  0.008  0.260
tot    0.000  0.503  0.017  0.519
 
band     5 # energy   -4.51067805 # occ.  2.00000000
 
ion      s      p      d    tot
    1  0.035  0.196  0.001  0.233
    2  0.035  0.196  0.001  0.233
tot    0.071  0.391  0.003  0.465
 
band     6 # energy   -1.08448115 # occ.  0.00000000
 
ion      s      p      d    tot
    1  0.034  0.138  0.029  0.201
    2  0.034  0.138  0.029  0.201
tot    0.068  0.276  0.058  0.402
 
band     7 # energy    0.17228791 # occ.  0.00000000
 
ion      s      p      d    tot
    1  0.004  0.163  0.021  0.188
    2  0.004  0.163  0.021  0.188
tot    0.008  0.326  0.042  0.376
 
band     8 # energy    1.49275430 # occ.  0.00000000
 
ion      s      p      d    tot
    1  0.000  0.267  0.015  0.282
    2  0.000  0.267  0.015  0.282
tot    0.000  0.533  0.031  0.564
 
band     9 # energy    3.30196411 # occ.  0.00000000
 
ion      s      p      d    tot
    1  0.000  0.020  0.053  0.073
    2  0.000  0.020  0.053  0.073
tot    0.001  0.041  0.106  0.147
 
band    10 # energy    4.85547650 # occ.  0.00000000
 
ion      s      p      d    tot
    1  0.011  0.008  0.010  0.030
    2  0.011  0.008  0.010  0.030
tot    0.022  0.017  0.020  0.059
 
band    11 # energy    5.29902979 # occ.  0.00000000
 
ion      s      p      d    tot
    1  0.004  0.019  0.006  0.028
    2  0.004  0.019  0.006  0.028
tot    0.007  0.037  0.012  0.057
 
band    12 # energy    5.90618034 # occ.  0.00000000
 
ion      s      p      d    tot
    1  0.014  0.007  0.012  0.033
    2  0.014  0.007  0.012  0.033
tot    0.028  0.015  0.025  0.067
 
band    13 # energy    6.23036477 # occ.  0.00000000
 
ion      s      p      d    tot
    1  0.002  0.026  0.006  0.034
    2  0.002  0.026  0.006  0.034
tot    0.003  0.052  0.013  0.068
 
band    14 # energy    6.72184376 # occ.  0.00000000
 
ion      s      p      d    tot
    1  0.003  0.024  0.009  0.037
    2  0.003  0.024  0.009  0.037
tot    0.007  0.048  0.018  0.073
 
band    15 # energy    7.31893572 # occ.  0.00000000
 
ion      s      p      d    tot
    1  0.009  0.018  0.011  0.038
    2  0.009  0.018  0.011  0.038
tot    0.017  0.036  0.022  0.075
 
band    16 # energy    7.37113294 # occ.  0.00000000
 
ion      s      p      d    tot
    1  0.005  0.024  0.010  0.039
    2  0.005  0.024  0.010  0.039
tot    0.010  0.049  0.020  0.078
 

 k-point     8 :    0.07692308 0.07692308 0.00000000     weight = 0.03550296

band     1 # energy  -16.24054109 # occ.  2.00000000
 
ion      s      p      d    tot
    1  0.268  0.012  0.000  0.281
    2  0.268  0.012  0.000  0.281
tot    0.536  0.025  0.001  0.562
 
band     2 # energy  -10.17188793 # occ.  2.00000000
 
ion      s      p      d    tot
    1  0.300  0.021  0.001  0.322
    2  0.300  0.021  0.001  0.322
tot    0.600  0.042  0.002  0.644
 
band     3 # energy   -4.66132150 # occ.  2.00000000
 
ion      s      p      d    tot
    1  0.020  0.222  0.012  0.254
    2  0.020  0.222  0.012  0.254
tot    0.040  0.443  0.024  0.508
 
band     4 # energy   -3.58882440 # occ.  2.00000000
 
ion      s      p      d    tot
    1  0.003  0.261  0.013  0.277
    2  0.003  0.261  0.013  0.277
tot    0.006  0.523  0.026  0.555
 
band     5 # energy   -3.45529884 # occ.  2.00000000
 
ion      s      p      d    tot
    1  0.007  0.204  0.002  0.213
    2  0.007  0.204  0.002  0.213
tot    0.014  0.407  0.004  0.425
 
band     6 # energy   -0.00670477 # occ.  0.00000000
 
ion      s      p      d    tot
    1  0.078  0.186  0.012  0.276
    2  0.078  0.186  0.012  0.276
tot    0.156  0.373  0.024  0.552
 
band     7 # energy    0.03331434 # occ.  0.00000000
 
ion      s      p      d    tot
    1  0.023  0.224  0.014  0.260
    2  0.023  0.224  0.014  0.260
tot    0.045  0.447  0.028  0.521
 
band     8 # energy    1.14488445 # occ.  0.00000000
 
ion      s      p      d    tot
    1  0.021  0.256  0.009  0.286
    2  0.021  0.256  0.009  0.286
tot    0.042  0.512  0.019  0.572
 
band     9 # energy    2.24247277 # occ.  0.00000000
 
ion      s      p      d    tot
    1  0.002  0.038  0.013  0.052
    2  0.002  0.038  0.013  0.052
tot    0.003  0.076  0.026  0.105
 
band    10 # energy    2.26832946 # occ.  0.00000000
 
ion      s      p      d    tot
    1  0.002  0.020  0.002  0.024
    2  0.002  0.020  0.002  0.024
tot    0.004  0.041  0.003  0.048
 
band    11 # energy    3.60244596 # occ.  0.00000000
 
ion      s      p      d    tot
    1  0.006  0.027  0.005  0.038
    2  0.006  0.027  0.005  0.038
tot    0.012  0.054  0.011  0.077
 
band    12 # energy    4.57721333 # occ.  0.00000000
 
ion      s      p      d    tot
    1  0.002  0.004  0.017  0.023
    2  0.002  0.004  0.017  0.023
tot    0.003  0.008  0.034  0.045
 
band    13 # energy    5.44620590 # occ.  0.00000000
 
ion      s      p      d    tot
    1  0.000  0.020  0.077  0.097
    2  0.000  0.020  0.077  0.097
tot    0.001  0.040  0.154  0.194
 
band    14 # energy    6.66021212 # occ.  0.00000000
 
ion      s      p      d    tot
    1  0.006  0.021  0.118  0.145
    2  0.006  0.021  0.118  0.145
tot    0.012  0.042  0.236  0.289
 
band    15 # energy    6.67139137 # occ.  0.00000000
 
ion      s      p      d    tot
    1  0.046  0.058  0.010  0.114
    2  0.046  0.058  0.010  0.114
tot    0.093  0.115  0.020  0.228
 
band    16 # energy    7.37784545 # occ.  0.00000000
 
ion      s      p      d    tot
    1  0.000  0.062  0.094  0.156
    2  0.000  0.062  0.094  0.156
tot    0.000  0.123  0.189  0.312
 

 k-point     9 :    0.15384615 0.07692308 0.00000000     weight = 0.07100592

band     1 # energy  -15.93295960 # occ.  2.00000000
 
ion      s      p      d    tot
    1  0.269  0.015  0.001  0.284
    2  0.269  0.015  0.001  0.284
tot    0.538  0.029  0.001  0.568
 
band     2 # energy  -10.23369562 # occ.  2.00000000
 
ion      s      p      d    tot
    1  0.319  0.017  0.002  0.337
    2  0.319  0.017  0.002  0.337
tot    0.637  0.034  0.004  0.675
 
band     3 # energy   -5.62969130 # occ.  2.00000000
 
ion      s      p      d    tot
    1  0.008  0.209  0.010  0.227
    2  0.008  0.209  0.010  0.227
tot    0.016  0.419  0.019  0.454
 
band     4 # energy   -4.16845069 # occ.  2.00000000
 
ion      s      p      d    tot
    1  0.005  0.247  0.012  0.264
    2  0.005  0.247  0.012  0.264
tot    0.010  0.494  0.024  0.528
 
band     5 # energy   -3.38280162 # occ.  2.00000000
 
ion      s      p      d    tot
    1  0.013  0.212  0.002  0.226
    2  0.013  0.212  0.002  0.226
tot    0.025  0.423  0.003  0.452
 
band     6 # energy   -0.53485282 # occ.  0.00000000
 
ion      s      p      d    tot
    1  0.042  0.187  0.014  0.242
    2  0.042  0.187  0.014  0.242
tot    0.083  0.374  0.027  0.485
 
band     7 # energy    0.64171663 # occ.  0.00000000
 
ion      s      p      d    tot
    1  0.038  0.226  0.012  0.275
    2  0.038  0.226  0.012  0.275
tot    0.076  0.451  0.023  0.551
 
band     8 # energy    1.56214479 # occ.  0.00000000
 
ion      s      p      d    tot
    1  0.029  0.231  0.007  0.267
    2  0.029  0.231  0.007  0.267
tot    0.059  0.463  0.013  0.534
 
band     9 # energy    2.52943698 # occ.  0.00000000
 
ion      s      p      d    tot
    1  0.001  0.026  0.012  0.038
    2  0.001  0.026  0.012  0.038
tot    0.001  0.052  0.023  0.077
 
band    10 # energy    2.65827343 # occ.  0.00000000
 
ion      s      p      d    tot
    1  0.002  0.042  0.005  0.049
    2  0.002  0.042  0.005  0.049
tot    0.003  0.084  0.010  0.097
 
band    11 # energy    3.82935785 # occ.  0.00000000
 
ion      s      p      d    tot
    1  0.004  0.030  0.017  0.050
    2  0.004  0.030  0.017  0.050
tot    0.007  0.060  0.033  0.101
 
band    12 # energy    4.84349099 # occ.  0.00000000
 
ion      s      p      d    tot
    1  0.005  0.007  0.026  0.037
    2  0.005  0.007  0.026  0.037
tot    0.010  0.013  0.051  0.075
 
band    13 # energy    5.10748013 # occ.  0.00000000
 
ion      s      p      d    tot
    1  0.000  0.021  0.053  0.074
    2  0.000  0.021  0.053  0.074
tot    0.000  0.042  0.106  0.147
 
band    14 # energy    6.44688429 # occ.  0.00000000
 
ion      s      p      d    tot
    1  0.016  0.048  0.086  0.150
    2  0.016  0.048  0.086  0.150
tot    0.032  0.096  0.172  0.300
 
band    15 # energy    7.24287820 # occ.  0.00000000
 
ion      s      p      d    tot
    1  0.016  0.049  0.055  0.120
    2  0.016  0.049  0.055  0.120
tot    0.031  0.099  0.109  0.239
 
band    16 # energy    7.34070190 # occ.  0.00000000
 
ion      s      p      d    tot
    1  0.008  0.047  0.080  0.135
    2  0.008  0.047  0.080  0.135
tot    0.016  0.093  0.159  0.269
 

 k-point    10 :    0.23076923 0.07692308 0.00000000     weight = 0.07100592

band     1 # energy  -15.48445068 # occ.  2.00000000
 
ion      s      p      d    tot
    1  0.271  0.017  0.001  0.289
    2  0.271  0.017  0.001  0.289
tot    0.542  0.035  0.002  0.578
 
band     2 # energy  -10.50344894 # occ.  2.00000000
 
ion      s      p      d    tot
    1  0.330  0.017  0.003  0.349
    2  0.330  0.017  0.003  0.349
tot    0.659  0.034  0.006  0.699
 
band     3 # energy   -6.32677059 # occ.  2.00000000
 
ion      s      p      d    tot
    1  0.002  0.198  0.006  0.206
    2  0.002  0.198  0.006  0.206
tot    0.004  0.396  0.013  0.413
 
band     4 # energy   -4.68194827 # occ.  2.00000000
 
ion      s      p      d    tot
    1  0.007  0.236  0.011  0.254
    2  0.007  0.236  0.011  0.254
tot    0.013  0.473  0.021  0.507
 
band     5 # energy   -3.43967160 # occ.  2.00000000
 
ion      s      p      d    tot
    1  0.023  0.222  0.001  0.246
    2  0.023  0.222  0.001  0.246
tot    0.046  0.443  0.002  0.492
 
band     6 # energy   -0.94728277 # occ.  0.00000000
 
ion      s      p      d    tot
    1  0.039  0.164  0.015  0.217
    2  0.039  0.164  0.015  0.217
tot    0.077  0.328  0.030  0.435
 
band     7 # energy    1.04765279 # occ.  0.00000000
 
ion      s      p      d    tot
    1  0.022  0.232  0.013  0.267
    2  0.022  0.232  0.013  0.267
tot    0.044  0.465  0.026  0.534
 
band     8 # energy    1.41150809 # occ.  0.00000000
 
ion      s      p      d    tot
    1  0.021  0.202  0.019  0.241
    2  0.021  0.202  0.019  0.241
tot    0.041  0.403  0.038  0.483
 
band     9 # energy    2.91016084 # occ.  0.00000000
 
ion      s      p      d    tot