<?xml version="1.0" encoding="ISO-8859-1"?>
<modeling>
 <generator>
  <i name="program" type="string">vasp </i>
  <i name="version" type="string">6.4.2  </i>
  <i name="subversion" type="string">20Jul23 (build Nov 14 2023 12:59:38) complex                          parallel </i>
  <i name="platform" type="string">LinuxIFC </i>
  <i name="date" type="string">2023 12 29 </i>
  <i name="time" type="string">15:36:49 </i>
 </generator>
 <incar>
  <i type="string" name="PREC">Accurate</i>
  <i type="string" name="ALGO">Normal</i>
  <i type="logical" name="ADDGRID"> T  </i>
  <i type="int" name="ISPIN">     1</i>
  <i name="AMIX">      0.10000000</i>
  <i name="BMIX">      0.00010000</i>
  <i type="int" name="ICHARG">     2</i>
  <i type="int" name="NELM">   200</i>
  <i type="int" name="NELMDL">   -12</i>
  <i type="int" name="NELMIN">     6</i>
  <i type="int" name="IBRION">     8</i>
  <i name="EDIFF">      0.00000100</i>
  <i name="EDIFFG">     -0.01000000</i>
  <i type="int" name="NSW">     1</i>
  <i name="ENCUT">    234.78975000</i>
  <i name="POTIM">      0.01000000</i>
  <i type="int" name="NEDOS">  6001</i>
  <i type="logical" name="LREAL"> F  </i>
  <i type="logical" name="LPLANE"> T  </i>
  <i type="int" name="ISMEAR">     0</i>
  <i name="SIGMA">      0.01000000</i>
  <i type="int" name="NWRITE">     3</i>
  <i type="logical" name="LWAVE"> F  </i>
  <i type="logical" name="LCHARG"> F  </i>
  <i type="logical" name="LVTOT"> F  </i>
  <i type="int" name="LORBIT">    10</i>
  <i type="logical" name="LELF"> F  </i>
  <i type="logical" name="LASPH"> T  </i>
  <i type="logical" name="LEPSILON"> F  </i>
  <i type="int" name="IVDW">     0</i>
 </incar>
 <primitive_cell>
  <structure name="primitive_cell" >
   <crystal>
    <varray name="basis" >
     <v>       3.60689254       0.00000000       0.00000000 </v>
     <v>      -1.80344627       3.12366057       0.00000000 </v>
     <v>       0.00000000       0.00000000      16.00000000 </v>
    </varray>
    <i name="volume">    180.26732792 </i>
    <varray name="rec_basis" >
     <v>       0.27724696       0.16006861       0.00000000 </v>
     <v>       0.00000000       0.32013722       0.00000000 </v>
     <v>       0.00000000       0.00000000       0.06250000 </v>
    </varray>
   </crystal>
   <varray name="positions" >
    <v>       0.66666667       0.33333333       0.45634314 </v>
    <v>       0.33333333       0.66666667       0.54365686 </v>
   </varray>
  </structure>
  <varray name="primitive_index" >
   <v type="int" >        1 </v>
   <v type="int" >        2 </v>
  </varray>
 </primitive_cell>
 <kpoints>
  <generation param="Gamma">
   <v type="int" name="divisions">      13       13        1 </v>
   <v name="usershift">      0.00000000       0.00000000       0.00000000 </v>
   <v name="genvec1">      0.07692308       0.00000000       0.00000000 </v>
   <v name="genvec2">      0.00000000       0.07692308       0.00000000 </v>
   <v name="genvec3">      0.00000000       0.00000000       1.00000000 </v>
   <v name="shift">      0.00000000       0.00000000       0.00000000 </v>
  </generation>
  <varray name="kpointlist" >
   <v>       0.00000000       0.00000000       0.00000000 </v>
   <v>       0.07692308       0.00000000       0.00000000 </v>
   <v>       0.15384615       0.00000000       0.00000000 </v>
   <v>       0.23076923      -0.00000000       0.00000000 </v>
   <v>       0.30769231       0.00000000       0.00000000 </v>
   <v>       0.38461538       0.00000000       0.00000000 </v>
   <v>       0.46153846      -0.00000000       0.00000000 </v>
   <v>       0.07692308       0.07692308       0.00000000 </v>
   <v>       0.15384615       0.07692308       0.00000000 </v>
   <v>       0.23076923       0.07692308       0.00000000 </v>
   <v>       0.30769231       0.07692308       0.00000000 </v>
   <v>       0.38461538       0.07692308       0.00000000 </v>
   <v>       0.46153846       0.07692308       0.00000000 </v>
   <v>       0.15384615       0.15384615       0.00000000 </v>
   <v>       0.23076923       0.15384615       0.00000000 </v>
   <v>       0.30769231       0.15384615       0.00000000 </v>
   <v>       0.38461538       0.15384615       0.00000000 </v>
   <v>       0.23076923       0.23076923       0.00000000 </v>
   <v>       0.30769231       0.23076923       0.00000000 </v>
   <v>       0.38461538       0.23076923       0.00000000 </v>
   <v>       0.30769231       0.30769231       0.00000000 </v>
  </varray>
  <varray name="weights" >
   <v>       0.00591716 </v>
   <v>       0.03550296 </v>
   <v>       0.03550296 </v>
   <v>       0.03550296 </v>
   <v>       0.03550296 </v>
   <v>       0.03550296 </v>
   <v>       0.03550296 </v>
   <v>       0.03550296 </v>
   <v>       0.07100592 </v>
   <v>       0.07100592 </v>
   <v>       0.07100592 </v>
   <v>       0.07100592 </v>
   <v>       0.03550296 </v>
   <v>       0.03550296 </v>
   <v>       0.07100592 </v>
   <v>       0.07100592 </v>
   <v>       0.07100592 </v>
   <v>       0.03550296 </v>
   <v>       0.07100592 </v>
   <v>       0.03550296 </v>
   <v>       0.03550296 </v>
  </varray>
 </kpoints>
 <parameters>
  <separator name="general" >
   <i type="string" name="SYSTEM">unknown system</i>
   <i type="logical" name="LCOMPAT"> F  </i>
  </separator>
  <separator name="electronic" >
   <i type="string" name="PREC">accura</i>
   <i name="ENMAX">    234.78975000</i>
   <i name="ENAUG">    462.75800000</i>
   <i name="EDIFF">      0.00000100</i>
   <i type="int" name="IALGO">    38</i>
   <i type="int" name="IWAVPR">    11</i>
   <i type="int" name="NBANDS">    16</i>
   <i type="int" name="NBANDSLOW">    -1</i>
   <i type="int" name="NBANDSHIGH">    -1</i>
   <i name="NELECT">     10.00000000</i>
   <i type="int" name="TURBO">     0</i>
   <i type="int" name="IRESTART">     0</i>
   <i type="int" name="NREBOOT">     0</i>
   <i type="int" name="NMIN">     0</i>
   <i name="EREF">      0.00000000</i>
   <separator name="electronic smearing" >
    <i type="int" name="ISMEAR">     0</i>
    <i name="SIGMA">      0.01000000</i>
    <i name="KSPACING">      0.50000000</i>
    <i type="logical" name="KGAMMA"> T  </i>
    <i type="logical" name="KBLOWUP"> T  </i>
   </separator>
   <separator name="electronic projectors" >
    <i type="logical" name="LREAL"> F  </i>
    <v name="ROPT">      0.00000000</v>
    <i type="int" name="LMAXPAW">  -100</i>
    <i type="int" name="LMAXMIX">     2</i>
    <i type="logical" name="NLSPLINE"> F  </i>
   </separator>
   <separator name="electronic startup" >
    <i type="int" name="ISTART">     0</i>
    <i type="int" name="ICHARG">     2</i>
    <i type="int" name="INIWAV">     1</i>
   </separator>
   <separator name="electronic spin" >
    <i type="int" name="ISPIN">     1</i>
    <i type="logical" name="LNONCOLLINEAR"> F  </i>
    <v name="MAGMOM">      1.00000000      1.00000000</v>
    <i name="NUPDOWN">     -1.00000000</i>
    <i type="logical" name="LSORBIT"> F  </i>
    <v name="SAXIS">      0.00000000      0.00000000      1.00000000</v>
    <i type="logical" name="LSPIRAL"> F  </i>
    <v name="QSPIRAL">      0.00000000      0.00000000      0.00000000</v>
    <i type="logical" name="LZEROZ"> F  </i>
   </separator>
   <separator name="electronic exchange-correlation" >
    <i type="logical" name="LASPH"> T  </i>
    <i type="logical" name="LMETAGGA"> F  </i>
   </separator>
   <separator name="electronic convergence" >
    <i type="int" name="NELM">   200</i>
    <i type="int" name="NELMDL">   -12</i>
    <i type="int" name="NELMIN">     6</i>
    <i name="ENINI">    234.78975000</i>
    <separator name="electronic convergence detail" >
     <i type="logical" name="LDIAG"> T  </i>
     <i type="logical" name="LSUBROT"> F  </i>
     <i name="WEIMIN">      0.00100000</i>
     <i name="EBREAK">      0.00000002</i>
     <i name="DEPER">      0.30000000</i>
     <i type="int" name="NRMM">     4</i>
     <i name="TIME">      0.40000000</i>
    </separator>
   </separator>
   <separator name="electronic mixer" >
    <i name="AMIX">      0.10000000</i>
    <i name="BMIX">      0.00010000</i>
    <i name="AMIN">      0.10000000</i>
    <i name="AMIX_MAG">      0.40000000</i>
    <i name="BMIX_MAG">      0.00010000</i>
    <separator name="electronic mixer details" >
     <i type="int" name="IMIX">     4</i>
     <i type="logical" name="MIXFIRST"> F  </i>
     <i type="int" name="MAXMIX">   -45</i>
     <i name="WC">    100.00000000</i>
     <i type="int" name="INIMIX">     1</i>
     <i type="int" name="MIXPRE">     1</i>
     <i type="int" name="MREMOVE">     5</i>
    </separator>
   </separator>
   <separator name="electronic dipolcorrection" >
    <i type="logical" name="LDIPOL"> F  </i>
    <i type="logical" name="LMONO"> F  </i>
    <i type="int" name="IDIPOL">     0</i>
    <i name="EPSILON">      1.00000000</i>
    <v name="DIPOL">   -100.00000000   -100.00000000   -100.00000000</v>
    <i name="EFIELD">      0.00000000</i>
   </separator>
  </separator>
  <separator name="grids" >
   <i type="int" name="NGX">    18</i>
   <i type="int" name="NGY">    18</i>
   <i type="int" name="NGZ">    80</i>
   <i type="int" name="NGXF">    36</i>
   <i type="int" name="NGYF">    36</i>
   <i type="int" name="NGZF">   160</i>
   <i type="logical" name="ADDGRID"> T  </i>
  </separator>
  <separator name="ionic" >
   <i type="int" name="NSW">     1</i>
   <i type="int" name="IBRION">     8</i>
   <i type="int" name="MDALGO">     0</i>
   <i type="int" name="ISIF">     2</i>
   <i name="PSTRESS">      0.00000000</i>
   <i name="EDIFFG">     -0.01000000</i>
   <i type="int" name="NFREE">     0</i>
   <i name="POTIM">      0.01000000</i>
   <i name="SMASS">     -3.00000000</i>
   <i name="SCALEE">      1.00000000</i>
  </separator>
  <separator name="ionic md" >
   <i name="TEBEG">      0.00010000</i>
   <i name="TEEND">      0.00010000</i>
   <i type="int" name="NBLOCK">     1</i>
   <i type="int" name="KBLOCK">     1</i>
   <i type="int" name="NPACO">   256</i>
   <i name="APACO">     10.00000000</i>
  </separator>
  <separator name="symmetry" >
   <i type="int" name="ISYM">     2</i>
   <i name="SYMPREC">      0.00001000</i>
  </separator>
  <separator name="dos" >
   <i type="int" name="LORBIT">    10</i>
   <v name="RWIGS">     -1.00000000</v>
   <i type="int" name="NEDOS">  6001</i>
   <i name="EMIN">     10.00000000</i>
   <i name="EMAX">    -10.00000000</i>
   <i name="EFERMI">      0.00000000</i>
  </separator>
  <separator name="writing" >
   <i type="int" name="NWRITE">     3</i>
   <i type="logical" name="LWAVE"> F  </i>
   <i type="logical" name="LDOWNSAMPLE"> F  </i>
   <i type="logical" name="LCHARG"> F  </i>
   <i type="logical" name="LPARD"> F  </i>
   <i type="logical" name="LVTOT"> F  </i>
   <i type="logical" name="LVHAR"> F  </i>
   <i type="logical" name="LELF"> F  </i>
   <i type="logical" name="LOPTICS"> F  </i>
   <v name="STM">      0.00000000      0.00000000      0.00000000      0.00000000      0.00000000      0.00000000      0.00000000</v>
  </separator>
  <separator name="performance" >
   <i type="int" name="NPAR">    16</i>
   <i type="int" name="NSIM">     4</i>
   <i type="int" name="NBLK">    -1</i>
   <i type="logical" name="LPLANE"> T  </i>
   <i type="logical" name="LSCALAPACK"> T  </i>
   <i type="logical" name="LSCAAWARE"> F  </i>
   <i type="logical" name="LSCALU"> F  </i>
   <i type="logical" name="LASYNC"> F  </i>
   <i type="logical" name="LORBITALREAL"> F  </i>
  </separator>
  <separator name="miscellaneous" >
   <i type="int" name="IDIOT">     3</i>
   <i type="int" name="PHON_NSTRUCT">    -1</i>
   <i type="logical" name="LMUSIC"> F  </i>
   <v name="POMASS">     74.92200000</v>
   <v name="DARWINR">      0.00000000</v>
   <v name="DARWINV">      1.00000000</v>
   <i type="logical" name="LCORR"> T  </i>
  </separator>
  <i type="logical" name="GGA_COMPAT"> T  </i>
  <i type="logical" name="LBERRY"> F  </i>
  <i type="int" name="ICORELEVEL">     0</i>
  <i type="logical" name="LDAU"> F  </i>
  <i type="int" name="I_CONSTRAINED_M">     0</i>
  <separator name="electronic exchange-correlation" >
   <i type="string" name="GGA">--</i>
   <i type="int" name="VOSKOWN">     0</i>
   <i type="logical" name="LHFCALC"> F  </i>
   <i type="string" name="PRECFOCK"></i>
   <i type="logical" name="LSYMGRAD"> F  </i>
   <i type="logical" name="LHFONE"> F  </i>
   <i type="logical" name="LRHFCALC"> F  </i>
   <i type="logical" name="LTHOMAS"> F  </i>
   <i type="logical" name="LMODELHF"> F  </i>
   <i type="logical" name="LFOCKACE"> F  </i>
   <i name="ENCUT4O">     -1.00000000</i>
   <i type="int" name="EXXOEP">     0</i>
   <i type="int" name="FOURORBIT">     0</i>
   <i name="AEXX">      0.00000000</i>
   <i name="HFALPHA">      0.00000000</i>
   <i name="MCALPHA">      0.00000000</i>
   <i name="ALDAX">      1.00000000</i>
   <i name="AGGAX">      1.00000000</i>
   <i name="ALDAC">      1.00000000</i>
   <i name="AGGAC">      1.00000000</i>
   <i type="int" name="NKREDX">     1</i>
   <i type="int" name="NKREDY">     1</i>
   <i type="int" name="NKREDZ">     1</i>
   <i type="logical" name="SHIFTRED"> F  </i>
   <i type="logical" name="ODDONLY"> F  </i>
   <i type="logical" name="EVENONLY"> F  </i>
   <i type="int" name="LMAXFOCK">     0</i>
   <i type="int" name="NMAXFOCKAE">     0</i>
   <i type="logical" name="LFOCKAEDFT"> F  </i>
   <i name="HFSCREEN">      0.00000000</i>
   <i name="HFSCREENC">      0.00000000</i>
   <i type="int" name="NBANDSGWLOW">     0</i>
  </separator>
  <separator name="vdW DFT" >
   <i type="logical" name="LUSE_VDW"> F  </i>
   <i type="int" name="IVDW_NL">     1</i>
   <i type="logical" name="LSPIN_VDW"> F  </i>
   <i name="Zab_VDW">     -0.84910000</i>
   <i name="PARAM1">      0.12340000</i>
   <i name="PARAM2">      1.00000000</i>
   <i name="PARAM3">      0.00000000</i>
  </separator>
  <separator name="model GW" >
   <i type="int" name="MODEL_GW">     0</i>
   <i name="MODEL_EPS0">     54.08019838</i>
   <i name="MODEL_ALPHA">      1.00000000</i>
  </separator>
  <separator name="linear response parameters" >
   <i type="logical" name="LEPSILON"> F  </i>
   <i type="logical" name="LRPA"> F  </i>
   <i type="logical" name="LNABLA"> F  </i>
   <i type="logical" name="LVEL"> F  </i>
   <i name="CSHIFT">      0.10000000</i>
   <i name="OMEGAMAX">     -1.00000000</i>
   <i name="DEG_THRESHOLD">      0.00200000</i>
   <i name="RTIME">     -0.10000000</i>
   <i name="WPLASMAI">      0.00000000</i>
   <v name="DFIELD">      0.00000000      0.00000000      0.00000000</v>
   <v name="WPLASMA">      0.00000000      0.00000000      0.00000000      0.00000000      0.00000000      0.00000000      0.00000000      0.00000000      0.00000000</v>
  </separator>
  <separator name="orbital magnetization" >
   <i type="logical" name="NUCIND"> F  </i>
   <v name="MAGPOS">      0.00000000      0.00000000      0.00000000</v>
   <i type="logical" name="LNICSALL"> T  </i>
   <i type="logical" name="ORBITALMAG"> F  </i>
   <i type="logical" name="LMAGBLOCH"> F  </i>
   <i type="logical" name="LCHIMAG"> F  </i>
   <i type="logical" name="LGAUGE"> T  </i>
   <i type="int" name="MAGATOM">     0</i>
   <v name="MAGDIPOL">      0.00000000      0.00000000      0.00000000</v>
   <v name="AVECCONST">      0.00000000      0.00000000      0.00000000</v>
  </separator>
  <separator name="response functions" >
   <i type="logical" name="LALL_IN_ONE"> F  </i>
   <i type="int" name="IALL_IN_ONE">    -1</i>
   <i type="int" name="NBANDS_WAVE">    -1</i>
   <i type="logical" name="LFINITE_TEMPERATURE"> F  </i>
   <i type="logical" name="LADDER"> F  </i>
   <i type="logical" name="LRPAFORCE"> F  </i>
   <i type="logical" name="LFXC"> F  </i>
   <i type="logical" name="LHARTREE"> T  </i>
   <i type="int" name="IBSE">     0</i>
   <v type="int" name="KPOINT">    -1     0     0     0</v>
   <i type="logical" name="LTCTC"> F  </i>
   <i type="logical" name="LTCTE"> F  </i>
   <i type="logical" name="LTETE"> F  </i>
   <i type="logical" name="LTRIPLET"> F  </i>
   <i type="logical" name="LFXCEPS"> F  </i>
   <i type="logical" name="LFXHEG"> F  </i>
   <i type="int" name="NATURALO">     2</i>
   <i type="logical" name="LHOLEGF"> F  </i>
   <i type="logical" name="L2ORDER"> F  </i>
   <i type="logical" name="LDMP1"> F  </i>
   <i type="logical" name="LMP2LT"> F  </i>
   <i type="logical" name="LSMP2LT"> F  </i>
   <i type="logical" name="LGWLF"> F  </i>
   <i name="ENCUTGW">     -1.60000002</i>
   <i name="ENCUTGWSOFT">     -1.60000002</i>
   <i name="ENCUTLF">     -1.00000000</i>
   <i type="logical" name="LESF_SPLINES"> F  </i>
   <i type="int" name="LMAXMP2">    -1</i>
   <i name="SCISSOR">      0.00000000</i>
   <i type="int" name="NOMEGA">     0</i>
   <i type="int" name="NOMEGAR">     0</i>
   <i type="int" name="NBANDSGW">    -1</i>
   <i type="int" name="NBANDSO">    -1</i>
   <i type="int" name="NBANDSV">    -1</i>
   <i type="int" name="NELMGW">     1</i>
   <i type="int" name="NELMHF">     1</i>
   <i type="int" name="DIM">     3</i>
   <i type="int" name="IESPILON">     4</i>
   <i type="int" name="ANTIRES">     0</i>
   <i name="OMEGAMAX">    -30.00000000</i>
   <i name="OMEGAMIN">    -30.00000000</i>
   <i name="OMEGATL">   -200.00000000</i>
   <i type="int" name="OMEGAGRID">     0</i>
   <i name="CSHIFT">     -0.10000000</i>
   <i type="logical" name="LSELFENERGY"> F  </i>
   <i type="logical" name="LSPECTRAL"> F  </i>
   <i type="logical" name="LSPECTRALGW"> F  </i>
   <i type="logical" name="LSINGLES"> F  </i>
   <i type="logical" name="LFERMIGW"> F  </i>
   <i type="logical" name="ODDONLYGW"> F  </i>
   <i type="logical" name="EVENONLYGW"> F  </i>
   <i type="int" name="NKREDLFX">     1</i>
   <i type="int" name="NKREDLFY">     1</i>
   <i type="int" name="NKREDLFZ">     1</i>
   <i type="int" name="MAXMEM">  2800</i>
   <i type="int" name="TELESCOPE">     0</i>
   <i type="int" name="NTAUPAR">    -1</i>
   <i type="int" name="NOMEGAPAR">    -1</i>
   <i name="DAMP_NEWTON">      0.80000001</i>
   <i name="LAMBDA">      1.00000000</i>
  </separator>
  <separator name="External order field" >
   <i name="OFIELD_KAPPA">      0.00000000</i>
   <v name="OFIELD_K">      0.00000000      0.00000000      0.00000000</v>
   <i name="OFIELD_Q6_NEAR">      0.00000000</i>
   <i name="OFIELD_Q6_FAR">      0.00000000</i>
   <i name="OFIELD_A">      0.00000000</i>
  </separator>
  <separator name="optional k-points parameters" >
   <i type="int" name="KPOINTS_OPT_MODE">     1</i>
   <i type="logical" name="LKPOINTS_OPT"> F  </i>
  </separator>
 </parameters>
 <atominfo>
  <atoms>       2 </atoms>
  <types>       1 </types>
  <array name="atoms" >
   <dimension dim="1">ion</dimension>
   <field type="string">element</field>
   <field type="int">atomtype</field>
   <set>
    <rc><c>As</c><c>   1</c></rc>
    <rc><c>As</c><c>   1</c></rc>
   </set>
  </array>
  <array name="atomtypes" >
   <dimension dim="1">type</dimension>
   <field type="int">atomspertype</field>
   <field type="string">element</field>
   <field>mass</field>
   <field>valence</field>
   <field type="string">pseudopotential</field>
   <set>
    <rc><c>   2</c><c>As</c><c>     74.92200000</c><c>      5.00000000</c><c>  PAW_PBE As_GW 20Mar2012               </c></rc>
   </set>
  </array>
 </atominfo>
 <structure name="initialpos" >
  <crystal>
   <varray name="basis" >
    <v>       3.60689254       0.00000000       0.00000000 </v>
    <v>      -1.80344627       3.12366057       0.00000000 </v>
    <v>       0.00000000       0.00000000      16.00000000 </v>
   </varray>
   <i name="volume">    180.26732792 </i>
   <varray name="rec_basis" >
    <v>       0.27724696       0.16006861       0.00000000 </v>
    <v>       0.00000000       0.32013722       0.00000000 </v>
    <v>       0.00000000       0.00000000       0.06250000 </v>
   </varray>
  </crystal>
  <varray name="positions" >
   <v>       0.66666667       0.33333333       0.45634314 </v>
   <v>       0.33333333       0.66666667       0.54365686 </v>
  </varray>
 </structure>
 <calculation>
  <scstep>
   <time name="dav">    0.09    0.13</time>
   <time name="total">    0.26    0.31</time>
   <energy>
    <i name="alphaZ">      5.26383816 </i>
    <i name="ewald">    378.22030483 </i>
    <i name="hartreedc">   -664.27977220 </i>
    <i name="XCdc">    -23.94414315 </i>
    <i name="pawpsdc">    294.12882363 </i>
    <i name="pawaedc">   -251.25503797 </i>
    <i name="eentropy">     -0.00034805 </i>
    <i name="bandstr">    -56.05712573 </i>
    <i name="atom">    340.36393574 </i>
    <i name="e_fr_energy">     22.44047527 </i>
    <i name="e_wo_entrp">     22.44082332 </i>
    <i name="e_0_energy">     22.44064930 </i>
   </energy>
  </scstep>
  <scstep>
   <time name="dav">    0.13    0.13</time>
   <time name="total">    0.13    0.13</time>
   <energy>
    <i name="e_fr_energy">     -8.50843945 </i>
    <i name="e_wo_entrp">     -8.50843945 </i>
    <i name="e_0_energy">     -8.50843945 </i>
   </energy>
  </scstep>
  <scstep>
   <time name="dav">    0.11    0.11</time>
   <time name="total">    0.11    0.11</time>
   <energy>
    <i name="e_fr_energy">     -9.37542768 </i>
    <i name="e_wo_entrp">     -9.37542768 </i>
    <i name="e_0_energy">     -9.37542768 </i>
   </energy>
  </scstep>
  <scstep>
   <time name="dav">    0.17    0.17</time>
   <time name="total">    0.17    0.17</time>
   <energy>
    <i name="e_fr_energy">     -9.40224200 </i>
    <i name="e_wo_entrp">     -9.40224200 </i>
    <i name="e_0_energy">     -9.40224200 </i>
   </energy>
  </scstep>
  <scstep>
   <time name="dav">    0.12    0.12</time>
   <time name="total">    0.12    0.12</time>
   <energy>
    <i name="e_fr_energy">     -9.40231682 </i>
    <i name="e_wo_entrp">     -9.40231682 </i>
    <i name="e_0_energy">     -9.40231682 </i>
   </energy>
  </scstep>
  <scstep>
   <time name="dav">    0.17    0.17</time>
   <time name="total">    0.17    0.17</time>
   <energy>
    <i name="e_fr_energy">     -9.40231816 </i>
    <i name="e_wo_entrp">     -9.40231816 </i>
    <i name="e_0_energy">     -9.40231816 </i>
   </energy>
  </scstep>
  <scstep>
   <time name="dav">    0.14    0.14</time>
   <time name="total">    0.14    0.14</time>
   <energy>
    <i name="e_fr_energy">     -9.40231816 </i>
    <i name="e_wo_entrp">     -9.40231816 </i>
    <i name="e_0_energy">     -9.40231816 </i>
   </energy>
  </scstep>
  <scstep>
   <time name="dav">    0.15    0.15</time>
   <time name="total">    0.15    0.15</time>
   <energy>
    <i name="e_fr_energy">     -9.40231816 </i>
    <i name="e_wo_entrp">     -9.40231816 </i>
    <i name="e_0_energy">     -9.40231816 </i>
   </energy>
  </scstep>
  <scstep>
   <time name="dav">    0.09    0.09</time>
   <time name="total">    0.09    0.09</time>
   <energy>
    <i name="e_fr_energy">     -9.40231816 </i>
    <i name="e_wo_entrp">     -9.40231816 </i>
    <i name="e_0_energy">     -9.40231816 </i>
   </energy>
  </scstep>
  <scstep>
   <time name="dav">    0.08    0.08</time>
   <time name="total">    0.08    0.08</time>
   <energy>
    <i name="e_fr_energy">     -9.40231816 </i>
    <i name="e_wo_entrp">     -9.40231816 </i>
    <i name="e_0_energy">     -9.40231816 </i>
   </energy>
  </scstep>
  <scstep>
   <time name="dav">    0.07    0.07</time>
   <time name="total">    0.07    0.07</time>
   <energy>
    <i name="e_fr_energy">     -9.40231816 </i>
    <i name="e_wo_entrp">     -9.40231816 </i>
    <i name="e_0_energy">     -9.40231816 </i>
   </energy>
  </scstep>
  <scstep>
   <time name="dav">    0.07    0.07</time>
   <time name="total">    0.08    0.09</time>
   <energy>
    <i name="e_fr_energy">     -9.40231816 </i>
    <i name="e_wo_entrp">     -9.40231816 </i>
    <i name="e_0_energy">     -9.40231816 </i>
   </energy>
  </scstep>
  <scstep>
   <time name="dav">    0.12    0.12</time>
   <time name="total">    0.30    0.30</time>
   <energy>
    <i name="e_fr_energy">     -9.38772482 </i>
    <i name="e_wo_entrp">     -9.38772482 </i>
    <i name="e_0_energy">     -9.38772482 </i>
   </energy>
  </scstep>
  <scstep>
   <time name="dav">    0.14    0.14</time>
   <time name="total">    0.31    0.32</time>
   <energy>
    <i name="e_fr_energy">     -9.34530539 </i>
    <i name="e_wo_entrp">     -9.34530539 </i>
    <i name="e_0_energy">     -9.34530539 </i>
   </energy>
  </scstep>
  <scstep>
   <time name="dav">    0.15    0.15</time>
   <time name="total">    0.32    0.32</time>
   <energy>
    <i name="e_fr_energy">     -9.34155511 </i>
    <i name="e_wo_entrp">     -9.34155511 </i>
    <i name="e_0_energy">     -9.34155511 </i>
   </energy>
  </scstep>
  <scstep>
   <time name="dav">    0.11    0.11</time>
   <time name="total">    0.28    0.28</time>
   <energy>
    <i name="e_fr_energy">     -9.34167474 </i>
    <i name="e_wo_entrp">     -9.34167474 </i>
    <i name="e_0_energy">     -9.34167474 </i>
   </energy>
  </scstep>
  <scstep>
   <time name="dav">    0.14    0.14</time>
   <time name="total">    0.32    0.32</time>
   <energy>
    <i name="e_fr_energy">     -9.34157473 </i>
    <i name="e_wo_entrp">     -9.34157473 </i>
    <i name="e_0_energy">     -9.34157473 </i>
   </energy>
  </scstep>
  <scstep>
   <time name="dav">    0.10    0.10</time>
   <time name="total">    0.28    0.28</time>
   <energy>
    <i name="e_fr_energy">     -9.34158120 </i>
    <i name="e_wo_entrp">     -9.34158120 </i>
    <i name="e_0_energy">     -9.34158120 </i>
   </energy>
  </scstep>
  <scstep>
   <time name="dav">    0.12    0.12</time>
   <time name="total">    0.29    0.38</time>
   <energy>
    <i name="alphaZ">      5.26383816 </i>
    <i name="ewald">    378.22030483 </i>
    <i name="hartreedc">   -670.07695514 </i>
    <i name="XCdc">    -23.49291658 </i>
    <i name="pawpsdc">    332.33092744 </i>
    <i name="pawaedc">   -289.60331618 </i>
    <i name="eentropy">     -0.00000000 </i>
    <i name="bandstr">    -82.34739922 </i>
    <i name="atom">    340.36393574 </i>
    <i name="e_fr_energy">     -9.34158095 </i>
    <i name="e_wo_entrp">     -9.34158095 </i>
    <i name="e_0_energy">     -9.34158095 </i>
   </energy>
  </scstep>
  <structure>
   <crystal>
    <varray name="basis" >
     <v>       3.60689254       0.00000000       0.00000000 </v>
     <v>      -1.80344627       3.12366057       0.00000000 </v>
     <v>       0.00000000       0.00000000      16.00000000 </v>
    </varray>
    <i name="volume">    180.26732792 </i>
    <varray name="rec_basis" >
     <v>       0.27724696       0.16006861       0.00000000 </v>
     <v>       0.00000000       0.32013722       0.00000000 </v>
     <v>       0.00000000       0.00000000       0.06250000 </v>
    </varray>
   </crystal>
   <varray name="positions" >
    <v>       0.66666667       0.33333333       0.45634314 </v>
    <v>       0.33333333       0.66666667       0.54365686 </v>
   </varray>
  </structure>
  <varray name="forces" >
   <v>      -0.00000000      -0.00000000       0.00190597 </v>
   <v>       0.00000000       0.00000000      -0.00190597 </v>
  </varray>
  <varray name="stress" >
   <v>      -0.31943454      -0.00000000      -0.00000000 </v>
   <v>       0.00000000      -0.31943454      -0.00000000 </v>
   <v>       0.00000000       0.00000000      -0.41226876 </v>
  </varray>
  <energy>
   <i name="e_fr_energy">     -9.34158095 </i>
   <i name="e_wo_entrp">     -9.34158095 </i>
   <i name="e_0_energy">     -9.34158095 </i>
  </energy>
  <kpoints>
   <generation param="Gamma">
    <v type="int" name="divisions">      13       13        1 </v>
    <v name="usershift">      0.00000000       0.00000000       0.00000000 </v>
    <v name="genvec1">      0.07692308       0.00000000       0.00000000 </v>
    <v name="genvec2">      0.00000000       0.07692308       0.00000000 </v>
    <v name="genvec3">      0.00000000       0.00000000       1.00000000 </v>
    <v name="shift">      0.00000000       0.00000000       0.00000000 </v>
   </generation>
   <varray name="kpointlist" >
    <v>       0.00000000       0.00000000       0.00000000 </v>
    <v>       0.07692308       0.00000000       0.00000000 </v>
    <v>       0.00000000       0.07692308       0.00000000 </v>
    <v>      -0.07692308       0.07692308       0.00000000 </v>
    <v>       0.15384615       0.00000000       0.00000000 </v>
    <v>       0.00000000       0.15384615       0.00000000 </v>
    <v>      -0.15384615       0.15384615       0.00000000 </v>
    <v>       0.23076923      -0.00000000       0.00000000 </v>
    <v>       0.00000000       0.23076923       0.00000000 </v>
    <v>      -0.23076923       0.23076923       0.00000000 </v>
    <v>       0.30769231       0.00000000       0.00000000 </v>
    <v>       0.00000000       0.30769231       0.00000000 </v>
    <v>      -0.30769231       0.30769231       0.00000000 </v>
    <v>       0.38461538       0.00000000       0.00000000 </v>
    <v>       0.00000000       0.38461538       0.00000000 </v>
    <v>      -0.38461538       0.38461538       0.00000000 </v>
    <v>       0.46153846      -0.00000000       0.00000000 </v>
    <v>       0.00000000       0.46153846       0.00000000 </v>
    <v>      -0.46153846       0.46153846       0.00000000 </v>
    <v>       0.07692308       0.07692308       0.00000000 </v>
    <v>      -0.07692308       0.15384615       0.00000000 </v>
    <v>      -0.15384615       0.07692308       0.00000000 </v>
    <v>       0.15384615       0.07692308       0.00000000 </v>
    <v>      -0.07692308       0.23076923       0.00000000 </v>
    <v>      -0.23076923       0.15384615       0.00000000 </v>
    <v>      -0.15384615       0.23076923       0.00000000 </v>
    <v>       0.07692308       0.15384615       0.00000000 </v>
    <v>       0.23076923      -0.07692308       0.00000000 </v>
    <v>       0.23076923       0.07692308       0.00000000 </v>
    <v>      -0.07692308       0.30769231       0.00000000 </v>
    <v>      -0.30769231       0.23076923       0.00000000 </v>
    <v>      -0.23076923       0.30769231       0.00000000 </v>
    <v>       0.07692308       0.23076923       0.00000000 </v>
    <v>       0.30769231      -0.07692308       0.00000000 </v>
    <v>       0.30769231       0.07692308       0.00000000 </v>
    <v>      -0.07692308       0.38461538       0.00000000 </v>
    <v>      -0.38461538       0.30769231       0.00000000 </v>
    <v>      -0.30769231       0.38461538       0.00000000 </v>
    <v>       0.07692308       0.30769231       0.00000000 </v>
    <v>       0.38461538      -0.07692308       0.00000000 </v>
    <v>       0.38461538       0.07692308       0.00000000 </v>
    <v>      -0.07692308       0.46153846       0.00000000 </v>
    <v>      -0.46153846       0.38461538       0.00000000 </v>
    <v>      -0.38461538       0.46153846       0.00000000 </v>
    <v>       0.07692308       0.38461538       0.00000000 </v>
    <v>       0.46153846      -0.07692308       0.00000000 </v>
    <v>       0.46153846       0.07692308       0.00000000 </v>
    <v>      -0.07692308      -0.46153846       0.00000000 </v>
    <v>       0.46153846       0.46153846       0.00000000 </v>
    <v>       0.15384615       0.15384615       0.00000000 </v>
    <v>      -0.15384615       0.30769231       0.00000000 </v>
    <v>      -0.30769231       0.15384615       0.00000000 </v>
    <v>       0.23076923       0.15384615       0.00000000 </v>
    <v>      -0.15384615       0.38461538       0.00000000 </v>
    <v>      -0.38461538       0.23076923       0.00000000 </v>
    <v>      -0.23076923       0.38461538       0.00000000 </v>
    <v>       0.15384615       0.23076923       0.00000000 </v>
    <v>       0.38461538      -0.15384615       0.00000000 </v>
    <v>       0.30769231       0.15384615       0.00000000 </v>
    <v>      -0.15384615       0.46153846       0.00000000 </v>
    <v>      -0.46153846       0.30769231       0.00000000 </v>
    <v>      -0.30769231       0.46153846       0.00000000 </v>
    <v>       0.15384615       0.30769231       0.00000000 </v>
    <v>       0.46153846      -0.15384615       0.00000000 </v>
    <v>       0.38461538       0.15384615       0.00000000 </v>
    <v>      -0.15384615      -0.46153846       0.00000000 </v>
    <v>       0.46153846       0.38461538       0.00000000 </v>
    <v>      -0.38461538      -0.46153846       0.00000000 </v>
    <v>       0.15384615       0.38461538       0.00000000 </v>
    <v>      -0.46153846      -0.15384615       0.00000000 </v>
    <v>       0.23076923       0.23076923       0.00000000 </v>
    <v>      -0.23076923       0.46153846       0.00000000 </v>
    <v>      -0.46153846       0.23076923       0.00000000 </v>
    <v>       0.30769231       0.23076923       0.00000000 </v>
    <v>      -0.23076923      -0.46153846       0.00000000 </v>
    <v>       0.46153846       0.30769231       0.00000000 </v>
    <v>      -0.30769231      -0.46153846       0.00000000 </v>
    <v>       0.23076923       0.30769231       0.00000000 </v>
    <v>      -0.46153846      -0.23076923       0.00000000 </v>
    <v>       0.38461538       0.23076923       0.00000000 </v>
    <v>      -0.23076923      -0.38461538       0.00000000 </v>
    <v>       0.38461538       0.38461538       0.00000000 </v>
    <v>       0.30769231       0.30769231       0.00000000 </v>
    <v>      -0.30769231      -0.38461538       0.00000000 </v>
    <v>       0.38461538       0.30769231       0.00000000 </v>
   </varray>
   <varray name="weights" >
    <v>       0.00591716 </v>
    <v>       0.01183432 </v>
    <v>       0.01183432 </v>
    <v>       0.01183432 </v>
    <v>       0.01183432 </v>
    <v>       0.01183432 </v>
    <v>       0.01183432 </v>
    <v>       0.01183432 </v>
    <v>       0.01183432 </v>
    <v>       0.01183432 </v>
    <v>       0.01183432 </v>
    <v>       0.01183432 </v>
    <v>       0.01183432 </v>
    <v>       0.01183432 </v>
    <v>       0.01183432 </v>
    <v>       0.01183432 </v>
    <v>       0.01183432 </v>
    <v>       0.01183432 </v>
    <v>       0.01183432 </v>
    <v>       0.01183432 </v>
    <v>       0.01183432 </v>
    <v>       0.01183432 </v>
    <v>       0.01183432 </v>
    <v>       0.01183432 </v>
    <v>       0.01183432 </v>
    <v>       0.01183432 </v>
    <v>       0.01183432 </v>
    <v>       0.01183432 </v>
    <v>       0.01183432 </v>
    <v>       0.01183432 </v>
    <v>       0.01183432 </v>
    <v>       0.01183432 </v>
    <v>       0.01183432 </v>
    <v>       0.01183432 </v>
    <v>       0.01183432 </v>
    <v>       0.01183432 </v>
    <v>       0.01183432 </v>
    <v>       0.01183432 </v>
    <v>       0.01183432 </v>
    <v>       0.01183432 </v>
    <v>       0.01183432 </v>
    <v>       0.01183432 </v>
    <v>       0.01183432 </v>
    <v>       0.01183432 </v>
    <v>       0.01183432 </v>
    <v>       0.01183432 </v>
    <v>       0.01183432 </v>
    <v>       0.01183432 </v>
    <v>       0.01183432 </v>
    <v>       0.01183432 </v>
    <v>       0.01183432 </v>
    <v>       0.01183432 </v>
    <v>       0.01183432 </v>
    <v>       0.01183432 </v>
    <v>       0.01183432 </v>
    <v>       0.01183432 </v>
    <v>       0.01183432 </v>
    <v>       0.01183432 </v>
    <v>       0.01183432 </v>
    <v>       0.01183432 </v>
    <v>       0.01183432 </v>
    <v>       0.01183432 </v>
    <v>       0.01183432 </v>
    <v>       0.01183432 </v>
    <v>       0.01183432 </v>
    <v>       0.01183432 </v>
    <v>       0.01183432 </v>
    <v>       0.01183432 </v>
    <v>       0.01183432 </v>
    <v>       0.01183432 </v>
    <v>       0.01183432 </v>
    <v>       0.01183432 </v>
    <v>       0.01183432 </v>
    <v>       0.01183432 </v>
    <v>       0.01183432 </v>
    <v>       0.01183432 </v>
    <v>       0.01183432 </v>
    <v>       0.01183432 </v>
    <v>       0.01183432 </v>
    <v>       0.01183432 </v>
    <v>       0.01183432 </v>
    <v>       0.01183432 </v>
    <v>       0.01183432 </v>
    <v>       0.01183432 </v>
    <v>       0.01183432 </v>
   </varray>
  </kpoints>
  <scstep>
   <time name="total">    1.19    1.20</time>
   <energy>
    <i name="e_fr_energy">    -92.55922500 </i>
    <i name="e_wo_entrp">    -92.55922500 </i>
    <i name="e_0_energy">    -92.55922500 </i>
   </energy>
  </scstep>
  <scstep>
   <time name="total">    1.16    1.16</time>
   <energy>
    <i name="e_fr_energy">    -89.61101520 </i>
    <i name="e_wo_entrp">    -89.61101520 </i>
    <i name="e_0_energy">    -89.61101520 </i>
   </energy>
  </scstep>
  <scstep>
   <time name="total">    1.08    1.08</time>
   <energy>
    <i name="e_fr_energy">    -89.68409126 </i>
    <i name="e_wo_entrp">    -89.68409126 </i>
    <i name="e_0_energy">    -89.68409126 </i>
   </energy>
  </scstep>
  <scstep>
   <time name="total">    1.19    1.19</time>
   <energy>
    <i name="e_fr_energy">    -89.65412178 </i>
    <i name="e_wo_entrp">    -89.65412178 </i>
    <i name="e_0_energy">    -89.65412178 </i>
   </energy>
  </scstep>
  <scstep>
   <time name="total">    1.17    1.17</time>
   <energy>
    <i name="e_fr_energy">    -89.66610118 </i>
    <i name="e_wo_entrp">    -89.66610118 </i>
    <i name="e_0_energy">    -89.66610118 </i>
   </energy>
  </scstep>
  <scstep>
   <time name="total">    1.18    1.18</time>
   <energy>
    <i name="e_fr_energy">    -89.62411543 </i>
    <i name="e_wo_entrp">    -89.62411543 </i>
    <i name="e_0_energy">    -89.62411543 </i>
   </energy>
  </scstep>
  <scstep>
   <time name="total">    1.21    1.21</time>
   <energy>
    <i name="e_fr_energy">    -89.61858957 </i>
    <i name="e_wo_entrp">    -89.61858957 </i>
    <i name="e_0_energy">    -89.61858957 </i>
   </energy>
  </scstep>
  <scstep>
   <time name="total">    1.21    1.21</time>
   <energy>
    <i name="e_fr_energy">    -89.60990665 </i>
    <i name="e_wo_entrp">    -89.60990665 </i>
    <i name="e_0_energy">    -89.60990665 </i>
   </energy>
  </scstep>
  <scstep>
   <time name="total">    1.22    1.22</time>
   <energy>
    <i name="e_fr_energy">    -89.60983872 </i>
    <i name="e_wo_entrp">    -89.60983872 </i>
    <i name="e_0_energy">    -89.60983872 </i>
   </energy>
  </scstep>
  <kpoints>
   <generation param="Gamma">
    <v type="int" name="divisions">      13       13        1 </v>
    <v name="usershift">      0.00000000       0.00000000       0.00000000 </v>
    <v name="genvec1">      0.07692308       0.00000000       0.00000000 </v>
    <v name="genvec2">      0.00000000       0.07692308       0.00000000 </v>
    <v name="genvec3">      0.00000000       0.00000000       1.00000000 </v>
    <v name="shift">      0.00000000       0.00000000       0.00000000 </v>
   </generation>
   <varray name="kpointlist" >
    <v>       0.00000000       0.00000000       0.00000000 </v>
    <v>       0.07692308       0.00000000       0.00000000 </v>
    <v>       0.15384615       0.00000000       0.00000000 </v>
    <v>       0.23076923      -0.00000000       0.00000000 </v>
    <v>       0.30769231       0.00000000       0.00000000 </v>
    <v>       0.38461538       0.00000000       0.00000000 </v>
    <v>       0.46153846      -0.00000000       0.00000000 </v>
    <v>       0.07692308       0.07692308       0.00000000 </v>
    <v>       0.15384615       0.07692308       0.00000000 </v>
    <v>       0.23076923       0.07692308       0.00000000 </v>
    <v>       0.30769231       0.07692308       0.00000000 </v>
    <v>       0.38461538       0.07692308       0.00000000 </v>
    <v>       0.46153846       0.07692308       0.00000000 </v>
    <v>       0.15384615       0.15384615       0.00000000 </v>
    <v>       0.23076923       0.15384615       0.00000000 </v>
    <v>       0.30769231       0.15384615       0.00000000 </v>
    <v>       0.38461538       0.15384615       0.00000000 </v>
    <v>       0.23076923       0.23076923       0.00000000 </v>
    <v>       0.30769231       0.23076923       0.00000000 </v>
    <v>       0.38461538       0.23076923       0.00000000 </v>
    <v>       0.30769231       0.30769231       0.00000000 </v>
   </varray>
   <varray name="weights" >
    <v>       0.00591716 </v>
    <v>       0.03550296 </v>
    <v>       0.03550296 </v>
    <v>       0.03550296 </v>
    <v>       0.03550296 </v>
    <v>       0.03550296 </v>
    <v>       0.03550296 </v>
    <v>       0.03550296 </v>
    <v>       0.07100592 </v>
    <v>       0.07100592 </v>
    <v>       0.07100592 </v>
    <v>       0.07100592 </v>
    <v>       0.03550296 </v>
    <v>       0.03550296 </v>
    <v>       0.07100592 </v>
    <v>       0.07100592 </v>
    <v>       0.07100592 </v>
    <v>       0.03550296 </v>
    <v>       0.07100592 </v>
    <v>       0.03550296 </v>
    <v>       0.03550296 </v>
   </varray>
  </kpoints>
  <scstep>
   <time name="total">    0.77    0.77</time>
   <energy>
    <i name="e_fr_energy">   -156.72414946 </i>
    <i name="e_wo_entrp">   -156.72414946 </i>
    <i name="e_0_energy">   -156.72414946 </i>
   </energy>
  </scstep>
  <scstep>
   <time name="total">    0.79    0.79</time>
   <energy>
    <i name="e_fr_energy">   -153.38021580 </i>
    <i name="e_wo_entrp">   -153.38021580 </i>
    <i name="e_0_energy">   -153.38021580 </i>
   </energy>
  </scstep>
  <scstep>
   <time name="total">    0.77    0.77</time>
   <energy>
    <i name="e_fr_energy">   -153.11231288 </i>
    <i name="e_wo_entrp">   -153.11231288 </i>
    <i name="e_0_energy">   -153.11231288 </i>
   </energy>
  </scstep>
  <scstep>
   <time name="total">    0.79    0.79</time>
   <energy>
    <i name="e_fr_energy">   -151.85563961 </i>
    <i name="e_wo_entrp">   -151.85563961 </i>
    <i name="e_0_energy">   -151.85563961 </i>
   </energy>
  </scstep>
  <scstep>
   <time name="total">    0.79    0.79</time>
   <energy>
    <i name="e_fr_energy">   -151.73516676 </i>
    <i name="e_wo_entrp">   -151.73516676 </i>
    <i name="e_0_energy">   -151.73516676 </i>
   </energy>
  </scstep>
  <scstep>
   <time name="total">    0.79    0.79</time>
   <energy>
    <i name="e_fr_energy">   -151.79268113 </i>
    <i name="e_wo_entrp">   -151.79268113 </i>
    <i name="e_0_energy">   -151.79268113 </i>
   </energy>
  </scstep>
  <scstep>
   <time name="total">    0.80    0.80</time>
   <energy>
    <i name="e_fr_energy">   -151.84265317 </i>
    <i name="e_wo_entrp">   -151.84265317 </i>
    <i name="e_0_energy">   -151.84265317 </i>
   </energy>
  </scstep>
  <scstep>
   <time name="total">    0.80    0.80</time>
   <energy>
    <i name="e_fr_energy">   -151.86028139 </i>
    <i name="e_wo_entrp">   -151.86028139 </i>
    <i name="e_0_energy">   -151.86028139 </i>
   </energy>
  </scstep>
  <scstep>
   <time name="total">    0.80    0.80</time>
   <energy>
    <i name="e_fr_energy">   -151.85680124 </i>
    <i name="e_wo_entrp">   -151.85680124 </i>
    <i name="e_0_energy">   -151.85680124 </i>
   </energy>
  </scstep>
  <scstep>
   <time name="total">    0.80    0.80</time>
   <energy>
    <i name="e_fr_energy">   -151.86660066 </i>
    <i name="e_wo_entrp">   -151.86660066 </i>
    <i name="e_0_energy">   -151.86660066 </i>
   </energy>
  </scstep>
  <scstep>
   <time name="total">    0.80    0.80</time>
   <energy>
    <i name="e_fr_energy">   -151.86659272 </i>
    <i name="e_wo_entrp">   -151.86659272 </i>
    <i name="e_0_energy">   -151.86659272 </i>
   </energy>
  </scstep>
  <kpoints>
   <generation param="Gamma">
    <v type="int" name="divisions">      13       13        1 </v>
    <v name="usershift">      0.00000000       0.00000000       0.00000000 </v>
    <v name="genvec1">      0.07692308       0.00000000       0.00000000 </v>
    <v name="genvec2">      0.00000000       0.07692308       0.00000000 </v>
    <v name="genvec3">      0.00000000       0.00000000       1.00000000 </v>
    <v name="shift">      0.00000000       0.00000000       0.00000000 </v>
   </generation>
   <varray name="kpointlist" >
    <v>       0.00000000       0.00000000       0.00000000 </v>
    <v>       0.07692308       0.00000000       0.00000000 </v>
    <v>       0.15384615       0.00000000       0.00000000 </v>
    <v>       0.23076923      -0.00000000       0.00000000 </v>
    <v>       0.30769231       0.00000000       0.00000000 </v>
    <v>       0.38461538       0.00000000       0.00000000 </v>
    <v>       0.46153846      -0.00000000       0.00000000 </v>
    <v>       0.07692308       0.07692308       0.00000000 </v>
    <v>       0.15384615       0.07692308       0.00000000 </v>
    <v>       0.23076923       0.07692308       0.00000000 </v>
    <v>       0.30769231       0.07692308       0.00000000 </v>
    <v>       0.38461538       0.07692308       0.00000000 </v>
    <v>       0.46153846       0.07692308       0.00000000 </v>
    <v>       0.15384615       0.15384615       0.00000000 </v>
    <v>       0.23076923       0.15384615       0.00000000 </v>
    <v>       0.30769231       0.15384615       0.00000000 </v>
    <v>       0.38461538       0.15384615       0.00000000 </v>
    <v>       0.23076923       0.23076923       0.00000000 </v>
    <v>       0.30769231       0.23076923       0.00000000 </v>
    <v>       0.38461538       0.23076923       0.00000000 </v>
    <v>       0.30769231       0.30769231       0.00000000 </v>
   </varray>
   <varray name="weights" >
    <v>       0.00591716 </v>
    <v>       0.03550296 </v>
    <v>       0.03550296 </v>
    <v>       0.03550296 </v>
    <v>       0.03550296 </v>
    <v>       0.03550296 </v>
    <v>       0.03550296 </v>
    <v>       0.03550296 </v>
    <v>       0.07100592 </v>
    <v>       0.07100592 </v>
    <v>       0.07100592 </v>
    <v>       0.07100592 </v>
    <v>       0.03550296 </v>
    <v>       0.03550296 </v>
    <v>       0.07100592 </v>
    <v>       0.07100592 </v>
    <v>       0.07100592 </v>
    <v>       0.03550296 </v>
    <v>       0.07100592 </v>
    <v>       0.03550296 </v>
    <v>       0.03550296 </v>
   </varray>
  </kpoints>
  <dynmat>
   <i name="unit" type="string">THz^2 </i>
   <varray name="hessian" >
    <v>     -25.08814567      -0.00000000       0.00000000      25.08814567       0.00000000      -0.00000000 </v>
    <v>      -0.00000000     -25.08814567       0.00000000       0.00000000      25.08814567       0.00000000 </v>
    <v>       0.00000000       0.00000000     -41.77691120      -0.00000000       0.00000000      41.77691120 </v>
    <v>      25.08814567       0.00000000      -0.00000000     -25.08814567      -0.00000000       0.00000000 </v>
    <v>       0.00000000      25.08814567       0.00000000      -0.00000000     -25.08814567       0.00000000 </v>
    <v>      -0.00000000       0.00000000      41.77691120       0.00000000       0.00000000     -41.77691120 </v>
   </varray>
   <v name="eigenvalues"> -8.35538224E+001 -5.01762913E+001 -5.01762913E+001 -3.50278709E-015  0.00000000E+000  1.36611049E-014</v>
   <varray name="eigenvectors" >
    <v>   1.16917919E-022  0.00000000E+000 -7.07106781E-001 -1.16917919E-022  0.00000000E+000  7.07106781E-001</v>
    <v>  -7.43092510E-017 -7.07106781E-001  6.01460812E-039 -1.36561237E-016  7.07106781E-001  0.00000000E+000</v>
    <v>   7.07106781E-001  1.81877290E-017  2.33835838E-022 -7.07106781E-001 -1.81877290E-017  0.00000000E+000</v>
    <v>  -5.23774659E-002 -7.05164237E-001  2.34162062E-039 -5.23774659E-002 -7.05164237E-001  0.00000000E+000</v>
    <v>  -1.16917919E-022  0.00000000E+000  7.07106781E-001  1.16917919E-022  0.00000000E+000  7.07106781E-001</v>
    <v>   7.05164237E-001 -5.23774659E-002 -3.15260471E-038  7.05164237E-001 -5.23774659E-002  0.00000000E+000</v>
   </varray>
  </dynmat>
  <time name="totalsc">   30.22   31.25</time>
  <eigenvalues>
   <array>
    <dimension dim="1">band</dimension>
    <dimension dim="2">kpoint</dimension>
    <dimension dim="3">spin</dimension>
    <field>eigene</field>
    <field>occ</field>
    <set>
     <set comment="spin 1">
      <set comment="kpoint 1">
       <r>  -16.4748    1.0000 </r>
       <r>  -10.1870    1.0000 </r>
       <r>   -3.5628    1.0000 </r>
       <r>   -3.0138    1.0000 </r>
       <r>   -3.0138    1.0000 </r>
       <r>   -1.0918    0.0000 </r>
       <r>    0.4772    0.0000 </r>
       <r>    0.4772    0.0000 </r>
       <r>    1.9034    0.0000 </r>
       <r>    1.9965    0.0000 </r>
       <r>    3.3760    0.0000 </r>
       <r>    4.3040    0.0000 </r>
       <r>    5.8643    0.0000 </r>
       <r>    6.8854    0.0000 </r>
       <r>    7.0691    0.0000 </r>
       <r>    7.0691    0.0000 </r>
      </set>
      <set comment="kpoint 2">
       <r>  -16.3964    1.0000 </r>
       <r>  -10.1765    1.0000 </r>
       <r>   -3.8041    1.0000 </r>
       <r>   -3.5249    1.0000 </r>
       <r>   -3.1911    1.0000 </r>
       <r>   -0.5078    0.0000 </r>
       <r>    0.3555    0.0000 </r>
       <r>    0.6581    0.0000 </r>
       <r>    2.0158    0.0000 </r>
       <r>    2.0924    0.0000 </r>
       <r>    3.4620    0.0000 </r>
       <r>    4.3976    0.0000 </r>
       <r>    6.0391    0.0000 </r>
       <r>    6.2414    0.0000 </r>
       <r>    6.9923    0.0000 </r>
       <r>    7.4268    0.0000 </r>
      </set>
      <set comment="kpoint 3">
       <r>  -16.1632    1.0000 </r>
       <r>  -10.1790    1.0000 </r>
       <r>   -5.0253    1.0000 </r>
       <r>   -3.5988    1.0000 </r>
       <r>   -3.4377    1.0000 </r>
       <r>   -0.6743    0.0000 </r>
       <r>    0.9247    0.0000 </r>
       <r>    1.0353    0.0000 </r>
       <r>    2.2875    0.0000 </r>
       <r>    2.4042    0.0000 </r>
       <r>    3.6776    0.0000 </r>
       <r>    4.6434    0.0000 </r>
       <r>    5.3187    0.0000 </r>
       <r>    6.4814    0.0000 </r>
       <r>    7.0199    0.0000 </r>
       <r>    7.2310    0.0000 </r>
      </set>
      <set comment="kpoint 4">
       <r>  -15.7820    1.0000 </r>
       <r>  -10.3082    1.0000 </r>
       <r>   -6.0279    1.0000 </r>
       <r>   -4.0515    1.0000 </r>
       <r>   -3.4088    1.0000 </r>
       <r>   -1.1981    0.0000 </r>
       <r>    1.3106    0.0000 </r>
       <r>    1.3465    0.0000 </r>
       <r>    2.5965    0.0000 </r>
       <r>    2.8585    0.0000 </r>
       <r>    4.0275    0.0000 </r>
       <r>    4.8955    0.0000 </r>
       <r>    5.4605    0.0000 </r>
       <r>    6.1498    0.0000 </r>
       <r>    7.4645    0.0000 </r>
       <r>    7.5319    0.0000 </r>
      </set>
      <set comment="kpoint 5">
       <r>  -15.2699    1.0000 </r>
       <r>  -10.7194    1.0000 </r>
       <r>   -6.5579    1.0000 </r>
       <r>   -4.4426    1.0000 </r>
       <r>   -3.6307    1.0000 </r>
       <r>   -1.4171    0.0000 </r>
       <r>    0.9888    0.0000 </r>
       <r>    1.4858    0.0000 </r>
       <r>    3.1299    0.0000 </r>
       <r>    3.3433    0.0000 </r>
       <r>    4.2862    0.0000 </r>
       <r>    5.3665    0.0000 </r>
       <r>    5.6577    0.0000 </r>
       <r>    6.8992    0.0000 </r>
       <r>    7.4050    0.0000 </r>
       <r>    8.4044    0.0000 </r>
      </set>
      <set comment="kpoint 6">
       <r>  -14.6719    1.0000 </r>
       <r>  -11.3904    1.0000 </r>
       <r>   -6.6057    1.0000 </r>
       <r>   -4.7219    1.0000 </r>
       <r>   -4.0982    1.0000 </r>
       <r>   -1.2892    0.0000 </r>
       <r>    0.4978    0.0000 </r>
       <r>    1.5063    0.0000 </r>
       <r>    3.5027    0.0000 </r>
       <r>    3.9098    0.0000 </r>
       <r>    4.5722    0.0000 </r>
       <r>    5.7955    0.0000 </r>
       <r>    6.3795    0.0000 </r>
       <r>    6.8946    0.0000 </r>
       <r>    7.3972    0.0000 </r>
       <r>    7.9669    0.0000 </r>
      </set>
      <set comment="kpoint 7">
       <r>  -14.1462    1.0000 </r>
       <r>  -12.0091    1.0000 </r>
       <r>   -6.4464    1.0000 </r>
       <r>   -4.8662    1.0000 </r>
       <r>   -4.5107    1.0000 </r>
       <r>   -1.0845    0.0000 </r>
       <r>    0.1723    0.0000 </r>
       <r>    1.4928    0.0000 </r>
       <r>    3.3020    0.0000 </r>
       <r>    4.8555    0.0000 </r>
       <r>    5.2990    0.0000 </r>
       <r>    5.9062    0.0000 </r>
       <r>    6.2304    0.0000 </r>
       <r>    6.7218    0.0000 </r>
       <r>    7.3189    0.0000 </r>
       <r>    7.3711    0.0000 </r>
      </set>
      <set comment="kpoint 8">
       <r>  -16.2405    1.0000 </r>
       <r>  -10.1719    1.0000 </r>
       <r>   -4.6613    1.0000 </r>
       <r>   -3.5888    1.0000 </r>
       <r>   -3.4553    1.0000 </r>
       <r>   -0.0067    0.0000 </r>
       <r>    0.0333    0.0000 </r>
       <r>    1.1449    0.0000 </r>
       <r>    2.2425    0.0000 </r>
       <r>    2.2683    0.0000 </r>
       <r>    3.6024    0.0000 </r>
       <r>    4.5772    0.0000 </r>
       <r>    5.4462    0.0000 </r>
       <r>    6.6602    0.0000 </r>
       <r>    6.6714    0.0000 </r>
       <r>    7.3778    0.0000 </r>
      </set>
      <set comment="kpoint 9">
       <r>  -15.9330    1.0000 </r>
       <r>  -10.2337    1.0000 </r>
       <r>   -5.6297    1.0000 </r>
       <r>   -4.1685    1.0000 </r>
       <r>   -3.3828    1.0000 </r>
       <r>   -0.5349    0.0000 </r>
       <r>    0.6417    0.0000 </r>
       <r>    1.5621    0.0000 </r>
       <r>    2.5294    0.0000 </r>
       <r>    2.6583    0.0000 </r>
       <r>    3.8294    0.0000 </r>
       <r>    4.8435    0.0000 </r>
       <r>    5.1075    0.0000 </r>
       <r>    6.4469    0.0000 </r>
       <r>    7.2429    0.0000 </r>
       <r>    7.3407    0.0000 </r>
      </set>
      <set comment="kpoint 10">
       <r>  -15.4845    1.0000 </r>
       <r>  -10.5034    1.0000 </r>
       <r>   -6.3268    1.0000 </r>
       <r>   -4.6819    1.0000 </r>
       <r>   -3.4397    1.0000 </r>
       <r>   -0.9473    0.0000 </r>
       <r>    1.0477    0.0000 </r>
       <r>    1.4115    0.0000 </r>
       <r>    2.9102    0.0000 </r>
       <r>    3.1613    0.0000 </r>
       <r>    4.1831    0.0000 </r>
       <r>    5.1474    0.0000 </r>
       <r>    5.5131    0.0000 </r>
       <r>    6.2496    0.0000 </r>
       <r>    7.5493    0.0000 </r>
       <r>    8.0349    0.0000 </r>
      </set>
      <set comment="kpoint 11">
       <r>  -14.9212    1.0000 </r>
       <r>  -11.0660    1.0000 </r>
       <r>   -6.5796    1.0000 </r>
       <r>   -5.0370    1.0000 </r>
       <r>   -3.7728    1.0000 </r>
       <r>   -1.0035    0.0000 </r>
       <r>    0.8649    0.0000 </r>
       <r>    1.2156    0.0000 </r>
       <r>    3.5655    0.0000 </r>
       <r>    3.6298    0.0000 </r>
       <r>    4.4211    0.0000 </r>
       <r>    5.6231    0.0000 </r>
       <r>    6.0381    0.0000 </r>
       <r>    6.7064    0.0000 </r>
       <r>    7.6247    0.0000 </r>
       <r>    8.0361    0.0000 </r>
      </set>
      <set comment="kpoint 12">
       <r>  -14.3228    1.0000 </r>
       <r>  -11.7592    1.0000 </r>
       <r>   -6.5234    1.0000 </r>
       <r>   -5.1778    1.0000 </r>
       <r>   -4.2720    1.0000 </r>
       <r>   -0.7743    0.0000 </r>
       <r>    0.3329    0.0000 </r>
       <r>    1.2916    0.0000 </r>
       <r>    3.5212    0.0000 </r>
       <r>    4.4492    0.0000 </r>
       <r>    4.9828    0.0000 </r>
       <r>    6.1046    0.0000 </r>
       <r>    6.6660    0.0000 </r>
       <r>    6.8601    0.0000 </r>
       <r>    6.9696    0.0000 </r>
       <r>    7.6528    0.0000 </r>
      </set>
      <set comment="kpoint 13">
       <r>  -13.9908    1.0000 </r>
       <r>  -12.1405    1.0000 </r>
       <r>   -6.4537    1.0000 </r>
       <r>   -5.1460    1.0000 </r>
       <r>   -4.5707    1.0000 </r>
       <r>   -0.5662    0.0000 </r>
       <r>    0.0453    0.0000 </r>
       <r>    1.3252    0.0000 </r>
       <r>    3.3618    0.0000 </r>
       <r>    5.4324    0.0000 </r>
       <r>    5.4724    0.0000 </r>
       <r>    5.7810    0.0000 </r>
       <r>    6.0826    0.0000 </r>
       <r>    6.7401    0.0000 </r>
       <r>    7.2069    0.0000 </r>
       <r>    7.9301    0.0000 </r>
      </set>
      <set comment="kpoint 14">
       <r>  -15.5568    1.0000 </r>
       <r>  -10.4316    1.0000 </r>
       <r>   -6.1116    1.0000 </r>
       <r>   -4.9972    1.0000 </r>
       <r>   -3.3816    1.0000 </r>
       <r>   -0.2598    0.0000 </r>
       <r>    0.4642    0.0000 </r>
       <r>    1.6944    0.0000 </r>
       <r>    2.9434    0.0000 </r>
       <r>    2.9968    0.0000 </r>
       <r>    3.9576    0.0000 </r>
       <r>    5.0216    0.0000 </r>
       <r>    5.3177    0.0000 </r>
       <r>    6.3605    0.0000 </r>
       <r>    7.4692    0.0000 </r>
       <r>    7.8925    0.0000 </r>
      </set>
      <set comment="kpoint 15">
       <r>  -15.0504    1.0000 </r>
       <r>  -10.8700    1.0000 </r>
       <r>   -6.3626    1.0000 </r>
       <r>   -5.6201    1.0000 </r>
       <r>   -3.5668    1.0000 </r>
       <r>   -0.3439    0.0000 </r>
       <r>    0.5251    0.0000 </r>
       <r>    1.5473    0.0000 </r>
       <r>    3.4427    0.0000 </r>
       <r>    3.5796    0.0000 </r>
       <r>    4.3252    0.0000 </r>
       <r>    5.4398    0.0000 </r>
       <r>    5.9037    0.0000 </r>
       <r>    5.9421    0.0000 </r>
       <r>    7.5014    0.0000 </r>
       <r>    8.4319    0.0000 </r>
      </set>
      <set comment="kpoint 16">
       <r>  -14.4540    1.0000 </r>
       <r>  -11.5122    1.0000 </r>
       <r>   -6.5268    1.0000 </r>
       <r>   -5.7654    1.0000 </r>
       <r>   -3.9900    1.0000 </r>
       <r>   -0.3472    0.0000 </r>
       <r>    0.4858    0.0000 </r>
       <r>    1.3151    0.0000 </r>
       <r>    3.9200    0.0000 </r>
       <r>    4.2193    0.0000 </r>
       <r>    4.8000    0.0000 </r>
       <r>    5.9956    0.0000 </r>
       <r>    6.0999    0.0000 </r>
       <r>    6.7435    0.0000 </r>
       <r>    7.3929    0.0000 </r>
       <r>    7.6922    0.0000 </r>
      </set>
      <set comment="kpoint 17">
       <r>  -13.9124    1.0000 </r>
       <r>  -12.1151    1.0000 </r>
       <r>   -6.6723    1.0000 </r>
       <r>   -5.5198    1.0000 </r>
       <r>   -4.4716    1.0000 </r>
       <r>   -0.2838    0.0000 </r>
       <r>    0.4510    0.0000 </r>
       <r>    1.1731    0.0000 </r>
       <r>    3.7434    0.0000 </r>
       <r>    5.1720    0.0000 </r>
       <r>    5.5759    0.0000 </r>
       <r>    6.1791    0.0000 </r>
       <r>    6.3970    0.0000 </r>
       <r>    6.6122    0.0000 </r>
       <r>    7.2690    0.0000 </r>
       <r>    7.6715    0.0000 </r>
      </set>
      <set comment="kpoint 18">
       <r>  -14.5015    1.0000 </r>
       <r>  -11.4070    1.0000 </r>
       <r>   -6.4367    1.0000 </r>
       <r>   -6.1071    1.0000 </r>
       <r>   -3.8673    1.0000 </r>
       <r>   -0.1417    0.0000 </r>
       <r>    0.2304    0.0000 </r>
       <r>    1.8125    0.0000 </r>
       <r>    4.0900    0.0000 </r>
       <r>    4.1712    0.0000 </r>
       <r>    4.7699    0.0000 </r>
       <r>    5.5133    0.0000 </r>
       <r>    5.8113    0.0000 </r>
       <r>    6.6447    0.0000 </r>
       <r>    7.0387    0.0000 </r>
       <r>    8.5810    0.0000 </r>
      </set>
      <set comment="kpoint 19">
       <r>  -13.8953    1.0000 </r>
       <r>  -12.0325    1.0000 </r>
       <r>   -6.9284    1.0000 </r>
       <r>   -5.7038    1.0000 </r>
       <r>   -4.3166    1.0000 </r>
       <r>   -0.5688    0.0000 </r>
       <r>    0.7442    0.0000 </r>
       <r>    1.7014    0.0000 </r>
       <r>    4.4906    0.0000 </r>
       <r>    5.0048    0.0000 </r>
       <r>    5.3069    0.0000 </r>
       <r>    5.7303    0.0000 </r>
       <r>    6.1680    0.0000 </r>
       <r>    7.2087    0.0000 </r>
       <r>    7.4156    0.0000 </r>
       <r>    7.5460    0.0000 </r>
      </set>
      <set comment="kpoint 20">
       <r>  -13.5118    1.0000 </r>
       <r>  -12.4284    1.0000 </r>
       <r>   -7.0969    1.0000 </r>
       <r>   -5.3884    1.0000 </r>
       <r>   -4.6473    1.0000 </r>
       <r>   -0.7212    0.0000 </r>
       <r>    1.2317    0.0000 </r>
       <r>    1.3282    0.0000 </r>
       <r>    4.4366    0.0000 </r>
       <r>    5.4472    0.0000 </r>
       <r>    6.0464    0.0000 </r>
       <r>    6.0966    0.0000 </r>
       <r>    6.2191    0.0000 </r>
       <r>    6.8930    0.0000 </r>
       <r>    7.1392    0.0000 </r>
       <r>    7.9481    0.0000 </r>
      </set>
      <set comment="kpoint 21">
       <r>  -13.2994    1.0000 </r>
       <r>  -12.5978    1.0000 </r>
       <r>   -7.2920    1.0000 </r>
       <r>   -5.2693    1.0000 </r>
       <r>   -4.7263    1.0000 </r>
       <r>   -0.9370    0.0000 </r>
       <r>    1.2824    0.0000 </r>
       <r>    1.6966    0.0000 </r>
       <r>    5.1320    0.0000 </r>
       <r>    5.5435    0.0000 </r>
       <r>    5.6251    0.0000 </r>
       <r>    6.1631    0.0000 </r>
       <r>    6.6804    0.0000 </r>
       <r>    7.0096    0.0000 </r>
       <r>    7.2365    0.0000 </r>
       <r>    7.3822    0.0000 </r>
      </set>
     </set>
    </set>
   </array>
  </eigenvalues>
  <separator name="orbital magnetization" >
   <v name="MAGDIPOLOUT">      0.00000000      0.00000000      0.00000000</v>
  </separator>
  <dos>
   <i name="efermi">     -2.97305267 </i>
   <total>
    <array>
     <dimension dim="1">gridpoints</dimension>
     <dimension dim="2">spin</dimension>
     <field>energy</field>
     <field>total</field>
     <field>integrated</field>
     <set>
      <set comment="spin 1">
       <r>   -17.7276     0.0000     0.0000 </r>
       <r>   -17.7230     0.0000     0.0000 </r>
       <r>   -17.7184     0.0000     0.0000 </r>
       <r>   -17.7138     0.0000     0.0000 </r>
       <r>   -17.7092     0.0000     0.0000 </r>
       <r>   -17.7046     0.0000     0.0000 </r>
       <r>   -17.7000     0.0000     0.0000 </r>
       <r>   -17.6954     0.0000     0.0000 </r>
       <r>   -17.6908     0.0000     0.0000 </r>
       <r>   -17.6862     0.0000     0.0000 </r>
       <r>   -17.6816     0.0000     0.0000 </r>
       <r>   -17.6770     0.0000     0.0000 </r>
       <r>   -17.6725     0.0000     0.0000 </r>
       <r>   -17.6679     0.0000     0.0000 </r>
       <r>   -17.6633     0.0000     0.0000 </r>
       <r>   -17.6587     0.0000     0.0000 </r>
       <r>   -17.6541     0.0000     0.0000 </r>
       <r>   -17.6495     0.0000     0.0000 </r>
       <r>   -17.6449     0.0000     0.0000 </r>
       <r>   -17.6403     0.0000     0.0000 </r>
       <r>   -17.6357     0.0000     0.0000 </r>
       <r>   -17.6311     0.0000     0.0000 </r>
       <r>   -17.6265     0.0000     0.0000 </r>
       <r>   -17.6219     0.0000     0.0000 </r>
       <r>   -17.6173     0.0000     0.0000 </r>
       <r>   -17.6127     0.0000     0.0000 </r>
       <r>   -17.6081     0.0000     0.0000 </r>
       <r>   -17.6036     0.0000     0.0000 </r>
       <r>   -17.5990     0.0000     0.0000 </r>
       <r>   -17.5944     0.0000     0.0000 </r>
       <r>   -17.5898     0.0000     0.0000 </r>
       <r>   -17.5852     0.0000     0.0000 </r>
       <r>   -17.5806     0.0000     0.0000 </r>
       <r>   -17.5760     0.0000     0.0000 </r>
       <r>   -17.5714     0.0000     0.0000 </r>
       <r>   -17.5668     0.0000     0.0000 </r>
       <r>   -17.5622     0.0000     0.0000 </r>
       <r>   -17.5576     0.0000     0.0000 </r>
       <r>   -17.5530     0.0000     0.0000 </r>
       <r>   -17.5484     0.0000     0.0000 </r>
       <r>   -17.5438     0.0000     0.0000 </r>
       <r>   -17.5392     0.0000     0.0000 </r>
       <r>   -17.5346     0.0000     0.0000 </r>
       <r>   -17.5301     0.0000     0.0000 </r>
       <r>   -17.5255     0.0000     0.0000 </r>
       <r>   -17.5209     0.0000     0.0000 </r>
       <r>   -17.5163     0.0000     0.0000 </r>
       <r>   -17.5117     0.0000     0.0000 </r>
       <r>   -17.5071     0.0000     0.0000 </r>
       <r>   -17.5025     0.0000     0.0000 </r>
       <r>   -17.4979     0.0000     0.0000 </r>
       <r>   -17.4933     0.0000     0.0000 </r>
       <r>   -17.4887     0.0000     0.0000 </r>
       <r>   -17.4841     0.0000     0.0000 </r>
       <r>   -17.4795     0.0000     0.0000 </r>
       <r>   -17.4749     0.0000     0.0000 </r>
       <r>   -17.4703     0.0000     0.0000 </r>
       <r>   -17.4657     0.0000     0.0000 </r>
       <r>   -17.4612     0.0000     0.0000 </r>
       <r>   -17.4566     0.0000     0.0000 </r>
       <r>   -17.4520     0.0000     0.0000 </r>
       <r>   -17.4474     0.0000     0.0000 </r>
       <r>   -17.4428     0.0000     0.0000 </r>
       <r>   -17.4382     0.0000     0.0000 </r>
       <r>   -17.4336     0.0000     0.0000 </r>
       <r>   -17.4290     0.0000     0.0000 </r>
       <r>   -17.4244     0.0000     0.0000 </r>
       <r>   -17.4198     0.0000     0.0000 </r>
       <r>   -17.4152     0.0000     0.0000 </r>
       <r>   -17.4106     0.0000     0.0000 </r>
       <r>   -17.4060     0.0000     0.0000 </r>
       <r>   -17.4014     0.0000     0.0000 </r>
       <r>   -17.3968     0.0000     0.0000 </r>
       <r>   -17.3922     0.0000     0.0000 </r>
       <r>   -17.3877     0.0000     0.0000 </r>
       <r>   -17.3831     0.0000     0.0000 </r>
       <r>   -17.3785     0.0000     0.0000 </r>
       <r>   -17.3739     0.0000     0.0000 </r>
       <r>   -17.3693     0.0000     0.0000 </r>
       <r>   -17.3647     0.0000     0.0000 </r>
       <r>   -17.3601     0.0000     0.0000 </r>
       <r>   -17.3555     0.0000     0.0000 </r>
       <r>   -17.3509     0.0000     0.0000 </r>
       <r>   -17.3463     0.0000     0.0000 </r>
       <r>   -17.3417     0.0000     0.0000 </r>
       <r>   -17.3371     0.0000     0.0000 </r>
       <r>   -17.3325     0.0000     0.0000 </r>
       <r>   -17.3279     0.0000     0.0000 </r>
       <r>   -17.3233     0.0000     0.0000 </r>
       <r>   -17.3188     0.0000     0.0000 </r>
       <r>   -17.3142     0.0000     0.0000 </r>
       <r>   -17.3096     0.0000     0.0000 </r>
       <r>   -17.3050     0.0000     0.0000 </r>
       <r>   -17.3004     0.0000     0.0000 </r>
       <r>   -17.2958     0.0000     0.0000 </r>
       <r>   -17.2912     0.0000     0.0000 </r>
       <r>   -17.2866     0.0000     0.0000 </r>
       <r>   -17.2820     0.0000     0.0000 </r>
       <r>   -17.2774     0.0000     0.0000 </r>
       <r>   -17.2728     0.0000     0.0000 </r>
       <r>   -17.2682     0.0000     0.0000 </r>
       <r>   -17.2636     0.0000     0.0000 </r>
       <r>   -17.2590     0.0000     0.0000 </r>
       <r>   -17.2544     0.0000     0.0000 </r>
       <r>   -17.2498     0.0000     0.0000 </r>
       <r>   -17.2453     0.0000     0.0000 </r>
       <r>   -17.2407     0.0000     0.0000 </r>
       <r>   -17.2361     0.0000     0.0000 </r>
       <r>   -17.2315     0.0000     0.0000 </r>
       <r>   -17.2269     0.0000     0.0000 </r>
       <r>   -17.2223     0.0000     0.0000 </r>
       <r>   -17.2177     0.0000     0.0000 </r>
       <r>   -17.2131     0.0000     0.0000 </r>
       <r>   -17.2085     0.0000     0.0000 </r>
       <r>   -17.2039     0.0000     0.0000 </r>
       <r>   -17.1993     0.0000     0.0000 </r>
       <r>   -17.1947     0.0000     0.0000 </r>
       <r>   -17.1901     0.0000     0.0000 </r>
       <r>   -17.1855     0.0000     0.0000 </r>
       <r>   -17.1809     0.0000     0.0000 </r>
       <r>   -17.1764     0.0000     0.0000 </r>
       <r>   -17.1718     0.0000     0.0000 </r>
       <r>   -17.1672     0.0000     0.0000 </r>
       <r>   -17.1626     0.0000     0.0000 </r>
       <r>   -17.1580     0.0000     0.0000 </r>
       <r>   -17.1534     0.0000     0.0000 </r>
       <r>   -17.1488     0.0000     0.0000 </r>
       <r>   -17.1442     0.0000     0.0000 </r>
       <r>   -17.1396     0.0000     0.0000 </r>
       <r>   -17.1350     0.0000     0.0000 </r>
       <r>   -17.1304     0.0000     0.0000 </r>
       <r>   -17.1258     0.0000     0.0000 </r>
       <r>   -17.1212     0.0000     0.0000 </r>
       <r>   -17.1166     0.0000     0.0000 </r>
       <r>   -17.1120     0.0000     0.0000 </r>
       <r>   -17.1074     0.0000     0.0000 </r>
       <r>   -17.1029     0.0000     0.0000 </r>
       <r>   -17.0983     0.0000     0.0000 </r>
       <r>   -17.0937     0.0000     0.0000 </r>
       <r>   -17.0891     0.0000     0.0000 </r>
       <r>   -17.0845     0.0000     0.0000 </r>
       <r>   -17.0799     0.0000     0.0000 </r>
       <r>   -17.0753     0.0000     0.0000 </r>
       <r>   -17.0707     0.0000     0.0000 </r>
       <r>   -17.0661     0.0000     0.0000 </r>
       <r>   -17.0615     0.0000     0.0000 </r>
       <r>   -17.0569     0.0000     0.0000 </r>
       <r>   -17.0523     0.0000     0.0000 </r>
       <r>   -17.0477     0.0000     0.0000 </r>
       <r>   -17.0431     0.0000     0.0000 </r>
       <r>   -17.0385     0.0000     0.0000 </r>
       <r>   -17.0340     0.0000     0.0000 </r>
       <r>   -17.0294     0.0000     0.0000 </r>
       <r>   -17.0248     0.0000     0.0000 </r>
       <r>   -17.0202     0.0000     0.0000 </r>
       <r>   -17.0156     0.0000     0.0000 </r>
       <r>   -17.0110     0.0000     0.0000 </r>
       <r>   -17.0064     0.0000     0.0000 </r>
       <r>   -17.0018     0.0000     0.0000 </r>
       <r>   -16.9972     0.0000     0.0000 </r>
       <r>   -16.9926     0.0000     0.0000 </r>
       <r>   -16.9880     0.0000     0.0000 </r>
       <r>   -16.9834     0.0000     0.0000 </r>
       <r>   -16.9788     0.0000     0.0000 </r>
       <r>   -16.9742     0.0000     0.0000 </r>
       <r>   -16.9696     0.0000     0.0000 </r>
       <r>   -16.9650     0.0000     0.0000 </r>
       <r>   -16.9605     0.0000     0.0000 </r>
       <r>   -16.9559     0.0000     0.0000 </r>
       <r>   -16.9513     0.0000     0.0000 </r>
       <r>   -16.9467     0.0000     0.0000 </r>
       <r>   -16.9421     0.0000     0.0000 </r>
       <r>   -16.9375     0.0000     0.0000 </r>
       <r>   -16.9329     0.0000     0.0000 </r>
       <r>   -16.9283     0.0000     0.0000 </r>
       <r>   -16.9237     0.0000     0.0000 </r>
       <r>   -16.9191     0.0000     0.0000 </r>
       <r>   -16.9145     0.0000     0.0000 </r>
       <r>   -16.9099     0.0000     0.0000 </r>
       <r>   -16.9053     0.0000     0.0000 </r>
       <r>   -16.9007     0.0000     0.0000 </r>
       <r>   -16.8961     0.0000     0.0000 </r>
       <r>   -16.8916     0.0000     0.0000 </r>
       <r>   -16.8870     0.0000     0.0000 </r>
       <r>   -16.8824     0.0000     0.0000 </r>
       <r>   -16.8778     0.0000     0.0000 </r>
       <r>   -16.8732     0.0000     0.0000 </r>
       <r>   -16.8686     0.0000     0.0000 </r>
       <r>   -16.8640     0.0000     0.0000 </r>
       <r>   -16.8594     0.0000     0.0000 </r>
       <r>   -16.8548     0.0000     0.0000 </r>
       <r>   -16.8502     0.0000     0.0000 </r>
       <r>   -16.8456     0.0000     0.0000 </r>
       <r>   -16.8410     0.0000     0.0000 </r>
       <r>   -16.8364     0.0000     0.0000 </r>
       <r>   -16.8318     0.0000     0.0000 </r>
       <r>   -16.8272     0.0000     0.0000 </r>
       <r>   -16.8226     0.0000     0.0000 </r>
       <r>   -16.8181     0.0000     0.0000 </r>
       <r>   -16.8135     0.0000     0.0000 </r>
       <r>   -16.8089     0.0000     0.0000 </r>
       <r>   -16.8043     0.0000     0.0000 </r>
       <r>   -16.7997     0.0000     0.0000 </r>
       <r>   -16.7951     0.0000     0.0000 </r>
       <r>   -16.7905     0.0000     0.0000 </r>
       <r>   -16.7859     0.0000     0.0000 </r>
       <r>   -16.7813     0.0000     0.0000 </r>
       <r>   -16.7767     0.0000     0.0000 </r>
       <r>   -16.7721     0.0000     0.0000 </r>
       <r>   -16.7675     0.0000     0.0000 </r>
       <r>   -16.7629     0.0000     0.0000 </r>
       <r>   -16.7583     0.0000     0.0000 </r>
       <r>   -16.7537     0.0000     0.0000 </r>
       <r>   -16.7492     0.0000     0.0000 </r>
       <r>   -16.7446     0.0000     0.0000 </r>
       <r>   -16.7400     0.0000     0.0000 </r>
       <r>   -16.7354     0.0000     0.0000 </r>
       <r>   -16.7308     0.0000     0.0000 </r>
       <r>   -16.7262     0.0000     0.0000 </r>
       <r>   -16.7216     0.0000     0.0000 </r>
       <r>   -16.7170     0.0000     0.0000 </r>
       <r>   -16.7124     0.0000     0.0000 </r>
       <r>   -16.7078     0.0000     0.0000 </r>
       <r>   -16.7032     0.0000     0.0000 </r>
       <r>   -16.6986     0.0000     0.0000 </r>
       <r>   -16.6940     0.0000     0.0000 </r>
       <r>   -16.6894     0.0000     0.0000 </r>
       <r>   -16.6848     0.0000     0.0000 </r>
       <r>   -16.6802     0.0000     0.0000 </r>
       <r>   -16.6757     0.0000     0.0000 </r>
       <r>   -16.6711     0.0000     0.0000 </r>
       <r>   -16.6665     0.0000     0.0000 </r>
       <r>   -16.6619     0.0000     0.0000 </r>
       <r>   -16.6573     0.0000     0.0000 </r>
       <r>   -16.6527     0.0000     0.0000 </r>
       <r>   -16.6481     0.0000     0.0000 </r>
       <r>   -16.6435     0.0000     0.0000 </r>
       <r>   -16.6389     0.0000     0.0000 </r>
       <r>   -16.6343     0.0000     0.0000 </r>
       <r>   -16.6297     0.0000     0.0000 </r>
       <r>   -16.6251     0.0000     0.0000 </r>
       <r>   -16.6205     0.0000     0.0000 </r>
       <r>   -16.6159     0.0000     0.0000 </r>
       <r>   -16.6113     0.0000     0.0000 </r>
       <r>   -16.6067     0.0000     0.0000 </r>
       <r>   -16.6022     0.0000     0.0000 </r>
       <r>   -16.5976     0.0000     0.0000 </r>
       <r>   -16.5930     0.0000     0.0000 </r>
       <r>   -16.5884     0.0000     0.0000 </r>
       <r>   -16.5838     0.0000     0.0000 </r>
       <r>   -16.5792     0.0000     0.0000 </r>
       <r>   -16.5746     0.0000     0.0000 </r>
       <r>   -16.5700     0.0000     0.0000 </r>
       <r>   -16.5654     0.0000     0.0000 </r>
       <r>   -16.5608     0.0000     0.0000 </r>
       <r>   -16.5562     0.0000     0.0000 </r>
       <r>   -16.5516     0.0000     0.0000 </r>
       <r>   -16.5470     0.0000     0.0000 </r>
       <r>   -16.5424     0.0000     0.0000 </r>
       <r>   -16.5378     0.0000     0.0000 </r>
       <r>   -16.5333     0.0000     0.0000 </r>
       <r>   -16.5287     0.0000     0.0000 </r>
       <r>   -16.5241     0.0000     0.0000 </r>
       <r>   -16.5195     0.0000     0.0000 </r>
       <r>   -16.5149     0.0000     0.0000 </r>
       <r>   -16.5103     0.0000     0.0000 </r>
       <r>   -16.5057     0.0000     0.0000 </r>
       <r>   -16.5011     0.0002     0.0000 </r>
       <r>   -16.4965     0.0025     0.0000 </r>
       <r>   -16.4919     0.0172     0.0001 </r>
       <r>   -16.4873     0.0785     0.0005 </r>
       <r>   -16.4827     0.2388     0.0015 </r>
       <r>   -16.4781     0.4828     0.0038 </r>
       <r>   -16.4735     0.6493     0.0067 </r>
       <r>   -16.4689     0.5810     0.0094 </r>
       <r>   -16.4643     0.3459     0.0110 </r>
       <r>   -16.4598     0.1370     0.0116 </r>
       <r>   -16.4552     0.0361     0.0118 </r>
       <r>   -16.4506     0.0063     0.0118 </r>
       <r>   -16.4460     0.0007     0.0118 </r>
       <r>   -16.4414     0.0001     0.0118 </r>
       <r>   -16.4368     0.0000     0.0118 </r>
       <r>   -16.4322     0.0000     0.0118 </r>
       <r>   -16.4276     0.0001     0.0118 </r>
       <r>   -16.4230     0.0012     0.0118 </r>
       <r>   -16.4184     0.0130     0.0119 </r>
       <r>   -16.4138     0.0920     0.0123 </r>
       <r>   -16.4092     0.4321     0.0143 </r>
       <r>   -16.4046     1.3492     0.0205 </r>
       <r>   -16.4000     2.8011     0.0334 </r>
       <r>   -16.3954     3.8687     0.0511 </r>
       <r>   -16.3909     3.5552     0.0675 </r>
       <r>   -16.3863     2.1737     0.0775 </r>
       <r>   -16.3817     0.8840     0.0815 </r>
       <r>   -16.3771     0.2390     0.0826 </r>
       <r>   -16.3725     0.0429     0.0828 </r>
       <r>   -16.3679     0.0051     0.0828 </r>
       <r>   -16.3633     0.0004     0.0828 </r>
       <r>   -16.3587     0.0000     0.0828 </r>
       <r>   -16.3541     0.0000     0.0828 </r>
       <r>   -16.3495     0.0000     0.0828 </r>
       <r>   -16.3449     0.0000     0.0828 </r>
       <r>   -16.3403     0.0000     0.0828 </r>
       <r>   -16.3357     0.0000     0.0828 </r>
       <r>   -16.3311     0.0000     0.0828 </r>
       <r>   -16.3265     0.0000     0.0828 </r>
       <r>   -16.3219     0.0000     0.0828 </r>
       <r>   -16.3174     0.0000     0.0828 </r>
       <r>   -16.3128     0.0000     0.0828 </r>
       <r>   -16.3082     0.0000     0.0828 </r>
       <r>   -16.3036     0.0000     0.0828 </r>
       <r>   -16.2990     0.0000     0.0828 </r>
       <r>   -16.2944     0.0000     0.0828 </r>
       <r>   -16.2898     0.0000     0.0828 </r>
       <r>   -16.2852     0.0000     0.0828 </r>
       <r>   -16.2806     0.0000     0.0828 </r>
       <r>   -16.2760     0.0000     0.0828 </r>
       <r>   -16.2714     0.0001     0.0828 </r>
       <r>   -16.2668     0.0015     0.0828 </r>
       <r>   -16.2622     0.0151     0.0829 </r>
       <r>   -16.2576     0.1039     0.0834 </r>
       <r>   -16.2530     0.4745     0.0856 </r>
       <r>   -16.2485     1.4395     0.0922 </r>
       <r>   -16.2439     2.9040     0.1055 </r>
       <r>   -16.2393     3.8974     0.1234 </r>
       <r>   -16.2347     3.4802     0.1394 </r>
       <r>   -16.2301     2.0677     0.1489 </r>
       <r>   -16.2255     0.8171     0.1527 </r>
       <r>   -16.2209     0.2146     0.1537 </r>
       <r>   -16.2163     0.0375     0.1538 </r>
       <r>   -16.2117     0.0043     0.1538 </r>
       <r>   -16.2071     0.0003     0.1538 </r>
       <r>   -16.2025     0.0000     0.1538 </r>
       <r>   -16.1979     0.0000     0.1538 </r>
       <r>   -16.1933     0.0001     0.1538 </r>
       <r>   -16.1887     0.0021     0.1539 </r>
       <r>   -16.1841     0.0208     0.1540 </r>
       <r>   -16.1795     0.1346     0.1546 </r>
       <r>   -16.1750     0.5772     0.1572 </r>
       <r>   -16.1704     1.6452     0.1648 </r>
       <r>   -16.1658     3.1187     0.1791 </r>
       <r>   -16.1612     3.9329     0.1972 </r>
       <r>   -16.1566     3.3000     0.2123 </r>
       <r>   -16.1520     1.8423     0.2208 </r>
       <r>   -16.1474     0.6840     0.2239 </r>
       <r>   -16.1428     0.1688     0.2247 </r>
       <r>   -16.1382     0.0277     0.2248 </r>
       <r>   -16.1336     0.0030     0.2249 </r>
       <r>   -16.1290     0.0002     0.2249 </r>
       <r>   -16.1244     0.0000     0.2249 </r>
       <r>   -16.1198     0.0000     0.2249 </r>
       <r>   -16.1152     0.0000     0.2249 </r>
       <r>   -16.1106     0.0000     0.2249 </r>
       <r>   -16.1061     0.0000     0.2249 </r>
       <r>   -16.1015     0.0000     0.2249 </r>
       <r>   -16.0969     0.0000     0.2249 </r>
       <r>   -16.0923     0.0000     0.2249 </r>
       <r>   -16.0877     0.0000     0.2249 </r>
       <r>   -16.0831     0.0000     0.2249 </r>
       <r>   -16.0785     0.0000     0.2249 </r>
       <r>   -16.0739     0.0000     0.2249 </r>
       <r>   -16.0693     0.0000     0.2249 </r>
       <r>   -16.0647     0.0000     0.2249 </r>
       <r>   -16.0601     0.0000     0.2249 </r>
       <r>   -16.0555     0.0000     0.2249 </r>
       <r>   -16.0509     0.0000     0.2249 </r>
       <r>   -16.0463     0.0000     0.2249 </r>
       <r>   -16.0417     0.0000     0.2249 </r>
       <r>   -16.0371     0.0000     0.2249 </r>
       <r>   -16.0326     0.0000     0.2249 </r>
       <r>   -16.0280     0.0000     0.2249 </r>
       <r>   -16.0234     0.0000     0.2249 </r>
       <r>   -16.0188     0.0000     0.2249 </r>
       <r>   -16.0142     0.0000     0.2249 </r>
       <r>   -16.0096     0.0000     0.2249 </r>
       <r>   -16.0050     0.0000     0.2249 </r>
       <r>   -16.0004     0.0000     0.2249 </r>
       <r>   -15.9958     0.0000     0.2249 </r>
       <r>   -15.9912     0.0000     0.2249 </r>
[...]
       </set>
       <set comment="band 13">
        <r>  0.0061  0.0315  0.0213 </r>
        <r>  0.0061  0.0315  0.0213 </r>
       </set>
       <set comment="band 14">
        <r>  0.0048  0.0455  0.0051 </r>
        <r>  0.0048  0.0455  0.0051 </r>
       </set>
       <set comment="band 15">
        <r>  0.0057  0.0166  0.0110 </r>
        <r>  0.0057  0.0166  0.0110 </r>
       </set>
       <set comment="band 16">
        <r>  0.0029  0.0121  0.0137 </r>
        <r>  0.0029  0.0121  0.0137 </r>
       </set>
      </set>
      <set comment="kpoint 13">
       <set comment="band 1">
        <r>  0.2909  0.0206  0.0026 </r>
        <r>  0.2909  0.0206  0.0026 </r>
       </set>
       <set comment="band 2">
        <r>  0.2775  0.0375  0.0030 </r>
        <r>  0.2775  0.0375  0.0030 </r>
       </set>
       <set comment="band 3">
        <r>  0.0627  0.1675  0.0016 </r>
        <r>  0.0627  0.1675  0.0016 </r>
       </set>
       <set comment="band 4">
        <r>  0.0017  0.2356  0.0081 </r>
        <r>  0.0017  0.2356  0.0081 </r>
       </set>
       <set comment="band 5">
        <r>  0.0342  0.1958  0.0016 </r>
        <r>  0.0342  0.1958  0.0016 </r>
       </set>
       <set comment="band 6">
        <r>  0.0342  0.1558  0.0282 </r>
        <r>  0.0342  0.1558  0.0282 </r>
       </set>
       <set comment="band 7">
        <r>  0.0010  0.1742  0.0190 </r>
        <r>  0.0010  0.1742  0.0190 </r>
       </set>
       <set comment="band 8">
        <r>  0.0055  0.2367  0.0154 </r>
        <r>  0.0055  0.2367  0.0154 </r>
       </set>
       <set comment="band 9">
        <r>  0.0000  0.0156  0.0558 </r>
        <r>  0.0000  0.0156  0.0558 </r>
       </set>
       <set comment="band 10">
        <r>  0.0138  0.0193  0.0072 </r>
        <r>  0.0138  0.0193  0.0072 </r>
       </set>
       <set comment="band 11">
        <r>  0.0067  0.0058  0.0140 </r>
        <r>  0.0067  0.0058  0.0140 </r>
       </set>
       <set comment="band 12">
        <r>  0.0000  0.0343  0.0025 </r>
        <r>  0.0000  0.0343  0.0025 </r>
       </set>
       <set comment="band 13">
        <r>  0.0001  0.0207  0.0076 </r>
        <r>  0.0001  0.0207  0.0076 </r>
       </set>
       <set comment="band 14">
        <r>  0.0070  0.0225  0.0122 </r>
        <r>  0.0070  0.0225  0.0122 </r>
       </set>
       <set comment="band 15">
        <r>  0.0017  0.0569  0.0183 </r>
        <r>  0.0017  0.0569  0.0183 </r>
       </set>
       <set comment="band 16">
        <r>  0.0111  0.0241  0.0053 </r>
        <r>  0.0111  0.0241  0.0053 </r>
       </set>
      </set>
      <set comment="kpoint 14">
       <set comment="band 1">
        <r>  0.2705  0.0170  0.0008 </r>
        <r>  0.2705  0.0170  0.0008 </r>
       </set>
       <set comment="band 2">
        <r>  0.3310  0.0157  0.0028 </r>
        <r>  0.3310  0.0157  0.0028 </r>
       </set>
       <set comment="band 3">
        <r>  0.0002  0.2032  0.0073 </r>
        <r>  0.0002  0.2032  0.0073 </r>
       </set>
       <set comment="band 4">
        <r>  0.0094  0.2234  0.0106 </r>
        <r>  0.0094  0.2234  0.0106 </r>
       </set>
       <set comment="band 5">
        <r>  0.0190  0.2213  0.0014 </r>
        <r>  0.0190  0.2213  0.0014 </r>
       </set>
       <set comment="band 6">
        <r>  0.0304  0.1856  0.0120 </r>
        <r>  0.0304  0.1856  0.0120 </r>
       </set>
       <set comment="band 7">
        <r>  0.0298  0.2252  0.0132 </r>
        <r>  0.0298  0.2252  0.0132 </r>
       </set>
       <set comment="band 8">
        <r>  0.0354  0.2199  0.0101 </r>
        <r>  0.0354  0.2199  0.0101 </r>
       </set>
       <set comment="band 9">
        <r>  0.0000  0.0295  0.0118 </r>
        <r>  0.0000  0.0295  0.0118 </r>
       </set>
       <set comment="band 10">
        <r>  0.0005  0.0291  0.0102 </r>
        <r>  0.0005  0.0291  0.0102 </r>
       </set>
       <set comment="band 11">
        <r>  0.0006  0.0186  0.0401 </r>
        <r>  0.0006  0.0186  0.0401 </r>
       </set>
       <set comment="band 12">
        <r>  0.0008  0.0242  0.0373 </r>
        <r>  0.0008  0.0242  0.0373 </r>
       </set>
       <set comment="band 13">
        <r>  0.0048  0.0045  0.0149 </r>
        <r>  0.0048  0.0045  0.0149 </r>
       </set>
       <set comment="band 14">
        <r>  0.0045  0.0600  0.0880 </r>
        <r>  0.0045  0.0600  0.0880 </r>
       </set>
       <set comment="band 15">
        <r>  0.0118  0.0616  0.0232 </r>
        <r>  0.0118  0.0616  0.0232 </r>
       </set>
       <set comment="band 16">
        <r>  0.0206  0.0588  0.0754 </r>
        <r>  0.0206  0.0588  0.0754 </r>
       </set>
      </set>
      <set comment="kpoint 15">
       <set comment="band 1">
        <r>  0.2735  0.0198  0.0013 </r>
        <r>  0.2735  0.0198  0.0013 </r>
       </set>
       <set comment="band 2">
        <r>  0.3276  0.0202  0.0036 </r>
        <r>  0.3276  0.0202  0.0036 </r>
       </set>
       <set comment="band 3">
        <r>  0.0086  0.1924  0.0050 </r>
        <r>  0.0086  0.1924  0.0050 </r>
       </set>
       <set comment="band 4">
        <r>  0.0095  0.2118  0.0091 </r>
        <r>  0.0095  0.2118  0.0091 </r>
       </set>
       <set comment="band 5">
        <r>  0.0286  0.2250  0.0012 </r>
        <r>  0.0286  0.2250  0.0012 </r>
       </set>
       <set comment="band 6">
        <r>  0.0257  0.1714  0.0141 </r>
        <r>  0.0257  0.1714  0.0141 </r>
       </set>
       <set comment="band 7">
        <r>  0.0103  0.2162  0.0143 </r>
        <r>  0.0103  0.2162  0.0143 </r>
       </set>
       <set comment="band 8">
        <r>  0.0376  0.2040  0.0175 </r>
        <r>  0.0376  0.2040  0.0175 </r>
       </set>
       <set comment="band 9">
        <r>  0.0030  0.0166  0.0159 </r>
        <r>  0.0030  0.0166  0.0159 </r>
       </set>
       <set comment="band 10">
        <r>  0.0002  0.0472  0.0116 </r>
        <r>  0.0002  0.0472  0.0116 </r>
       </set>
       <set comment="band 11">
        <r>  0.0005  0.0298  0.0401 </r>
        <r>  0.0005  0.0298  0.0401 </r>
       </set>
       <set comment="band 12">
        <r>  0.0021  0.0329  0.0230 </r>
        <r>  0.0021  0.0329  0.0230 </r>
       </set>
       <set comment="band 13">
        <r>  0.0051  0.0369  0.0740 </r>
        <r>  0.0051  0.0369  0.0740 </r>
       </set>
       <set comment="band 14">
        <r>  0.0035  0.0049  0.0227 </r>
        <r>  0.0035  0.0049  0.0227 </r>
       </set>
       <set comment="band 15">
        <r>  0.0017  0.0389  0.0401 </r>
        <r>  0.0017  0.0389  0.0401 </r>
       </set>
       <set comment="band 16">
        <r>  0.0197  0.0627  0.0302 </r>
        <r>  0.0197  0.0627  0.0302 </r>
       </set>
      </set>
      <set comment="kpoint 16">
       <set comment="band 1">
        <r>  0.2792  0.0220  0.0019 </r>
        <r>  0.2792  0.0220  0.0019 </r>
       </set>
       <set comment="band 2">
        <r>  0.3094  0.0274  0.0037 </r>
        <r>  0.3094  0.0274  0.0037 </r>
       </set>
       <set comment="band 3">
        <r>  0.0298  0.1822  0.0044 </r>
        <r>  0.0298  0.1822  0.0044 </r>
       </set>
       <set comment="band 4">
        <r>  0.0078  0.2074  0.0069 </r>
        <r>  0.0078  0.2074  0.0069 </r>
       </set>
       <set comment="band 5">
        <r>  0.0356  0.2162  0.0015 </r>
        <r>  0.0356  0.2162  0.0015 </r>
       </set>
       <set comment="band 6">
        <r>  0.0144  0.1734  0.0162 </r>
        <r>  0.0144  0.1734  0.0162 </r>
       </set>
       <set comment="band 7">
        <r>  0.0116  0.1991  0.0174 </r>
        <r>  0.0116  0.1991  0.0174 </r>
       </set>
       <set comment="band 8">
        <r>  0.0289  0.1920  0.0206 </r>
        <r>  0.0289  0.1920  0.0206 </r>
       </set>
       <set comment="band 9">
        <r>  0.0001  0.0561  0.0448 </r>
        <r>  0.0001  0.0561  0.0448 </r>
       </set>
       <set comment="band 10">
        <r>  0.0055  0.0135  0.0072 </r>
        <r>  0.0055  0.0135  0.0072 </r>
       </set>
       <set comment="band 11">
        <r>  0.0001  0.0151  0.0191 </r>
        <r>  0.0001  0.0151  0.0191 </r>
       </set>
       <set comment="band 12">
        <r>  0.0009  0.0417  0.0192 </r>
        <r>  0.0009  0.0417  0.0192 </r>
       </set>
       <set comment="band 13">
        <r>  0.0054  0.0587  0.0591 </r>
        <r>  0.0054  0.0587  0.0591 </r>
       </set>
       <set comment="band 14">
        <r>  0.0048  0.0120  0.0140 </r>
        <r>  0.0048  0.0120  0.0140 </r>
       </set>
       <set comment="band 15">
        <r>  0.0023  0.0242  0.0377 </r>
        <r>  0.0023  0.0242  0.0377 </r>
       </set>
       <set comment="band 16">
        <r>  0.0044  0.0206  0.0156 </r>
        <r>  0.0044  0.0206  0.0156 </r>
       </set>
      </set>
      <set comment="kpoint 17">
       <set comment="band 1">
        <r>  0.2886  0.0222  0.0026 </r>
        <r>  0.2886  0.0222  0.0026 </r>
       </set>
       <set comment="band 2">
        <r>  0.2899  0.0329  0.0033 </r>
        <r>  0.2899  0.0329  0.0033 </r>
       </set>
       <set comment="band 3">
        <r>  0.0373  0.1796  0.0046 </r>
        <r>  0.0373  0.1796  0.0046 </r>
       </set>
       <set comment="band 4">
        <r>  0.0161  0.2079  0.0054 </r>
        <r>  0.0161  0.2079  0.0054 </r>
       </set>
       <set comment="band 5">
        <r>  0.0367  0.2021  0.0017 </r>
        <r>  0.0367  0.2021  0.0017 </r>
       </set>
       <set comment="band 6">
        <r>  0.0023  0.1803  0.0175 </r>
        <r>  0.0023  0.1803  0.0175 </r>
       </set>
       <set comment="band 7">
        <r>  0.0286  0.1910  0.0215 </r>
        <r>  0.0286  0.1910  0.0215 </r>
       </set>
       <set comment="band 8">
        <r>  0.0155  0.1939  0.0169 </r>
        <r>  0.0155  0.1939  0.0169 </r>
       </set>
       <set comment="band 9">
        <r>  0.0005  0.0218  0.0597 </r>
        <r>  0.0005  0.0218  0.0597 </r>
       </set>
       <set comment="band 10">
        <r>  0.0065  0.0124  0.0101 </r>
        <r>  0.0065  0.0124  0.0101 </r>
       </set>
       <set comment="band 11">
        <r>  0.0003  0.0291  0.0079 </r>
        <r>  0.0003  0.0291  0.0079 </r>
       </set>
       <set comment="band 12">
        <r>  0.0048  0.0446  0.0283 </r>
        <r>  0.0048  0.0446  0.0283 </r>
       </set>
       <set comment="band 13">
        <r>  0.0022  0.0354  0.0085 </r>
        <r>  0.0022  0.0354  0.0085 </r>
       </set>
       <set comment="band 14">
        <r>  0.0011  0.0457  0.0148 </r>
        <r>  0.0011  0.0457  0.0148 </r>
       </set>
       <set comment="band 15">
        <r>  0.0006  0.0214  0.0174 </r>
        <r>  0.0006  0.0214  0.0174 </r>
       </set>
       <set comment="band 16">
        <r>  0.0074  0.0138  0.0085 </r>
        <r>  0.0074  0.0138  0.0085 </r>
       </set>
      </set>
      <set comment="kpoint 18">
       <set comment="band 1">
        <r>  0.2779  0.0222  0.0018 </r>
        <r>  0.2779  0.0222  0.0018 </r>
       </set>
       <set comment="band 2">
        <r>  0.3179  0.0243  0.0039 </r>
        <r>  0.3179  0.0243  0.0039 </r>
       </set>
       <set comment="band 3">
        <r>  0.0104  0.1976  0.0078 </r>
        <r>  0.0104  0.1976  0.0078 </r>
       </set>
       <set comment="band 4">
        <r>  0.0192  0.1893  0.0036 </r>
        <r>  0.0192  0.1893  0.0036 </r>
       </set>
       <set comment="band 5">
        <r>  0.0354  0.2207  0.0014 </r>
        <r>  0.0354  0.2207  0.0014 </r>
       </set>
       <set comment="band 6">
        <r>  0.0039  0.1913  0.0160 </r>
        <r>  0.0039  0.1913  0.0160 </r>
       </set>
       <set comment="band 7">
        <r>  0.0203  0.1646  0.0151 </r>
        <r>  0.0203  0.1646  0.0151 </r>
       </set>
       <set comment="band 8">
        <r>  0.0385  0.2383  0.0111 </r>
        <r>  0.0385  0.2383  0.0111 </r>
       </set>
       <set comment="band 9">
        <r>  0.0002  0.0549  0.0408 </r>
        <r>  0.0002  0.0549  0.0408 </r>
       </set>
       <set comment="band 10">
        <r>  0.0033  0.0185  0.0059 </r>
        <r>  0.0033  0.0185  0.0059 </r>
       </set>
       <set comment="band 11">
        <r>  0.0003  0.0185  0.0372 </r>
        <r>  0.0003  0.0185  0.0372 </r>
       </set>
       <set comment="band 12">
        <r>  0.0029  0.0258  0.0813 </r>
        <r>  0.0029  0.0258  0.0813 </r>
       </set>
       <set comment="band 13">
        <r>  0.0004  0.0368  0.0207 </r>
        <r>  0.0004  0.0368  0.0207 </r>
       </set>
       <set comment="band 14">
        <r>  0.0053  0.0091  0.0112 </r>
        <r>  0.0053  0.0091  0.0112 </r>
       </set>
       <set comment="band 15">
        <r>  0.0005  0.0039  0.0360 </r>
        <r>  0.0005  0.0039  0.0360 </r>
       </set>
       <set comment="band 16">
        <r>  0.0012  0.0583  0.0097 </r>
        <r>  0.0011  0.0588  0.0101 </r>
       </set>
      </set>
      <set comment="kpoint 19">
       <set comment="band 1">
        <r>  0.2852  0.0237  0.0024 </r>
        <r>  0.2852  0.0237  0.0024 </r>
       </set>
       <set comment="band 2">
        <r>  0.3045  0.0277  0.0037 </r>
        <r>  0.3045  0.0277  0.0037 </r>
       </set>
       <set comment="band 3">
        <r>  0.0105  0.1902  0.0067 </r>
        <r>  0.0105  0.1902  0.0067 </r>
       </set>
       <set comment="band 4">
        <r>  0.0301  0.1913  0.0031 </r>
        <r>  0.0301  0.1913  0.0031 </r>
       </set>
       <set comment="band 5">
        <r>  0.0396  0.2100  0.0018 </r>
        <r>  0.0396  0.2100  0.0018 </r>
       </set>
       <set comment="band 6">
        <r>  0.0014  0.1761  0.0163 </r>
        <r>  0.0014  0.1761  0.0163 </r>
       </set>
       <set comment="band 7">
        <r>  0.0181  0.1748  0.0161 </r>
        <r>  0.0181  0.1748  0.0161 </r>
       </set>
       <set comment="band 8">
        <r>  0.0298  0.2269  0.0130 </r>
        <r>  0.0298  0.2269  0.0130 </r>
       </set>
       <set comment="band 9">
        <r>  0.0022  0.0468  0.0594 </r>
        <r>  0.0022  0.0468  0.0594 </r>
       </set>
       <set comment="band 10">
        <r>  0.0057  0.0181  0.0109 </r>
        <r>  0.0057  0.0181  0.0109 </r>
       </set>
       <set comment="band 11">
        <r>  0.0000  0.0304  0.0277 </r>
        <r>  0.0000  0.0304  0.0277 </r>
       </set>
       <set comment="band 12">
        <r>  0.0019  0.0448  0.0557 </r>
        <r>  0.0019  0.0448  0.0557 </r>
       </set>
       <set comment="band 13">
        <r>  0.0008  0.0345  0.0306 </r>
        <r>  0.0008  0.0345  0.0306 </r>
       </set>
       <set comment="band 14">
        <r>  0.0052  0.0158  0.0123 </r>
        <r>  0.0052  0.0158  0.0123 </r>
       </set>
       <set comment="band 15">
        <r>  0.0021  0.0157  0.0177 </r>
        <r>  0.0021  0.0157  0.0177 </r>
       </set>
       <set comment="band 16">
        <r>  0.0035  0.0152  0.0122 </r>
        <r>  0.0035  0.0152  0.0122 </r>
       </set>
      </set>
      <set comment="kpoint 20">
       <set comment="band 1">
        <r>  0.2925  0.0235  0.0029 </r>
        <r>  0.2925  0.0235  0.0029 </r>
       </set>
       <set comment="band 2">
        <r>  0.2944  0.0297  0.0033 </r>
        <r>  0.2944  0.0297  0.0033 </r>
       </set>
       <set comment="band 3">
        <r>  0.0110  0.1877  0.0063 </r>
        <r>  0.0110  0.1877  0.0063 </r>
       </set>
       <set comment="band 4">
        <r>  0.0350  0.1967  0.0030 </r>
        <r>  0.0350  0.1967  0.0030 </r>
       </set>
       <set comment="band 5">
        <r>  0.0399  0.2008  0.0019 </r>
        <r>  0.0399  0.2008  0.0019 </r>
       </set>
       <set comment="band 6">
        <r>  0.0004  0.1721  0.0163 </r>
        <r>  0.0004  0.1721  0.0163 </r>
       </set>
       <set comment="band 7">
        <r>  0.0158  0.1849  0.0159 </r>
        <r>  0.0158  0.1849  0.0159 </r>
       </set>
       <set comment="band 8">
        <r>  0.0279  0.2126  0.0151 </r>
        <r>  0.0279  0.2126  0.0151 </r>
       </set>
       <set comment="band 9">
        <r>  0.0039  0.0326  0.0657 </r>
        <r>  0.0039  0.0326  0.0657 </r>
       </set>
       <set comment="band 10">
        <r>  0.0009  0.0354  0.0473 </r>
        <r>  0.0009  0.0354  0.0473 </r>
       </set>
       <set comment="band 11">
        <r>  0.0046  0.0083  0.0118 </r>
        <r>  0.0046  0.0083  0.0118 </r>
       </set>
       <set comment="band 12">
        <r>  0.0053  0.0357  0.0032 </r>
        <r>  0.0053  0.0357  0.0032 </r>
       </set>
       <set comment="band 13">
        <r>  0.0001  0.0588  0.0106 </r>
        <r>  0.0001  0.0588  0.0106 </r>
       </set>
       <set comment="band 14">
        <r>  0.0001  0.0009  0.0107 </r>
        <r>  0.0001  0.0009  0.0107 </r>
       </set>
       <set comment="band 15">
        <r>  0.0006  0.0550  0.0232 </r>
        <r>  0.0006  0.0550  0.0232 </r>
       </set>
       <set comment="band 16">
        <r>  0.0022  0.0762  0.0728 </r>
        <r>  0.0022  0.0762  0.0728 </r>
       </set>
      </set>
      <set comment="kpoint 21">
       <set comment="band 1">
        <r>  0.2922  0.0252  0.0030 </r>
        <r>  0.2922  0.0252  0.0030 </r>
       </set>
       <set comment="band 2">
        <r>  0.2993  0.0268  0.0034 </r>
        <r>  0.2993  0.0268  0.0034 </r>
       </set>
       <set comment="band 3">
        <r>  0.0016  0.1894  0.0065 </r>
        <r>  0.0016  0.1894  0.0065 </r>
       </set>
       <set comment="band 4">
        <r>  0.0396  0.1941  0.0024 </r>
        <r>  0.0396  0.1941  0.0024 </r>
       </set>
       <set comment="band 5">
        <r>  0.0420  0.2024  0.0020 </r>
        <r>  0.0420  0.2024  0.0020 </r>
       </set>
       <set comment="band 6">
        <r>  0.0003  0.1652  0.0159 </r>
        <r>  0.0003  0.1652  0.0159 </r>
       </set>
       <set comment="band 7">
        <r>  0.0178  0.1873  0.0154 </r>
        <r>  0.0178  0.1873  0.0154 </r>
       </set>
       <set comment="band 8">
        <r>  0.0233  0.2156  0.0126 </r>
        <r>  0.0233  0.2156  0.0126 </r>
       </set>
       <set comment="band 9">
        <r>  0.0000  0.0208  0.0498 </r>
        <r>  0.0000  0.0208  0.0498 </r>
       </set>
       <set comment="band 10">
        <r>  0.0117  0.0603  0.0383 </r>
        <r>  0.0117  0.0603  0.0383 </r>
       </set>
       <set comment="band 11">
        <r>  0.0037  0.0819  0.0531 </r>
        <r>  0.0037  0.0819  0.0531 </r>
       </set>
       <set comment="band 12">
        <r>  0.0002  0.0274  0.0292 </r>
        <r>  0.0002  0.0274  0.0292 </r>
       </set>
       <set comment="band 13">
        <r>  0.0019  0.0072  0.0111 </r>
        <r>  0.0019  0.0072  0.0111 </r>
       </set>
       <set comment="band 14">
        <r>  0.0048  0.0328  0.0327 </r>
        <r>  0.0048  0.0328  0.0327 </r>
       </set>
       <set comment="band 15">
        <r>  0.0006  0.0270  0.0045 </r>
        <r>  0.0006  0.0270  0.0045 </r>
       </set>
       <set comment="band 16">
        <r>  0.0003  0.0477  0.0315 </r>
        <r>  0.0003  0.0477  0.0315 </r>
       </set>
      </set>
     </set>
    </set>
   </array>
  </projected>
 </calculation>
 <structure name="finalpos" >
  <crystal>
   <varray name="basis" >
    <v>       3.60689254       0.00000000       0.00000000 </v>
    <v>      -1.80344627       3.12366057       0.00000000 </v>
    <v>       0.00000000       0.00000000      16.00000000 </v>
   </varray>
   <i name="volume">    180.26732792 </i>
   <varray name="rec_basis" >
    <v>       0.27724696       0.16006861       0.00000000 </v>
    <v>       0.00000000       0.32013722       0.00000000 </v>
    <v>       0.00000000       0.00000000       0.06250000 </v>
   </varray>
  </crystal>
  <varray name="positions" >
   <v>       0.66666667       0.33333333       0.45634314 </v>
   <v>       0.33333333       0.66666667       0.54365686 </v>
  </varray>
 </structure>
</modeling>
