nqpoint: 300    
npath: 3      
segment_nqpoint:
- 100
- 100
- 100
reciprocal_lattice:
- [   0.30466038,   0.17589575,   0.00000000 ] # a*
- [   0.00000000,   0.35179150,   0.00000000 ] # b*
- [   0.00000000,   0.00000000,   0.06250000 ] # c*
natom: 2      
lattice:
- [     3.282343494205146,     0.000000000000000,     0.000000000000000 ] # a
- [    -1.641171747102573,     2.842592849928236,     0.000000000000000 ] # b
- [     0.000000000000000,     0.000000000000000,    16.000000000000000 ] # c
points:
- symbol: H  # 1
  coordinates: [  0.666666666666664,  0.333333333333336,  0.461182839010306 ]
  mass: 1.007940
- symbol: H  # 2
  coordinates: [  0.333333333333336,  0.666666666666664,  0.538817160989694 ]
  mass: 1.007940

phonon:
- q-position: [    0.0000000,    0.0000000,    0.0000000 ]
  distance:    0.0000000
  band:
  - # 1
    frequency:   -0.0008289412
    eigenvector:
    - # atom 1
      - [  0.00000027189305,  0.00000000000000 ]
      - [  0.16245948115560,  0.00000000000000 ]
      - [  0.68819104686314,  0.00000000000000 ]
    - # atom 2
      - [  0.00000027189305,  0.00000000000000 ]
      - [  0.16245948115560,  0.00000000000000 ]
      - [  0.68819104686314,  0.00000000000000 ]
  - # 2
    frequency:   -0.0007839640
    eigenvector:
    - # atom 1
      - [  0.70710678118635, -0.00000000000000 ]
      - [  0.00000038489612,  0.00000000000000 ]
      - [ -0.00000037022778,  0.00000000000000 ]
    - # atom 2
      - [  0.70710678118635,  0.00000000000000 ]
      - [  0.00000038489612,  0.00000000000000 ]
      - [ -0.00000037022778,  0.00000000000000 ]
  - # 3
    frequency:    0.0008289426
    eigenvector:
    - # atom 1
      - [ -0.00000045966053,  0.00000000000000 ]
      - [  0.68819104686308,  0.00000000000000 ]
      - [ -0.16245948115541,  0.00000000000000 ]
    - # atom 2
      - [ -0.00000045966053,  0.00000000000000 ]
      - [  0.68819104686308,  0.00000000000000 ]
      - [ -0.16245948115541,  0.00000000000000 ]
  - # 4
    frequency:   70.3935539959
    eigenvector:
    - # atom 1
      - [ -0.00000000000000,  0.00000000000000 ]
      - [  0.70710678118655,  0.00000000000000 ]
      - [ -0.00000000007558,  0.00000000000000 ]
    - # atom 2
      - [  0.00000000000000,  0.00000000000000 ]
      - [ -0.70710678118655,  0.00000000000000 ]
      - [  0.00000000007558,  0.00000000000000 ]
  - # 5
    frequency:   70.3935539959
    eigenvector:
    - # atom 1
      - [  0.70710678118655,  0.00000000000000 ]
      - [  0.00000000000000,  0.00000000000000 ]
      - [  0.00000000000000,  0.00000000000000 ]
    - # atom 2
      - [ -0.70710678118655,  0.00000000000000 ]
      - [  0.00000000000000,  0.00000000000000 ]
      - [  0.00000000000000,  0.00000000000000 ]
  - # 6
    frequency:   88.4897867230
    eigenvector:
    - # atom 1
      - [  0.00000000000000,  0.00000000000000 ]
      - [  0.00000000007558,  0.00000000000000 ]
      - [  0.70710678118655,  0.00000000000000 ]
    - # atom 2
      - [ -0.00000000000000,  0.00000000000000 ]
      - [ -0.00000000007558,  0.00000000000000 ]
      - [ -0.70710678118655,  0.00000000000000 ]

- q-position: [    0.0067340,   -0.0033670,    0.0000000 ]
  distance:    0.0020516
  band:
  - # 1
    frequency:    0.2934318111
    eigenvector:
    - # atom 1
      - [  0.00599537600427,  0.00000000000000 ]
      - [ -0.00000000000017,  0.00775204379068 ]
      - [ -0.00000000000645, -0.70703886829766 ]
    - # atom 2
      - [ -0.00599537600423,  0.00000000000011 ]
      - [ -0.00000000000122,  0.00775204379068 ]
      - [ -0.00000000000645, -0.70703886829766 ]
  - # 2
    frequency:    0.5561773511
    eigenvector:
    - # atom 1
      - [  0.00236045741441,  0.00000000000000 ]
      - [ -0.00000001849257, -0.70706056339107 ]
      - [ -0.00000000020299, -0.00773226602590 ]
    - # atom 2
      - [ -0.00236045741440,  0.00000000012348 ]
      - [ -0.00000001849179, -0.70706056339107 ]
      - [ -0.00000000020299, -0.00773226602590 ]
  - # 3
    frequency:    0.8789826670
    eigenvector:
    - # atom 1
      - [  0.70709698484301,  0.00000000000000 ]
      - [  0.00000000006174,  0.00229533989588 ]
      - [  0.00000000000073,  0.00293009226518 ]
    - # atom 2
      - [  0.70709698484301, -0.00000000000081 ]
      - [  0.00000000006173, -0.00229533989587 ]
      - [  0.00000000000073, -0.00293009226514 ]
  - # 4
    frequency:   70.3907378579
    eigenvector:
    - # atom 1
      - [ -0.00229568940371,  0.00000000000000 ]
      - [  0.00000001906346,  0.70710305011021 ]
      - [  0.00000000000215,  0.00007959274855 ]
    - # atom 2
      - [ -0.00229568940374,  0.00000000012378 ]
      - [ -0.00000001906266, -0.70710305011021 ]
      - [ -0.00000000000214, -0.00007959274855 ]
  - # 5
    frequency:   70.3934252742
    eigenvector:
    - # atom 1
      - [ -0.70707742412508,  0.00000000000000 ]
      - [ -0.00000000006189, -0.00229467081906 ]
      - [ -0.00000000000002, -0.00602086193744 ]
    - # atom 2
      - [  0.70707742412508, -0.00000000000080 ]
      - [  0.00000000006189, -0.00229467081909 ]
      - [  0.00000000000002, -0.00602086193744 ]
  - # 6
    frequency:   88.4818137950
    eigenvector:
    - # atom 1
      - [ -0.00292981843833,  0.00000000000000 ]
      - [ -0.00000000000025, -0.00008910446902 ]
      - [  0.00000000000373,  0.70710070585760 ]
    - # atom 2
      - [ -0.00292981843833,  0.00000000000003 ]
      - [ -0.00000000000025,  0.00008910446902 ]
      - [ -0.00000000000373, -0.70710070585760 ]

- q-position: [    0.0134680,   -0.0067340,    0.0000000 ]
  distance:    0.0041032
  band:
  - # 1
    frequency:    0.5866713845
    eigenvector:
    - # atom 1
      - [  0.01198913036082,  0.00000000000000 ]
      - [  0.00000000000107,  0.00777411364395 ]
      - [ -0.00000000000033, -0.70696239214702 ]
    - # atom 2
      - [ -0.01198913036083,  0.00000000000001 ]
      - [ -0.00000000000102,  0.00777411364395 ]
      - [ -0.00000000000032, -0.70696239214702 ]
  - # 2
    frequency:    1.1121251710
    eigenvector:
    - # atom 1
      - [  0.00472076473559,  0.00000000000000 ]
      - [ -0.00000000919144, -0.70704915048633 ]
      - [ -0.00000000010000, -0.00769500986806 ]
    - # atom 2
      - [ -0.00472076473561,  0.00000000012273 ]
      - [ -0.00000000918987, -0.70704915048633 ]
      - [ -0.00000000010000, -0.00769500986806 ]
  - # 3
    frequency:    1.7573359757
    eigenvector:
    - # atom 1
      - [  0.70706753242821,  0.00000000000000 ]
      - [  0.00000000006136,  0.00459468478845 ]
      - [  0.00000000000067,  0.00586459355638 ]
    - # atom 2
      - [  0.70706753242821, -0.00000000000161 ]
      - [  0.00000000006135, -0.00459468478846 ]
      - [  0.00000000000065, -0.00586459355639 ]
  - # 4
    frequency:   70.3822907240
    eigenvector:
    - # atom 1
      - [ -0.00459748340068,  0.00000000000000 ]
      - [  0.00000000941525,  0.70709176331464 ]
      - [  0.00000000000424,  0.00031843204993 ]
    - # atom 2
      - [ -0.00459748340066,  0.00000000012242 ]
      - [ -0.00000000941366, -0.70709176331464 ]
      - [ -0.00000000000424, -0.00031843204993 ]
  - # 5
    frequency:   70.3930383322
    eigenvector:
    - # atom 1
      - [ -0.70698937413055,  0.00000000000000 ]
      - [ -0.00000000006121, -0.00458933040972 ]
      - [ -0.00000000000010, -0.01204005452181 ]
    - # atom 2
      - [  0.70698937413055, -0.00000000000159 ]
      - [  0.00000000006120, -0.00458933040970 ]
      - [  0.00000000000007, -0.01204005452181 ]
  - # 6
    frequency:   88.4579097921
    eigenvector:
    - # atom 1
      - [ -0.00586239987270,  0.00000000000000 ]
      - [ -0.00000000000051, -0.00035654492649 ]
      - [  0.00000000000746,  0.70708238921886 ]
    - # atom 2
      - [ -0.00586239987270,  0.00000000000012 ]
      - [ -0.00000000000050,  0.00035654492649 ]
      - [ -0.00000000000746, -0.70708238921886 ]

- q-position: [    0.0202020,   -0.0101010,    0.0000000 ]
  distance:    0.0061548
  band:
  - # 1
    frequency:    0.8795243612
    eigenvector:
    - # atom 1
      - [  0.01797964611854,  0.00000000000000 ]
      - [  0.00000000000164,  0.00781019878996 ]
      - [ -0.00000000000112, -0.70683501124401 ]
    - # atom 2
      - [ -0.01797964611855,  0.00000000000006 ]
      - [ -0.00000000000150,  0.00781019878996 ]
      - [ -0.00000000000111, -0.70683501124400 ]
  - # 2
    frequency:    1.6676162829
    eigenvector:
    - # atom 1
      - [  0.00708075296156,  0.00000000000000 ]
      - [ -0.00000000613570, -0.70703013500580 ]
      - [ -0.00000000006616, -0.00763224286654 ]
    - # atom 2
      - [ -0.00708075296157,  0.00000000012287 ]
      - [ -0.00000000613334, -0.70703013500580 ]
      - [ -0.00000000006616, -0.00763224286654 ]
  - # 3
    frequency:    2.6344294145
    eigenvector:
    - # atom 1
      - [  0.70701823333453,  0.00000000000000 ]
      - [  0.00000000006144,  0.00690204707810 ]
      - [  0.00000000000068,  0.00880792135785 ]
    - # atom 2
      - [  0.70701823333453, -0.00000000000242 ]
      - [  0.00000000006141, -0.00690204707811 ]
      - [  0.00000000000065, -0.00880792135786 ]
  - # 4
    frequency:   70.3682164465
    eigenvector:
    - # atom 1
      - [ -0.00691150672275,  0.00000000000000 ]
      - [  0.00000000623325,  0.70707263942077 ]
      - [  0.00000000000631,  0.00071669893705 ]
    - # atom 2
      - [ -0.00691150672275,  0.00000000012183 ]
      - [ -0.00000000623087, -0.70707263942077 ]
      - [ -0.00000000000632, -0.00071669893705 ]
  - # 5
    frequency:   70.3923908264
    eigenvector:
    - # atom 1
      - [ -0.70684269485010,  0.00000000000000 ]
      - [ -0.00000000006091, -0.00688396604711 ]
      - [ -0.00000000000022, -0.01805590619473 ]
    - # atom 2
      - [  0.70684269485010, -0.00000000000239 ]
      - [  0.00000000006089, -0.00688396604711 ]
      - [  0.00000000000016, -0.01805590619473 ]
  - # 6
    frequency:   88.4181190481
    eigenvector:
    - # atom 1
      - [ -0.00880050040259,  0.00000000000000 ]
      - [ -0.00000000000077, -0.00080270086369 ]
      - [  0.00000000001121,  0.70705155884418 ]
    - # atom 2
      - [ -0.00880050040259,  0.00000000000028 ]
      - [ -0.00000000000075,  0.00080270086369 ]
      - [ -0.00000000001120, -0.70705155884418 ]

- q-position: [    0.0269360,   -0.0134680,    0.0000000 ]
  distance:    0.0082063
  band:
  - # 1
    frequency:    1.1718011935
    eigenvector:
    - # atom 1
      - [  0.02396528614720,  0.00000000000000 ]
      - [  0.00000000000222,  0.00786147250119 ]
      - [ -0.00000000000201, -0.70665682074823 ]
    - # atom 2
      - [ -0.02396528614722,  0.00000000000013 ]
      - [ -0.00000000000197,  0.00786147250119 ]
      - [ -0.00000000000199, -0.70665682074823 ]
  - # 2
    frequency:    2.2224234372
    eigenvector:
    - # atom 1
      - [  0.00944029060248,  0.00000000000000 ]
      - [ -0.00000000459836, -0.70700350158170 ]
      - [ -0.00000000004896, -0.00754517491911 ]
    - # atom 2
      - [ -0.00944029060249,  0.00000000012275 ]
      - [ -0.00000000459521, -0.70700350158170 ]
      - [ -0.00000000004895, -0.00754517491911 ]
  - # 3
    frequency:    3.5096332233
    eigenvector:
    - # atom 1
      - [  0.70694876836424,  0.00000000000000 ]
      - [  0.00000000006138,  0.00922145390836 ]
      - [  0.00000000000069,  0.01176451002365 ]
    - # atom 2
      - [  0.70694876836424, -0.00000000000323 ]
      - [  0.00000000006134, -0.00922145390837 ]
      - [  0.00000000000064, -0.01176451002366 ]
  - # 4
    frequency:   70.3485214858
    eigenvector:
    - # atom 1
      - [ -0.00924392430200,  0.00000000000000 ]
      - [  0.00000000467309,  0.70704520720197 ]
      - [  0.00000000000842,  0.00127469063988 ]
    - # atom 2
      - [ -0.00924392430200,  0.00000000012215 ]
      - [ -0.00000000466990, -0.70704520720197 ]
      - [ -0.00000000000843, -0.00127469063988 ]
  - # 5
    frequency:   70.3914788088
    eigenvector:
    - # atom 1
      - [ -0.70663749261784,  0.00000000000000 ]
      - [ -0.00000000006106, -0.00917856205145 ]
      - [ -0.00000000000039, -0.02406674106406 ]
    - # atom 2
      - [  0.70663749261784, -0.00000000000319 ]
      - [  0.00000000006102, -0.00917856205145 ]
      - [  0.00000000000028, -0.02406674106406 ]
  - # 6
    frequency:   88.3625154222
    eigenvector:
    - # atom 1
      - [ -0.01174686220995,  0.00000000000000 ]
      - [ -0.00000000000105, -0.00142820185704 ]
      - [  0.00000000001498,  0.70700775912834 ]
    - # atom 2
      - [ -0.01174686220995,  0.00000000000050 ]
      - [ -0.00000000000099,  0.00142820185704 ]
      - [ -0.00000000001496, -0.70700775912834 ]

- q-position: [    0.0336700,   -0.0168350,    0.0000000 ]
  distance:    0.0102579
  band:
  - # 1
    frequency:    1.4633160927
    eigenvector:
    - # atom 1
      - [  0.02994439456181,  0.00000000000000 ]
      - [  0.00000000000264,  0.00792889886578 ]
      - [ -0.00000000000237, -0.70642796221349 ]
    - # atom 2
      - [ -0.02994439456181,  0.00000000000020 ]
      - [ -0.00000000000258,  0.00792889886578 ]
      - [ -0.00000000000234, -0.70642796221349 ]
  - # 2
    frequency:    2.7763210874
    eigenvector:
    - # atom 1
      - [  0.01179927373040,  0.00000000000000 ]
      - [ -0.00000000368912, -0.70696923594721 ]
      - [ -0.00000000003878, -0.00743482102331 ]
    - # atom 2
      - [ -0.01179927373040,  0.00000000012308 ]
      - [ -0.00000000368515, -0.70696923594721 ]
      - [ -0.00000000003877, -0.00743482102331 ]
  - # 3
    frequency:    4.3823176020
    eigenvector:
    - # atom 1
      - [  0.70685868744555,  0.00000000000000 ]
      - [  0.00000000006155,  0.01155695437524 ]
      - [  0.00000000000070,  0.01473881909516 ]
    - # atom 2
      - [  0.70685868744555, -0.00000000000404 ]
      - [  0.00000000006149, -0.01155695437524 ]
      - [  0.00000000000062, -0.01473881909516 ]
  - # 4
    frequency:   70.3232149727
    eigenvector:
    - # atom 1
      - [ -0.01160096117280,  0.00000000000000 ]
      - [  0.00000000371082,  0.70700880220419 ]
      - [  0.00000000001044,  0.00199281350517 ]
    - # atom 2
      - [ -0.01160096117279,  0.00000000012171 ]
      - [ -0.00000000370685, -0.70700880220419 ]
      - [ -0.00000000001047, -0.00199281350517 ]
  - # 5
    frequency:   70.3902966645
    eigenvector:
    - # atom 1
      - [ -0.70637391682717,  0.00000000000000 ]
      - [ -0.00000000006083, -0.01147309840409 ]
      - [ -0.00000000000061, -0.03007087692849 ]
    - # atom 2
      - [  0.70637391682717, -0.00000000000399 ]
      - [  0.00000000006077, -0.01147309840408 ]
      - [  0.00000000000044, -0.03007087692849 ]
  - # 6
    frequency:   88.2912022513
    eigenvector:
    - # atom 1
      - [ -0.01470420628999,  0.00000000000000 ]
      - [ -0.00000000000133, -0.00223392286522 ]
      - [  0.00000000001878,  0.70695034896803 ]
    - # atom 2
      - [ -0.01470420628999,  0.00000000000078 ]
      - [ -0.00000000000121,  0.00223392286522 ]
      - [ -0.00000000001873, -0.70695034896803 ]

- q-position: [    0.0404040,   -0.0202020,    0.0000000 ]
  distance:    0.0123095
  band:
  - # 1
    frequency:    1.7538884954
    eigenvector:
    - # atom 1
      - [  0.03591529012329,  0.00000000000000 ]
      - [  0.00000000000316,  0.00801364446022 ]
      - [ -0.00000000000307, -0.70614861993622 ]
    - # atom 2
      - [ -0.03591529012328,  0.00000000000031 ]
      - [ -0.00000000000310,  0.00801364446022 ]
      - [ -0.00000000000303, -0.70614861993622 ]
  - # 2
    frequency:    3.3290858234
    eigenvector:
    - # atom 1
      - [  0.01415763704474,  0.00000000000000 ]
      - [ -0.00000000308581, -0.70692732022741 ]
      - [ -0.00000000003187, -0.00730241257437 ]
    - # atom 2
      - [ -0.01415763704474,  0.00000000012350 ]
      - [ -0.00000000308102, -0.70692732022741 ]
      - [ -0.00000000003184, -0.00730241257437 ]
  - # 3
    frequency:    5.2518527705
    eigenvector:
    - # atom 1
      - [  0.70674740642307,  0.00000000000000 ]
      - [  0.00000000006178,  0.01391262653601 ]
      - [  0.00000000000073,  0.01773534147231 ]
    - # atom 2
      - [  0.70674740642307, -0.00000000000485 ]
      - [  0.00000000006168, -0.01391262653601 ]
      - [  0.00000000000061, -0.01773534147231 ]
  - # 4
    frequency:   70.2923087952
    eigenvector:
    - # atom 1
      - [ -0.01398892212275,  0.00000000000000 ]
      - [  0.00000000306314,  0.70696256204000 ]
      - [  0.00000000001240,  0.00287157303308 ]
    - # atom 2
      - [ -0.01398892212275,  0.00000000012113 ]
      - [ -0.00000000305838, -0.70696256204000 ]
      - [ -0.00000000001247, -0.00287157303308 ]
  - # 5
    frequency:   70.3888370253
    eigenvector:
    - # atom 1
      - [ -0.70605216043057,  0.00000000000000 ]
      - [ -0.00000000006053, -0.01376754947557 ]
      - [ -0.00000000000087, -0.03606662352880 ]
    - # atom 2
      - [  0.70605216043057, -0.00000000000480 ]
      - [  0.00000000006043, -0.01376754947556 ]
      - [  0.00000000000063, -0.03606662352880 ]
  - # 6
    frequency:   88.2043122824
    eigenvector:
    - # atom 1
      - [ -0.01767522481083,  0.00000000000000 ]
      - [ -0.00000000000163, -0.00322097760163 ]
      - [  0.00000000002263,  0.70687849856335 ]
    - # atom 2
      - [ -0.01767522481083,  0.00000000000113 ]
      - [ -0.00000000000143,  0.00322097760163 ]
      - [ -0.00000000002254, -0.70687849856335 ]

- q-position: [    0.0471380,   -0.0235690,    0.0000000 ]
  distance:    0.0143611
  band:
  - # 1
    frequency:    2.0433443571
    eigenvector:
    - # atom 1
      - [  0.04187626049553,  0.00000000000000 ]
      - [  0.00000000000369,  0.00811711300051 ]
      - [ -0.00000000000359, -0.70581902162201 ]
    - # atom 2
      - [ -0.04187626049553,  0.00000000000042 ]
      - [ -0.00000000000362,  0.00811711300051 ]
      - [ -0.00000000000354, -0.70581902162201 ]
  - # 2
    frequency:    3.8804968770
    eigenvector:
    - # atom 1
      - [  0.01651536359573,  0.00000000000000 ]
      - [ -0.00000000265348, -0.70687773228063 ]
      - [ -0.00000000002684, -0.00714943152249 ]
    - # atom 2
      - [ -0.01651536359573,  0.00000000012386 ]
      - [ -0.00000000264786, -0.70687773228063 ]
      - [ -0.00000000002680, -0.00714943152249 ]
  - # 3
    frequency:    6.1176089724
    eigenvector:
    - # atom 1
      - [  0.70661420291097,  0.00000000000000 ]
      - [  0.00000000006197,  0.01629258414127 ]
      - [  0.00000000000076,  0.02075861138164 ]
    - # atom 2
      - [  0.70661420291097, -0.00000000000567 ]
      - [  0.00000000006183, -0.01629258414128 ]
      - [  0.00000000000059, -0.02075861138165 ]
  - # 4
    frequency:   70.2558177150
    eigenvector:
    - # atom 1
      - [ -0.01641421098571,  0.00000000000000 ]
      - [  0.00000000260227,  0.70690542038509 ]
      - [  0.00000000001433,  0.00391156079964 ]
    - # atom 2
      - [ -0.01641421098572,  0.00000000012072 ]
      - [ -0.00000000259671, -0.70690542038509 ]
      - [ -0.00000000001444, -0.00391156079964 ]
  - # 5
    frequency:   70.3870906620
    eigenvector:
    - # atom 1
      - [ -0.70567246054541,  0.00000000000000 ]
      - [ -0.00000000006031, -0.01606188290116 ]
      - [ -0.00000000000119, -0.04205228109696 ]
    - # atom 2
      - [  0.70567246054541, -0.00000000000561 ]
      - [  0.00000000006018, -0.01606188290116 ]
      - [  0.00000000000086, -0.04205228109696 ]
  - # 6
    frequency:   88.1020075819
    eigenvector:
    - # atom 1
      - [ -0.02066257298139,  0.00000000000000 ]
      - [ -0.00000000000195, -0.00439070975724 ]
      - [  0.00000000002651,  0.70679118539044 ]
    - # atom 2
      - [ -0.02066257298139,  0.00000000000155 ]
      - [ -0.00000000000163,  0.00439070975724 ]
      - [ -0.00000000002637, -0.70679118539043 ]

- q-position: [    0.0538721,   -0.0269360,    0.0000000 ]
  distance:    0.0164127
  band:
  - # 1
    frequency:    2.3315173962
    eigenvector:
    - # atom 1
      - [  0.04782555701719,  0.00000000000000 ]
      - [  0.00000000000420,  0.00824094805732 ]
      - [ -0.00000000000421, -0.70543943954893 ]
    - # atom 2
      - [ -0.04782555701718,  0.00000000000057 ]
      - [ -0.00000000000414,  0.00824094805732 ]
      - [ -0.00000000000414, -0.70543943954893 ]
  - # 2
    frequency:    4.4303366291
    eigenvector:
    - # atom 1
      - [  0.01887249421521,  0.00000000000000 ]
      - [ -0.00000000233045, -0.70682044529454 ]
      - [ -0.00000000002302, -0.00697761246596 ]
    - # atom 2
      - [ -0.01887249421521,  0.00000000012428 ]
      - [ -0.00000000232399, -0.70682044529454 ]
      - [ -0.00000000002296, -0.00697761246596 ]
  - # 3
    frequency:    6.9789564641
    eigenvector:
    - # atom 1
      - [  0.70645821119527,  0.00000000000000 ]
      - [  0.00000000006219,  0.01870098300555 ]
      - [  0.00000000000079,  0.02381321207666 ]
    - # atom 2
      - [  0.70645821119527, -0.00000000000649 ]
      - [  0.00000000006201, -0.01870098300555 ]
      - [  0.00000000000057, -0.02381321207666 ]
  - # 4
    frequency:   70.2137595128
    eigenvector:
    - # atom 1
      - [ -0.01888334944977,  0.00000000000000 ]
      - [  0.00000000225230,  0.70683609971810 ]
      - [  0.00000000001619,  0.00511343806647 ]
    - # atom 2
      - [ -0.01888334944977,  0.00000000012017 ]
      - [ -0.00000000224595, -0.70683609971810 ]
      - [ -0.00000000001635, -0.00511343806647 ]
  - # 5
    frequency:   70.3850463550
    eigenvector:
    - # atom 1
      - [ -0.70523509913935,  0.00000000000000 ]
      - [ -0.00000000006002, -0.01835605863863 ]
      - [ -0.00000000000157, -0.04802613926980 ]
    - # atom 2
      - [  0.70523509913935, -0.00000000000642 ]
      - [  0.00000000005985, -0.01835605863863 ]
      - [  0.00000000000113, -0.04802613926980 ]
  - # 6
    frequency:   87.9844794198
    eigenvector:
    - # atom 1
      - [ -0.02366886030927,  0.00000000000000 ]
      - [ -0.00000000000230, -0.00574468188220 ]
      - [  0.00000000003046,  0.70668718941391 ]
    - # atom 2
      - [ -0.02366886030927,  0.00000000000203 ]
      - [ -0.00000000000180,  0.00574468188220 ]
      - [ -0.00000000003025, -0.70668718941391 ]

- q-position: [    0.0606061,   -0.0303030,    0.0000000 ]
  distance:    0.0184643
  band:
  - # 1
    frequency:    2.6182502955
    eigenvector:
    - # atom 1
      - [  0.05376139001700,  0.00000000000000 ]
      - [  0.00000000000475,  0.00838702968026 ]
      - [ -0.00000000000479, -0.70501019189554 ]
    - # atom 2
      - [ -0.05376139001699,  0.00000000000072 ]
      - [ -0.00000000000463,  0.00838702968026 ]
      - [ -0.00000000000471, -0.70501019189554 ]
  - # 2
    frequency:    4.9783911114
    eigenvector:
    - # atom 1
      - [  0.02122913674793,  0.00000000000000 ]
      - [ -0.00000000208105, -0.70675542733450 ]
      - [ -0.00000000002000, -0.00678893851511 ]
    - # atom 2
      - [ -0.02122913674793,  0.00000000012480 ]
      - [ -0.00000000207371, -0.70675542733450 ]
      - [ -0.00000000001991, -0.00678893851511 ]
  - # 3
    frequency:    7.8352654929
    eigenvector:
    - # atom 1
      - [  0.70627841616985,  0.00000000000000 ]
      - [  0.00000000006246,  0.02114202692118 ]
      - [  0.00000000000083,  0.02690378319637 ]
    - # atom 2
      - [  0.70627841616985, -0.00000000000732 ]
      - [  0.00000000006224, -0.02114202692118 ]
      - [  0.00000000000055, -0.02690378319637 ]
  - # 4
    frequency:   70.1661551678
    eigenvector:
    - # atom 1
      - [ -0.02140299522748,  0.00000000000000 ]
      - [  0.00000000197630,  0.70675310285961 ]
      - [  0.00000000001797,  0.00647791583803 ]
    - # atom 2
      - [ -0.02140299522748,  0.00000000011948 ]
      - [ -0.00000000196915, -0.70675310285961 ]
      - [ -0.00000000001819, -0.00647791583803 ]
  - # 5
    frequency:   70.3826907479
    eigenvector:
    - # atom 1
      - [ -0.70474040376324,  0.00000000000000 ]
      - [ -0.00000000005965, -0.02065002824131 ]
      - [ -0.00000000000199, -0.05398647642933 ]
    - # atom 2
      - [  0.70474040376324, -0.00000000000724 ]
      - [  0.00000000005944, -0.02065002824131 ]
      - [  0.00000000000144, -0.05398647642934 ]
  - # 6
    frequency:   87.8519481247
    eigenvector:
    - # atom 1
      - [ -0.02669664113527,  0.00000000000000 ]
      - [ -0.00000000000267, -0.00728466169264 ]
      - [  0.00000000003446,  0.70656508762896 ]
    - # atom 2
      - [ -0.02669664113527,  0.00000000000259 ]
      - [ -0.00000000000196,  0.00728466169264 ]
      - [ -0.00000000003417, -0.70656508762896 ]

- q-position: [    0.0673401,   -0.0336700,    0.0000000 ]
  distance:    0.0205159
  band:
  - # 1
    frequency:    2.9033958576
    eigenvector:
    - # atom 1
      - [  0.05968192473115,  0.00000000000000 ]
      - [  0.00000000000526,  0.00855746901608 ]
      - [ -0.00000000000534, -0.70453164413277 ]
    - # atom 2
      - [ -0.05968192473115,  0.00000000000090 ]
      - [ -0.00000000000515,  0.00855746901608 ]
      - [ -0.00000000000524, -0.70453164413277 ]
  - # 2
    frequency:    5.5244504980
    eigenvector:
    - # atom 1
      - [  0.02358547508150,  0.00000000000000 ]
      - [ -0.00000000188156, -0.70668264077790 ]
      - [ -0.00000000001757, -0.00658563499984 ]
    - # atom 2
      - [ -0.02358547508150,  0.00000000012532 ]
      - [ -0.00000000187334, -0.70668264077790 ]
      - [ -0.00000000001744, -0.00658563499984 ]
  - # 3
    frequency:    8.6859062646
    eigenvector:
    - # atom 1
      - [  0.70607364629081,  0.00000000000000 ]
      - [  0.00000000006274,  0.02361997300729 ]
      - [  0.00000000000087,  0.03003502769663 ]
    - # atom 2
      - [  0.70607364629081, -0.00000000000814 ]
      - [  0.00000000006247, -0.02361997300729 ]
      - [  0.00000000000052, -0.03003502769663 ]
  - # 4
    frequency:   70.1130290726
    eigenvector:
    - # atom 1
      - [ -0.02397995940415,  0.00000000000000 ]
      - [  0.00000000175514,  0.70665470338541 ]
      - [  0.00000000001969,  0.00800573108790 ]
    - # atom 2
      - [ -0.02397995940415,  0.00000000011885 ]
      - [ -0.00000000174720, -0.70665470338541 ]
      - [ -0.00000000001999, -0.00800573108790 ]
  - # 5
    frequency:   70.3800081844
    eigenvector:
    - # atom 1
      - [ -0.70418874829520,  0.00000000000000 ]
      - [ -0.00000000005930, -0.02294373437804 ]
      - [ -0.00000000000247, -0.05993155952605 ]
    - # atom 2
      - [  0.70418874829520, -0.00000000000808 ]
      - [  0.00000000005904, -0.02294373437804 ]
      - [  0.00000000000178, -0.05993155952605 ]
  - # 6
    frequency:   87.7046629079
    eigenvector:
    - # atom 1
      - [ -0.02974840433667,  0.00000000000000 ]
      - [ -0.00000000000307, -0.00901260552845 ]
      - [  0.00000000003854,  0.70642324804681 ]
    - # atom 2
      - [ -0.02974840433667,  0.00000000000323 ]
      - [ -0.00000000000209,  0.00901260552845 ]
      - [ -0.00000000003813, -0.70642324804681 ]

- q-position: [    0.0740741,   -0.0370370,    0.0000000 ]
  distance:    0.0225674
  band:
  - # 1
    frequency:    3.1868181078
    eigenvector:
    - # atom 1
      - [  0.06558527787868,  0.00000000000000 ]
      - [  0.00000000000580,  0.00875460189168 ]
      - [ -0.00000000000591, -0.70400421040736 ]
    - # atom 2
      - [ -0.06558527787868,  0.00000000000109 ]
      - [ -0.00000000000563,  0.00875460189168 ]
      - [ -0.00000000000579, -0.70400421040736 ]
  - # 2
    frequency:    6.0683095875
    eigenvector:
    - # atom 1
      - [  0.02594177795655,  0.00000000000000 ]
      - [ -0.00000000171977, -0.70660204159967 ]
      - [ -0.00000000001554, -0.00637016197888 ]
    - # atom 2
      - [ -0.02594177795655,  0.00000000012594 ]
      - [ -0.00000000171062, -0.70660204159967 ]
      - [ -0.00000000001537, -0.00637016197888 ]
  - # 3
    frequency:    9.5302488992
    eigenvector:
    - # atom 1
      - [  0.70584256553456,  0.00000000000000 ]
      - [  0.00000000006307,  0.02613913637026 ]
      - [  0.00000000000091,  0.03321171825443 ]
    - # atom 2
      - [  0.70584256553456, -0.00000000000898 ]
      - [  0.00000000006274, -0.02613913637026 ]
      - [  0.00000000000049, -0.03321171825443 ]
  - # 4
    frequency:   70.0544092884
    eigenvector:
    - # atom 1
      - [ -0.02662122274197,  0.00000000000000 ]
      - [  0.00000000157104,  0.70653893501246 ]
      - [  0.00000000002130,  0.00969761884045 ]
    - # atom 2
      - [ -0.02662122274197,  0.00000000011806 ]
      - [ -0.00000000156230, -0.70653893501246 ]
      - [ -0.00000000002171, -0.00969761884045 ]
  - # 5
    frequency:   70.3769805320
    eigenvector:
    - # atom 1
      - [ -0.70358055365539,  0.00000000000000 ]
      - [ -0.00000000005888, -0.02523711062903 ]
      - [ -0.00000000000301, -0.06585964443472 ]
    - # atom 2
      - [  0.70358055365539, -0.00000000000891 ]
      - [  0.00000000005856, -0.02523711062903 ]
      - [  0.00000000000217, -0.06585964443472 ]
  - # 6
    frequency:   87.5429016489
    eigenvector:
    - # atom 1
      - [ -0.03282656210019,  0.00000000000000 ]
      - [ -0.00000000000350, -0.01093063864872 ]
      - [  0.00000000004270,  0.70625982326578 ]
    - # atom 2
      - [ -0.03282656210019,  0.00000000000394 ]
      - [ -0.00000000000219,  0.01093063864872 ]
      - [ -0.00000000004216, -0.70625982326578 ]

- q-position: [    0.0808081,   -0.0404040,    0.0000000 ]
  distance:    0.0246190
  band:
  - # 1
    frequency:    3.4683933353
    eigenvector:
    - # atom 1
      - [  0.07146951494279,  0.00000000000000 ]
      - [  0.00000000000631,  0.00898098168652 ]
      - [ -0.00000000000647, -0.70342835484631 ]
    - # atom 2
      - [ -0.07146951494279,  0.00000000000130 ]
      - [ -0.00000000000614,  0.00898098168652 ]
      - [ -0.00000000000632, -0.70342835484631 ]
  - # 2
    frequency:    6.6097682723
    eigenvector:
    - # atom 1
      - [  0.02829840753536,  0.00000000000000 ]
      - [ -0.00000000158558, -0.70651357847948 ]
      - [ -0.00000000001385, -0.00614520586158 ]
    - # atom 2
      - [ -0.02829840753536,  0.00000000012661 ]