  18   18
1 1
    10.850326616705884     0.000000000000000    -0.000000000000000
     0.000000000000000    10.850326616705884    -0.000000000000000
    -0.000000000000000    -0.000000000000000    11.521721243076938
1 2
    -0.546819833990712    -0.100333334757630    -0.158479540583778
     0.100333334757630     0.400641685193089     0.444631553114570
     0.158479540583778     0.444631553114570     0.733873502983843
1 3
    -0.546819833990712     0.100333334757630     0.158479540583778
    -0.100333334757630     0.400641685193089     0.444631553114570
    -0.158479540583778     0.444631553114570     0.733873502983843
1 4
     0.163776304446628     0.309929537184956    -0.305822450518673
     0.510596207967564    -0.309954454511598    -0.359563083906156
    -0.464301989835103    -0.085068469208414     0.733873502983843
1 5
     0.163776304446628    -0.309929537184956     0.305822450518673
    -0.510596207967564    -0.309954454511598    -0.359563083906156
     0.464301989835103    -0.085068469208414     0.733873502983843
1 6
    -0.096859391011915    -0.000000000000000    -0.000000000000000
    -0.000000000000000    -0.096859391011915     0.000000000000000
     0.000000000000000    -0.000000000000000     0.110975823933927
1 7
     0.163776304446628     0.510596207967564    -0.464301989835103
     0.309929537184956    -0.309954454511598    -0.085068469208414
    -0.305822450518673    -0.359563083906156     0.733873502983843
1 8
    -0.096859391011915    -0.000000000000000     0.000000000000000
    -0.000000000000000    -0.096859391011915    -0.000000000000000
    -0.000000000000000     0.000000000000000     0.110975823933927
1 9
     0.163776304446628    -0.510596207967564     0.464301989835103
    -0.309929537184956    -0.309954454511598    -0.085068469208414
     0.305822450518673    -0.359563083906156     0.733873502983843
1 10
    -4.062348658829096     1.571003839801589     3.425293057689665
     1.571003839801589    -2.248309678307504    -1.977593869155035
     3.425293057689665    -1.977593869155035    -4.654333062955323
1 11
    -4.062348658829096    -1.571003839801589    -3.425293057689665
    -1.571003839801589    -2.248309678307504    -1.977593869155035
    -3.425293057689665    -1.977593869155035    -4.654333062955323
1 12
    -0.415268017791209    -0.000000000000000    -0.000000000000000
    -0.000000000000000    -0.190145891359838    -0.236134404906400
    -0.000000000000000    -0.236134404906400    -0.535856883229817
1 13
    -0.246426422967680     0.097480739993125     0.204498393171207
     0.097480739993125    -0.358987486183366     0.118067201819526
     0.204498393171207     0.118067201819526    -0.535856883229817
1 14
     0.082229497166256     0.000000000000000    -0.000000000000000
     0.000000000000000     0.021793824862615    -0.063413598901910
    -0.000000000000000    -0.063413598901910    -0.192114690942377
1 15
    -0.246426422967680    -0.097480739993125    -0.204498393171207
    -0.097480739993125    -0.358987486183366     0.118067201819526
    -0.204498393171207     0.118067201819526    -0.535856883229817
1 16
    -1.341290189314056    -0.000000000000000     0.000000000000000
    -0.000000000000000    -4.969368149089893     3.955187738310071
     0.000000000000000     3.955187738310071    -4.654333062955323
1 17
     0.036902743255363     0.026169413117819    -0.054917787919662
     0.026169413117819     0.067120580040857     0.031706799450955
    -0.054917787919662     0.031706799450955    -0.192114690942377
1 18
     0.036902743255363    -0.026169413117819     0.054917787919662
    -0.026169413117819     0.067120580040857     0.031706799450955
     0.054917787919662     0.031706799450955    -0.192114690942377
2 1
    -0.546819833990712     0.100333334757630     0.158479540583778
    -0.100333334757630     0.400641685193089     0.444631553114570
    -0.158479540583778     0.444631553114570     0.733873502983843
2 2
    10.850326616705884     0.000000000000000    -0.000000000000000
     0.000000000000000    10.850326616705884    -0.000000000000000
    -0.000000000000000    -0.000000000000000    11.521721243076938
2 3
    -0.546819833990712    -0.100333334757630    -0.158479540583778
     0.100333334757630     0.400641685193089     0.444631553114570
     0.158479540583778     0.444631553114570     0.733873502983843
2 4
    -0.096859391011915    -0.000000000000000    -0.000000000000000
    -0.000000000000000    -0.096859391011915     0.000000000000000
     0.000000000000000    -0.000000000000000     0.110975823933927
2 5
     0.163776304446628     0.309929537184956    -0.305822450518673
     0.510596207967564    -0.309954454511598    -0.359563083906156
    -0.464301989835103    -0.085068469208414     0.733873502983843
2 6
     0.163776304446628    -0.309929537184956     0.305822450518673
    -0.510596207967564    -0.309954454511598    -0.359563083906156
     0.464301989835103    -0.085068469208414     0.733873502983843
2 7
     0.163776304446628    -0.510596207967564     0.464301989835103
    -0.309929537184956    -0.309954454511598    -0.085068469208414
     0.305822450518673    -0.359563083906156     0.733873502983843
2 8
     0.163776304446628     0.510596207967564    -0.464301989835103
     0.309929537184956    -0.309954454511598    -0.085068469208414
    -0.305822450518673    -0.359563083906156     0.733873502983843
2 9
    -0.096859391011915    -0.000000000000000     0.000000000000000
    -0.000000000000000    -0.096859391011915    -0.000000000000000
    -0.000000000000000     0.000000000000000     0.110975823933927
2 10
    -0.415268017791209    -0.000000000000000    -0.000000000000000
    -0.000000000000000    -0.190145891359838    -0.236134404906400
    -0.000000000000000    -0.236134404906400    -0.535856883229817
2 11
    -4.062348658829096     1.571003839801589     3.425293057689665
     1.571003839801589    -2.248309678307504    -1.977593869155035
     3.425293057689665    -1.977593869155035    -4.654333062955323
2 12
    -4.062348658829096    -1.571003839801589    -3.425293057689665
    -1.571003839801589    -2.248309678307504    -1.977593869155035
    -3.425293057689665    -1.977593869155035    -4.654333062955323
2 13
    -0.246426422967680    -0.097480739993125    -0.204498393171207
    -0.097480739993125    -0.358987486183366     0.118067201819526
    -0.204498393171207     0.118067201819526    -0.535856883229817
2 14
    -0.246426422967680     0.097480739993125     0.204498393171207
     0.097480739993125    -0.358987486183366     0.118067201819526
     0.204498393171207     0.118067201819526    -0.535856883229817
2 15
     0.082229497166256     0.000000000000000    -0.000000000000000
     0.000000000000000     0.021793824862615    -0.063413598901910
    -0.000000000000000    -0.063413598901910    -0.192114690942377
2 16
     0.036902743255363    -0.026169413117819     0.054917787919662
    -0.026169413117819     0.067120580040857     0.031706799450955
     0.054917787919662     0.031706799450955    -0.192114690942377
2 17
    -1.341290189314056    -0.000000000000000     0.000000000000000
    -0.000000000000000    -4.969368149089893     3.955187738310071
     0.000000000000000     3.955187738310071    -4.654333062955323
2 18
     0.036902743255363     0.026169413117819    -0.054917787919662
     0.026169413117819     0.067120580040857     0.031706799450955
    -0.054917787919662     0.031706799450955    -0.192114690942377
3 1
    -0.546819833990712    -0.100333334757630    -0.158479540583778
     0.100333334757630     0.400641685193089     0.444631553114570
     0.158479540583778     0.444631553114570     0.733873502983843
3 2
    -0.546819833990712     0.100333334757630     0.158479540583778
    -0.100333334757630     0.400641685193089     0.444631553114570
    -0.158479540583778     0.444631553114570     0.733873502983843
3 3
    10.850326616705884     0.000000000000000    -0.000000000000000
     0.000000000000000    10.850326616705884    -0.000000000000000
    -0.000000000000000    -0.000000000000000    11.521721243076938
3 4
     0.163776304446628    -0.309929537184956     0.305822450518673
    -0.510596207967564    -0.309954454511598    -0.359563083906156
     0.464301989835103    -0.085068469208414     0.733873502983843
3 5
    -0.096859391011915    -0.000000000000000    -0.000000000000000
    -0.000000000000000    -0.096859391011915     0.000000000000000
     0.000000000000000    -0.000000000000000     0.110975823933927
3 6
     0.163776304446628     0.309929537184956    -0.305822450518673
     0.510596207967564    -0.309954454511598    -0.359563083906156
    -0.464301989835103    -0.085068469208414     0.733873502983843
3 7
    -0.096859391011915    -0.000000000000000     0.000000000000000
    -0.000000000000000    -0.096859391011915    -0.000000000000000
    -0.000000000000000     0.000000000000000     0.110975823933927
3 8
     0.163776304446628    -0.510596207967564     0.464301989835103
    -0.309929537184956    -0.309954454511598    -0.085068469208414
     0.305822450518673    -0.359563083906156     0.733873502983843
3 9
     0.163776304446628     0.510596207967564    -0.464301989835103
     0.309929537184956    -0.309954454511598    -0.085068469208414
    -0.305822450518673    -0.359563083906156     0.733873502983843
3 10
    -4.062348658829096    -1.571003839801589    -3.425293057689665
    -1.571003839801589    -2.248309678307504    -1.977593869155035
    -3.425293057689665    -1.977593869155035    -4.654333062955323
3 11
    -0.415268017791209    -0.000000000000000    -0.000000000000000
    -0.000000000000000    -0.190145891359838    -0.236134404906400
    -0.000000000000000    -0.236134404906400    -0.535856883229817
3 12
    -4.062348658829096     1.571003839801589     3.425293057689665
     1.571003839801589    -2.248309678307504    -1.977593869155035
     3.425293057689665    -1.977593869155035    -4.654333062955323
3 13
     0.082229497166256     0.000000000000000    -0.000000000000000
     0.000000000000000     0.021793824862615    -0.063413598901910
    -0.000000000000000    -0.063413598901910    -0.192114690942377
3 14
    -0.246426422967680    -0.097480739993125    -0.204498393171207
    -0.097480739993125    -0.358987486183366     0.118067201819526
    -0.204498393171207     0.118067201819526    -0.535856883229817
3 15
    -0.246426422967680     0.097480739993125     0.204498393171207
     0.097480739993125    -0.358987486183366     0.118067201819526
     0.204498393171207     0.118067201819526    -0.535856883229817
3 16
     0.036902743255363     0.026169413117819    -0.054917787919662
     0.026169413117819     0.067120580040857     0.031706799450955
    -0.054917787919662     0.031706799450955    -0.192114690942377
3 17
     0.036902743255363    -0.026169413117819     0.054917787919662
    -0.026169413117819     0.067120580040857     0.031706799450955
     0.054917787919662     0.031706799450955    -0.192114690942377
3 18
    -1.341290189314056    -0.000000000000000     0.000000000000000
    -0.000000000000000    -4.969368149089893     3.955187738310071
     0.000000000000000     3.955187738310071    -4.654333062955323
4 1
     0.163776304446628     0.510596207967564    -0.464301989835103
     0.309929537184956    -0.309954454511598    -0.085068469208414
    -0.305822450518673    -0.359563083906156     0.733873502983843
4 2
    -0.096859391011915    -0.000000000000000     0.000000000000000
    -0.000000000000000    -0.096859391011915    -0.000000000000000
    -0.000000000000000     0.000000000000000     0.110975823933927
4 3
     0.163776304446628    -0.510596207967564     0.464301989835103
    -0.309929537184956    -0.309954454511598    -0.085068469208414
     0.305822450518673    -0.359563083906156     0.733873502983843
4 4
    10.850326616705884     0.000000000000000    -0.000000000000000
     0.000000000000000    10.850326616705884    -0.000000000000000
    -0.000000000000000    -0.000000000000000    11.521721243076938
4 5
    -0.546819833990712    -0.100333334757630    -0.158479540583778
     0.100333334757630     0.400641685193089     0.444631553114570
     0.158479540583778     0.444631553114570     0.733873502983843
4 6
    -0.546819833990712     0.100333334757630     0.158479540583778
    -0.100333334757630     0.400641685193089     0.444631553114570
    -0.158479540583778     0.444631553114570     0.733873502983843
4 7
     0.163776304446628     0.309929537184956    -0.305822450518673
     0.510596207967564    -0.309954454511598    -0.359563083906156
    -0.464301989835103    -0.085068469208414     0.733873502983843
4 8
     0.163776304446628    -0.309929537184956     0.305822450518673
    -0.510596207967564    -0.309954454511598    -0.359563083906156
     0.464301989835103    -0.085068469208414     0.733873502983843
4 9
    -0.096859391011915    -0.000000000000000    -0.000000000000000
    -0.000000000000000    -0.096859391011915     0.000000000000000
     0.000000000000000    -0.000000000000000     0.110975823933927
4 10
    -1.341290189314056    -0.000000000000000     0.000000000000000
    -0.000000000000000    -4.969368149089893     3.955187738310071
     0.000000000000000     3.955187738310071    -4.654333062955323
4 11
     0.036902743255363     0.026169413117819    -0.054917787919662
     0.026169413117819     0.067120580040857     0.031706799450955
    -0.054917787919662     0.031706799450955    -0.192114690942377
4 12
     0.036902743255363    -0.026169413117819     0.054917787919662
    -0.026169413117819     0.067120580040857     0.031706799450955
     0.054917787919662     0.031706799450955    -0.192114690942377
4 13
    -4.062348658829096     1.571003839801589     3.425293057689665
     1.571003839801589    -2.248309678307504    -1.977593869155035
     3.425293057689665    -1.977593869155035    -4.654333062955323
4 14
    -4.062348658829096    -1.571003839801589    -3.425293057689665
    -1.571003839801589    -2.248309678307504    -1.977593869155035
    -3.425293057689665    -1.977593869155035    -4.654333062955323
4 15
    -0.415268017791209    -0.000000000000000    -0.000000000000000
    -0.000000000000000    -0.190145891359838    -0.236134404906400
    -0.000000000000000    -0.236134404906400    -0.535856883229817
4 16
    -0.246426422967680     0.097480739993125     0.204498393171207
     0.097480739993125    -0.358987486183366     0.118067201819526
     0.204498393171207     0.118067201819526    -0.535856883229817
4 17
     0.082229497166256     0.000000000000000    -0.000000000000000
     0.000000000000000     0.021793824862615    -0.063413598901910
    -0.000000000000000    -0.063413598901910    -0.192114690942377
4 18
    -0.246426422967680    -0.097480739993125    -0.204498393171207
    -0.097480739993125    -0.358987486183366     0.118067201819526
    -0.204498393171207     0.118067201819526    -0.535856883229817
5 1
     0.163776304446628    -0.510596207967564     0.464301989835103
    -0.309929537184956    -0.309954454511598    -0.085068469208414
     0.305822450518673    -0.359563083906156     0.733873502983843
5 2
     0.163776304446628     0.510596207967564    -0.464301989835103
     0.309929537184956    -0.309954454511598    -0.085068469208414
    -0.305822450518673    -0.359563083906156     0.733873502983843
5 3
    -0.096859391011915    -0.000000000000000     0.000000000000000
    -0.000000000000000    -0.096859391011915    -0.000000000000000
    -0.000000000000000     0.000000000000000     0.110975823933927
5 4
    -0.546819833990712     0.100333334757630     0.158479540583778
    -0.100333334757630     0.400641685193089     0.444631553114570
    -0.158479540583778     0.444631553114570     0.733873502983843
5 5
    10.850326616705884     0.000000000000000    -0.000000000000000
     0.000000000000000    10.850326616705884    -0.000000000000000
    -0.000000000000000    -0.000000000000000    11.521721243076938
5 6
    -0.546819833990712    -0.100333334757630    -0.158479540583778
     0.100333334757630     0.400641685193089     0.444631553114570
     0.158479540583778     0.444631553114570     0.733873502983843
5 7
    -0.096859391011915    -0.000000000000000    -0.000000000000000
    -0.000000000000000    -0.096859391011915     0.000000000000000
     0.000000000000000    -0.000000000000000     0.110975823933927
5 8
     0.163776304446628     0.309929537184956    -0.305822450518673
     0.510596207967564    -0.309954454511598    -0.359563083906156
    -0.464301989835103    -0.085068469208414     0.733873502983843
5 9
     0.163776304446628    -0.309929537184956     0.305822450518673
    -0.510596207967564    -0.309954454511598    -0.359563083906156
     0.464301989835103    -0.085068469208414     0.733873502983843
5 10
     0.036902743255363    -0.026169413117819     0.054917787919662
    -0.026169413117819     0.067120580040857     0.031706799450955
     0.054917787919662     0.031706799450955    -0.192114690942377
5 11
    -1.341290189314056    -0.000000000000000     0.000000000000000
    -0.000000000000000    -4.969368149089893     3.955187738310071
     0.000000000000000     3.955187738310071    -4.654333062955323
5 12
     0.036902743255363     0.026169413117819    -0.054917787919662
     0.026169413117819     0.067120580040857     0.031706799450955
    -0.054917787919662     0.031706799450955    -0.192114690942377
5 13
    -0.415268017791209    -0.000000000000000    -0.000000000000000
    -0.000000000000000    -0.190145891359838    -0.236134404906400
    -0.000000000000000    -0.236134404906400    -0.535856883229817
5 14
    -4.062348658829096     1.571003839801589     3.425293057689665
     1.571003839801589    -2.248309678307504    -1.977593869155035
     3.425293057689665    -1.977593869155035    -4.654333062955323
5 15
    -4.062348658829096    -1.571003839801589    -3.425293057689665
    -1.571003839801589    -2.248309678307504    -1.977593869155035
    -3.425293057689665    -1.977593869155035    -4.654333062955323
5 16
    -0.246426422967680    -0.097480739993125    -0.204498393171207
    -0.097480739993125    -0.358987486183366     0.118067201819526
    -0.204498393171207     0.118067201819526    -0.535856883229817
5 17
    -0.246426422967680     0.097480739993125     0.204498393171207
     0.097480739993125    -0.358987486183366     0.118067201819526
     0.204498393171207     0.118067201819526    -0.535856883229817
5 18
     0.082229497166256     0.000000000000000    -0.000000000000000
     0.000000000000000     0.021793824862615    -0.063413598901910
    -0.000000000000000    -0.063413598901910    -0.192114690942377
6 1
    -0.096859391011915    -0.000000000000000     0.000000000000000
    -0.000000000000000    -0.096859391011915    -0.000000000000000
    -0.000000000000000     0.000000000000000     0.110975823933927
6 2
     0.163776304446628    -0.510596207967564     0.464301989835103
    -0.309929537184956    -0.309954454511598    -0.085068469208414
     0.305822450518673    -0.359563083906156     0.733873502983843
6 3
     0.163776304446628     0.510596207967564    -0.464301989835103
     0.309929537184956    -0.309954454511598    -0.085068469208414
    -0.305822450518673    -0.359563083906156     0.733873502983843
6 4
    -0.546819833990712    -0.100333334757630    -0.158479540583778
     0.100333334757630     0.400641685193089     0.444631553114570
     0.158479540583778     0.444631553114570     0.733873502983843
6 5
    -0.546819833990712     0.100333334757630     0.158479540583778
    -0.100333334757630     0.400641685193089     0.444631553114570
    -0.158479540583778     0.444631553114570     0.733873502983843
6 6
    10.850326616705884     0.000000000000000    -0.000000000000000
     0.000000000000000    10.850326616705884    -0.000000000000000
    -0.000000000000000    -0.000000000000000    11.521721243076938
6 7
     0.163776304446628    -0.309929537184956     0.305822450518673
    -0.510596207967564    -0.309954454511598    -0.359563083906156
     0.464301989835103    -0.085068469208414     0.733873502983843
6 8
    -0.096859391011915    -0.000000000000000    -0.000000000000000
    -0.000000000000000    -0.096859391011915     0.000000000000000
     0.000000000000000    -0.000000000000000     0.110975823933927
6 9
     0.163776304446628     0.309929537184956    -0.305822450518673
     0.510596207967564    -0.309954454511598    -0.359563083906156
    -0.464301989835103    -0.085068469208414     0.733873502983843
6 10
     0.036902743255363     0.026169413117819    -0.054917787919662
     0.026169413117819     0.067120580040857     0.031706799450955
    -0.054917787919662     0.031706799450955    -0.192114690942377
6 11
     0.036902743255363    -0.026169413117819     0.054917787919662
    -0.026169413117819     0.067120580040857     0.031706799450955
     0.054917787919662     0.031706799450955    -0.192114690942377
6 12
    -1.341290189314056    -0.000000000000000     0.000000000000000
    -0.000000000000000    -4.969368149089893     3.955187738310071
     0.000000000000000     3.955187738310071    -4.654333062955323
6 13
    -4.062348658829096    -1.571003839801589    -3.425293057689665
    -1.571003839801589    -2.248309678307504    -1.977593869155035
    -3.425293057689665    -1.977593869155035    -4.654333062955323
6 14
    -0.415268017791209    -0.000000000000000    -0.000000000000000
    -0.000000000000000    -0.190145891359838    -0.236134404906400
    -0.000000000000000    -0.236134404906400    -0.535856883229817
6 15
    -4.062348658829096     1.571003839801589     3.425293057689665
     1.571003839801589    -2.248309678307504    -1.977593869155035
     3.425293057689665    -1.977593869155035    -4.654333062955323
6 16
     0.082229497166256     0.000000000000000    -0.000000000000000
     0.000000000000000     0.021793824862615    -0.063413598901910
    -0.000000000000000    -0.063413598901910    -0.192114690942377
6 17
    -0.246426422967680    -0.097480739993125    -0.204498393171207
    -0.097480739993125    -0.358987486183366     0.118067201819526
    -0.204498393171207     0.118067201819526    -0.535856883229817
6 18
    -0.246426422967680     0.097480739993125     0.204498393171207
     0.097480739993125    -0.358987486183366     0.118067201819526
     0.204498393171207     0.118067201819526    -0.535856883229817
7 1
     0.163776304446628     0.309929537184956    -0.305822450518673
     0.510596207967564    -0.309954454511598    -0.359563083906156
    -0.464301989835103    -0.085068469208414     0.733873502983843
7 2
     0.163776304446628    -0.309929537184956     0.305822450518673
    -0.510596207967564    -0.309954454511598    -0.359563083906156
     0.464301989835103    -0.085068469208414     0.733873502983843
7 3
    -0.096859391011915    -0.000000000000000    -0.000000000000000
    -0.000000000000000    -0.096859391011915     0.000000000000000
     0.000000000000000    -0.000000000000000     0.110975823933927
7 4
     0.163776304446628     0.510596207967564    -0.464301989835103
     0.309929537184956    -0.309954454511598    -0.085068469208414
    -0.305822450518673    -0.359563083906156     0.733873502983843
7 5
    -0.096859391011915    -0.000000000000000     0.000000000000000
    -0.000000000000000    -0.096859391011915    -0.000000000000000
    -0.000000000000000     0.000000000000000     0.110975823933927
7 6
     0.163776304446628    -0.510596207967564     0.464301989835103
    -0.309929537184956    -0.309954454511598    -0.085068469208414
     0.305822450518673    -0.359563083906156     0.733873502983843
7 7
    10.850326616705884     0.000000000000000    -0.000000000000000
     0.000000000000000    10.850326616705884    -0.000000000000000
    -0.000000000000000    -0.000000000000000    11.521721243076938
7 8
    -0.546819833990712    -0.100333334757630    -0.158479540583778
     0.100333334757630     0.400641685193089     0.444631553114570
     0.158479540583778     0.444631553114570     0.733873502983843
7 9
    -0.546819833990712     0.100333334757630     0.158479540583778
    -0.100333334757630     0.400641685193089     0.444631553114570
    -0.158479540583778     0.444631553114570     0.733873502983843
7 10
    -0.246426422967680     0.097480739993125     0.204498393171207
     0.097480739993125    -0.358987486183366     0.118067201819526
     0.204498393171207     0.118067201819526    -0.535856883229817
7 11
     0.082229497166256     0.000000000000000    -0.000000000000000
     0.000000000000000     0.021793824862615    -0.063413598901910
    -0.000000000000000    -0.063413598901910    -0.192114690942377
7 12
    -0.246426422967680    -0.097480739993125    -0.204498393171207
    -0.097480739993125    -0.358987486183366     0.118067201819526
    -0.204498393171207     0.118067201819526    -0.535856883229817
7 13
    -1.341290189314056    -0.000000000000000     0.000000000000000
    -0.000000000000000    -4.969368149089893     3.955187738310071
     0.000000000000000     3.955187738310071    -4.654333062955323
7 14
     0.036902743255363     0.026169413117819    -0.054917787919662
     0.026169413117819     0.067120580040857     0.031706799450955
    -0.054917787919662     0.031706799450955    -0.192114690942377
7 15
     0.036902743255363    -0.026169413117819     0.054917787919662
    -0.026169413117819     0.067120580040857     0.031706799450955
     0.054917787919662     0.031706799450955    -0.192114690942377
7 16
    -4.062348658829096     1.571003839801589     3.425293057689665
     1.571003839801589    -2.248309678307504    -1.977593869155035
     3.425293057689665    -1.977593869155035    -4.654333062955323
7 17
    -4.062348658829096    -1.571003839801589    -3.425293057689665
    -1.571003839801589    -2.248309678307504    -1.977593869155035
    -3.425293057689665    -1.977593869155035    -4.654333062955323
7 18
    -0.415268017791209    -0.000000000000000    -0.000000000000000
    -0.000000000000000    -0.190145891359838    -0.236134404906400
    -0.000000000000000    -0.236134404906400    -0.535856883229817
8 1
    -0.096859391011915    -0.000000000000000    -0.000000000000000
    -0.000000000000000    -0.096859391011915     0.000000000000000
     0.000000000000000    -0.000000000000000     0.110975823933927
8 2
     0.163776304446628     0.309929537184956    -0.305822450518673
     0.510596207967564    -0.309954454511598    -0.359563083906156
    -0.464301989835103    -0.085068469208414     0.733873502983843
8 3
     0.163776304446628    -0.309929537184956     0.305822450518673
    -0.510596207967564    -0.309954454511598    -0.359563083906156
     0.464301989835103    -0.085068469208414     0.733873502983843
8 4
     0.163776304446628    -0.510596207967564     0.464301989835103
    -0.309929537184956    -0.309954454511598    -0.085068469208414
     0.305822450518673    -0.359563083906156     0.733873502983843
8 5
     0.163776304446628     0.510596207967564    -0.464301989835103
     0.309929537184956    -0.309954454511598    -0.085068469208414
    -0.305822450518673    -0.359563083906156     0.733873502983843
8 6
    -0.096859391011915    -0.000000000000000     0.000000000000000
    -0.000000000000000    -0.096859391011915    -0.000000000000000
    -0.000000000000000     0.000000000000000     0.110975823933927
8 7
    -0.546819833990712     0.100333334757630     0.158479540583778
    -0.100333334757630     0.400641685193089     0.444631553114570
    -0.158479540583778     0.444631553114570     0.733873502983843
8 8
    10.850326616705884     0.000000000000000    -0.000000000000000
     0.000000000000000    10.850326616705884    -0.000000000000000
    -0.000000000000000    -0.000000000000000    11.521721243076938
8 9
    -0.546819833990712    -0.100333334757630    -0.158479540583778
     0.100333334757630     0.400641685193089     0.444631553114570
     0.158479540583778     0.444631553114570     0.733873502983843
8 10
    -0.246426422967680    -0.097480739993125    -0.204498393171207
    -0.097480739993125    -0.358987486183366     0.118067201819526
    -0.204498393171207     0.118067201819526    -0.535856883229817
8 11
    -0.246426422967680     0.097480739993125     0.204498393171207
     0.097480739993125    -0.358987486183366     0.118067201819526
     0.204498393171207     0.118067201819526    -0.535856883229817
8 12
     0.082229497166256     0.000000000000000    -0.000000000000000
     0.000000000000000     0.021793824862615    -0.063413598901910
    -0.000000000000000    -0.063413598901910    -0.192114690942377
8 13
     0.036902743255363    -0.026169413117819     0.054917787919662
    -0.026169413117819     0.067120580040857     0.031706799450955
     0.054917787919662     0.031706799450955    -0.192114690942377
8 14
    -1.341290189314056    -0.000000000000000     0.000000000000000
    -0.000000000000000    -4.969368149089893     3.955187738310071
     0.000000000000000     3.955187738310071    -4.654333062955323
8 15
     0.036902743255363     0.026169413117819    -0.054917787919662
     0.026169413117819     0.067120580040857     0.031706799450955
    -0.054917787919662     0.031706799450955    -0.192114690942377
8 16
    -0.415268017791209    -0.000000000000000    -0.000000000000000
    -0.000000000000000    -0.190145891359838    -0.236134404906400
    -0.000000000000000    -0.236134404906400    -0.535856883229817
8 17
    -4.062348658829096     1.571003839801589     3.425293057689665
     1.571003839801589    -2.248309678307504    -1.977593869155035
     3.425293057689665    -1.977593869155035    -4.654333062955323
8 18
    -4.062348658829096    -1.571003839801589    -3.425293057689665
    -1.571003839801589    -2.248309678307504    -1.977593869155035
    -3.425293057689665    -1.977593869155035    -4.654333062955323
9 1
     0.163776304446628    -0.309929537184956     0.305822450518673
    -0.510596207967564    -0.309954454511598    -0.359563083906156
     0.464301989835103    -0.085068469208414     0.733873502983843
9 2
    -0.096859391011915    -0.000000000000000    -0.000000000000000
    -0.000000000000000    -0.096859391011915     0.000000000000000