mesh: [    48,    48,     1 ]
nqpoint: 217    
reciprocal_lattice:
- [   0.30466038,   0.17589575,   0.00000000 ] # a*
- [   0.00000000,   0.35179150,   0.00000000 ] # b*
- [   0.00000000,   0.00000000,   0.06250000 ] # c*
natom:   2      
lattice:
- [     3.282343494205146,     0.000000000000000,     0.000000000000000 ] # a
- [    -1.641171747102573,     2.842592849928236,     0.000000000000000 ] # b
- [     0.000000000000000,     0.000000000000000,    16.000000000000000 ] # c
points:
- symbol: H  # 1
  coordinates: [  0.666666666666664,  0.333333333333336,  0.461182839010306 ]
  mass: 1.007940
- symbol: H  # 2
  coordinates: [  0.333333333333336,  0.666666666666664,  0.538817160989694 ]
  mass: 1.007940

phonon:
- q-position: [    0.0000000,    0.0000000,    0.0000000 ]
  distance_from_gamma:  0.000000000
  weight: 1    
  band:
  - # 1
    frequency:    -0.0008289415
  - # 2
    frequency:    -0.0007839638
  - # 3
    frequency:     0.0008289416
  - # 4
    frequency:    70.3935539959
  - # 5
    frequency:    70.3935539959
  - # 6
    frequency:    88.4897867230

- q-position: [    0.0208333,    0.0000000,    0.0000000 ]
  distance_from_gamma:  0.007328990
  weight: 6    
  band:
  - # 1
    frequency:     1.0469934018
  - # 2
    frequency:     1.9837059777
  - # 3
    frequency:     3.1365773500
  - # 4
    frequency:    70.3576738406
  - # 5
    frequency:    70.3918587906
  - # 6
    frequency:    88.3882235394

- q-position: [    0.0416667,    0.0000000,    0.0000000 ]
  distance_from_gamma:  0.014657979
  weight: 6    
  band:
  - # 1
    frequency:     2.0852191330
  - # 2
    frequency:     3.9482226231
  - # 3
    frequency:     6.2500316688
  - # 4
    frequency:    70.2507527089
  - # 5
    frequency:    70.3861246626
  - # 6
    frequency:    88.0859521230

- q-position: [    0.0625000,    0.0000000,    0.0000000 ]
  distance_from_gamma:  0.021986969
  weight: 6    
  band:
  - # 1
    frequency:     3.1064095910
  - # 2
    frequency:     5.8745712595
  - # 3
    frequency:     9.3172563500
  - # 4
    frequency:    70.0749464299
  - # 5
    frequency:    70.3743402290
  - # 6
    frequency:    87.5902919957

- q-position: [    0.0833333,    0.0000000,    0.0000000 ]
  distance_from_gamma:  0.029315958
  weight: 6    
  band:
  - # 1
    frequency:     4.1032890971
  - # 2
    frequency:     7.7441996792
  - # 3
    frequency:    12.3151624232
  - # 4
    frequency:    69.8338388537
  - # 5
    frequency:    70.3529290054
  - # 6
    frequency:    86.9136668097

- q-position: [    0.1041667,    0.0000000,    0.0000000 ]
  distance_from_gamma:  0.036644948
  weight: 6    
  band:
  - # 1
    frequency:     5.0700400043
  - # 2
    frequency:     9.5392109542
  - # 3
    frequency:    15.2206485713
  - # 4
    frequency:    69.5324212529
  - # 5
    frequency:    70.3163985583
  - # 6
    frequency:    86.0739645886

- q-position: [    0.1250000,    0.0000000,    0.0000000 ]
  distance_from_gamma:  0.043973937
  weight: 6    
  band:
  - # 1
    frequency:     6.0027295466
  - # 2
    frequency:    11.2426123005
  - # 3
    frequency:    18.0105267978
  - # 4
    frequency:    69.1770500925
  - # 5
    frequency:    70.2568300864
  - # 6
    frequency:    85.0950774306

- q-position: [    0.1458333,    0.0000000,    0.0000000 ]
  distance_from_gamma:  0.051302927
  weight: 6    
  band:
  - # 1
    frequency:     6.8996749628
  - # 2
    frequency:    12.8385934119
  - # 3
    frequency:    20.6613938862
  - # 4
    frequency:    68.7753704814
  - # 5
    frequency:    70.1632272169
  - # 6
    frequency:    84.0076129975

- q-position: [    0.1666667,    0.0000000,    0.0000000 ]
  distance_from_gamma:  0.058631917
  weight: 6    
  band:
  - # 1
    frequency:     7.7617190999
  - # 2
    frequency:    14.3128442062
  - # 3
    frequency:    23.1494479913
  - # 4
    frequency:    68.3361905290
  - # 5
    frequency:    70.0208498108
  - # 6
    frequency:    82.8496569887

- q-position: [    0.1875000,    0.0000000,    0.0000000 ]
  distance_from_gamma:  0.065960906
  weight: 6    
  band:
  - # 1
    frequency:     8.5923825894
  - # 2
    frequency:    15.6529209032
  - # 3
    frequency:    25.4502687424
  - # 4
    frequency:    67.8692917691
  - # 5
    frequency:    69.8109396075
  - # 6
    frequency:    81.6671675671

- q-position: [    0.2083333,    0.0000000,    0.0000000 ]
  distance_from_gamma:  0.073289896
  weight: 6    
  band:
  - # 1
    frequency:     9.3978541155
  - # 2
    frequency:    16.8486651249
  - # 3
    frequency:    27.5386160848
  - # 4
    frequency:    67.3851640038
  - # 5
    frequency:    69.5118069743
  - # 6
    frequency:    80.5129843827

- q-position: [    0.2291667,    0.0000000,    0.0000000 ]
  distance_from_gamma:  0.080618885
  weight: 6    
  band:
  - # 1
    frequency:    10.1867792213
  - # 2
    frequency:    17.8926718141
  - # 3
    frequency:    29.3883680623
  - # 4
    frequency:    66.8946605597
  - # 5
    frequency:    69.1029198456
  - # 6
    frequency:    79.4426987162

- q-position: [    0.2500000,    0.0000000,    0.0000000 ]
  distance_from_gamma:  0.087947875
  weight: 6    
  band:
  - # 1
    frequency:    10.9698127305
  - # 2
    frequency:    18.7807872882
  - # 3
    frequency:    30.9728185554
  - # 4
    frequency:    66.4085826381
  - # 5
    frequency:    68.5732695309
  - # 6
    frequency:    78.5058982658

- q-position: [    0.2708333,    0.0000000,    0.0000000 ]
  distance_from_gamma:  0.095276864
  weight: 6    
  band:
  - # 1
    frequency:    11.7589114863
  - # 2
    frequency:    19.5125992677
  - # 3
    frequency:    32.2656812384
  - # 4
    frequency:    65.9372182611
  - # 5
    frequency:    67.9319177512
  - # 6
    frequency:    77.7345489438

- q-position: [    0.2916667,    0.0000000,    0.0000000 ]
  distance_from_gamma:  0.102605854
  weight: 6    
  band:
  - # 1
    frequency:    12.5663610914
  - # 2
    frequency:    20.0918590572
  - # 3
    frequency:    33.2432317092
  - # 4
    frequency:    65.4898791008
  - # 5
    frequency:    67.2135090850
  - # 6
    frequency:    77.1353191607

- q-position: [    0.3125000,    0.0000000,    0.0000000 ]
  distance_from_gamma:  0.109934843
  weight: 6    
  band:
  - # 1
    frequency:    13.4035454473
  - # 2
    frequency:    20.5267574799
  - # 3
    frequency:    33.8879163729
  - # 4
    frequency:    65.0744918066
  - # 5
    frequency:    66.4722215212
  - # 6
    frequency:    76.6920843698

- q-position: [    0.3333333,    0.0000000,    0.0000000 ]
  distance_from_gamma:  0.117263833
  weight: 6    
  band:
  - # 1
    frequency:    14.2794660596
  - # 2
    frequency:    20.8299671117
  - # 3
    frequency:    34.1932766875
  - # 4
    frequency:    64.6973031604
  - # 5
    frequency:    65.7666583042
  - # 6
    frequency:    76.3763324082

- q-position: [    0.3541667,    0.0000000,    0.0000000 ]
  distance_from_gamma:  0.124592823
  weight: 6    
  band:
  - # 1
    frequency:    15.1989751619
  - # 2
    frequency:    21.0183690565
  - # 3
    frequency:    34.1691993367
  - # 4
    frequency:    64.3627464042
  - # 5
    frequency:    65.1446474004
  - # 6
    frequency:    76.1576274383

- q-position: [    0.3750000,    0.0000000,    0.0000000 ]
  distance_from_gamma:  0.131921812
  weight: 6    
  band:
  - # 1
    frequency:    16.1605681819
  - # 2
    frequency:    21.1124046616
  - # 3
    frequency:    33.8458645204
  - # 4
    frequency:    64.0734903297
  - # 5
    frequency:    64.6344340030
  - # 6
    frequency:    76.0095268615

- q-position: [    0.3958333,    0.0000000,    0.0000000 ]
  distance_from_gamma:  0.139250802
  weight: 6    
  band:
  - # 1
    frequency:    17.1533389549
  - # 2
    frequency:    21.1350289910
  - # 3
    frequency:    33.2752550482
  - # 4
    frequency:    63.8306598697
  - # 5
    frequency:    64.2434834606
  - # 6
    frequency:    75.9113419455

- q-position: [    0.4166667,    0.0000000,    0.0000000 ]
  distance_from_gamma:  0.146579791
  weight: 6    
  band:
  - # 1
    frequency:    18.1522857790
  - # 2
    frequency:    21.1102896604
  - # 3
    frequency:    32.5309864656
  - # 4
    frequency:    63.6341869616
  - # 5
    frequency:    63.9629509823
  - # 6
    frequency:    75.8477740872

- q-position: [    0.4375000,    0.0000000,    0.0000000 ]
  distance_from_gamma:  0.153908781
  weight: 6    
  band:
  - # 1
    frequency:    19.1106794500
  - # 2
    frequency:    21.0616088469
  - # 3
    frequency:    31.7093353021
  - # 4
    frequency:    63.4832319790
  - # 5
    frequency:    63.7747489290
  - # 6
    frequency:    75.8079054259

- q-position: [    0.4583333,    0.0000000,    0.0000000 ]
  distance_from_gamma:  0.161237770
  weight: 6    
  band:
  - # 1
    frequency:    19.9489007812
  - # 2
    frequency:    21.0099056083
  - # 3
    frequency:    30.9341261910
  - # 4
    frequency:    63.3766124676
  - # 5
    frequency:    63.6584425076
  - # 6
    frequency:    75.7842141261

- q-position: [    0.4791667,    0.0000000,    0.0000000 ]
  distance_from_gamma:  0.168566760
  weight: 6    
  band:
  - # 1
    frequency:    20.5466212366
  - # 2
    frequency:    20.9717536193
  - # 3
    frequency:    30.3599035561
  - # 4
    frequency:    63.3131847495
  - # 5
    frequency:    63.5964252838
  - # 6
    frequency:    75.7718203886

- q-position: [    0.5000000,    0.0000000,    0.0000000 ]
  distance_from_gamma:  0.175895750
  weight: 3    
  band:
  - # 1
    frequency:    20.7678326375
  - # 2
    frequency:    20.9578102809
  - # 3
    frequency:    30.1441007351
  - # 4
    frequency:    63.2921391197
  - # 5
    frequency:    63.5770934943
  - # 6
    frequency:    75.7679836148

- q-position: [    0.0208333,    0.0208333,    0.0000000 ]
  distance_from_gamma:  0.012694182
  weight: 6    
  band:
  - # 1
    frequency:     1.8082516449
  - # 2
    frequency:     3.4325849875
  - # 3
    frequency:     5.4144889817
  - # 4
    frequency:    70.2858916361
  - # 5
    frequency:    70.3885317328
  - # 6
    frequency:    88.1862989513

- q-position: [    0.0416667,    0.0208333,    0.0000000 ]
  distance_from_gamma:  0.019390684
  weight: 12   
  band:
  - # 1
    frequency:     2.7471778301
  - # 2
    frequency:     5.2171810373
  - # 3
    frequency:     8.2251982899
  - # 4
    frequency:    70.1434450042
  - # 5
    frequency:    70.3809048630
  - # 6
    frequency:    87.7872739315

- q-position: [    0.0625000,    0.0208333,    0.0000000 ]
  distance_from_gamma:  0.026425048
  weight: 12   
  band:
  - # 1
    frequency:     3.7139434171
  - # 2
    frequency:     7.0453211643
  - # 3
    frequency:    11.1231893901
  - # 4
    frequency:    69.9333145933
  - # 5
    frequency:    70.3661536101
  - # 6
    frequency:    87.2009260877

- q-position: [    0.0833333,    0.0208333,    0.0000000 ]
  distance_from_gamma:  0.033585649
  weight: 12   
  band:
  - # 1
    frequency:     4.6717574970
  - # 2
    frequency:     8.8414868987
  - # 3
    frequency:    13.9947944136
  - # 4
    frequency:    69.6598307582
  - # 5
    frequency:    70.3398337090
  - # 6
    frequency:    86.4422592935

- q-position: [    0.1041667,    0.0208333,    0.0000000 ]
  distance_from_gamma:  0.040806087
  weight: 12   
  band:
  - # 1
    frequency:     5.6062847143
  - # 2
    frequency:    10.5703853120
  - # 3
    frequency:    16.7883864062
  - # 4
    frequency:    69.3287040504
  - # 5
    frequency:    70.2954005780
  - # 6
    frequency:    85.5319433823

- q-position: [    0.1250000,    0.0208333,    0.0000000 ]
  distance_from_gamma:  0.048059399
  weight: 12   
  band:
  - # 1
    frequency:     6.5108777668
  - # 2
    frequency:    12.2083575405
  - # 3
    frequency:    19.4691354994
  - # 4
    frequency:    68.9469851311
  - # 5
    frequency:    70.2236148437
  - # 6
    frequency:    84.4969355941

- q-position: [    0.1458333,    0.0208333,    0.0000000 ]
  distance_from_gamma:  0.055332658
  weight: 12   
  band:
  - # 1
    frequency:     7.3832576253
  - # 2
    frequency:    13.7368216157
  - # 3
    frequency:    22.0079636411
  - # 4
    frequency:    68.5229728788
  - # 5
    frequency:    70.1118530498
  - # 6
    frequency:    83.3712398327

- q-position: [    0.1666667,    0.0208333,    0.0000000 ]
  distance_from_gamma:  0.062618914
  weight: 12   
  band:
  - # 1
    frequency:     8.2245724444
  - # 2
    frequency:    15.1404508037
  - # 3
    frequency:    24.3778839096
  - # 4
    frequency:    68.0660646414
  - # 5
    frequency:    69.9435377239
  - # 6
    frequency:    82.1965770008

- q-position: [    0.1875000,    0.0208333,    0.0000000 ]
  distance_from_gamma:  0.069914105
  weight: 12   
  band:
  - # 1
    frequency:     9.0390264415
  - # 2
    frequency:    16.4067400091
  - # 3
    frequency:    26.5524640007
  - # 4
    frequency:    67.5865366790
  - # 5
    frequency:    69.6983120732
  - # 6
    frequency:    81.0223102578

- q-position: [    0.2083333,    0.0208333,    0.0000000 ]
  distance_from_gamma:  0.077215696
  weight: 12   
  band:
  - # 1
    frequency:     9.8335770729
  - # 2
    frequency:    17.5260903219
  - # 3
    frequency:    28.5051092380
  - # 4
    frequency:    67.0952471422
  - # 5
    frequency:    69.3542656840
  - # 6
    frequency:    79.9032404757

- q-position: [    0.2291667,    0.0208333,    0.0000000 ]
  distance_from_gamma:  0.084522031
  weight: 12   
  band:
  - # 1
    frequency:    10.6175155244
  - # 2
    frequency:    18.4921236347
  - # 3
    frequency:    30.2088847152
  - # 4
    frequency:    66.6032643689
  - # 5
    frequency:    68.8939446333
  - # 6
    frequency:    78.8933800290

- q-position: [    0.2500000,    0.0208333,    0.0000000 ]
  distance_from_gamma:  0.091831976
  weight: 12   
  band:
  - # 1
    frequency:    11.4018467147
  - # 2
    frequency:    19.3020968140
  - # 3
    frequency:    31.6369885742
  - # 4
    frequency:    66.1214390716
  - # 5
    frequency:    68.3143089443
  - # 6
    frequency:    78.0352728477

- q-position: [    0.2708333,    0.0208333,    0.0000000 ]
  distance_from_gamma:  0.099144733
  weight: 12   
  band:
  - # 1
    frequency:    12.1984314245
  - # 2
    frequency:    19.9573235341
  - # 3
    frequency:    32.7641960468
  - # 4
    frequency:    65.6599575699
  - # 5
    frequency:    67.6359805993
  - # 6
    frequency:    77.3491430707

- q-position: [    0.2916667,    0.0208333,    0.0000000 ]
  distance_from_gamma:  0.106459723
  weight: 12   
  band:
  - # 1
    frequency:    13.0188820633
  - # 2
    frequency:    20.4635135377
  - # 3
    frequency:    33.5696383054
  - # 4
    frequency:    65.2279281285
  - # 5
    frequency:    66.9036163569
  - # 6
    frequency:    76.8296712954

- q-position: [    0.3125000,    0.0208333,    0.0000000 ]
  distance_from_gamma:  0.113776514
  weight: 12   
  band:
  - # 1
    frequency:    13.8732168905
  - # 2
    frequency:    20.8309334127
  - # 3
    frequency:    34.0410236342
  - # 4
    frequency:    64.8330507257
  - # 5
    frequency:    66.1745817773
  - # 6
    frequency:    76.4531631591

- q-position: [    0.3333333,    0.0208333,    0.0000000 ]
  distance_from_gamma:  0.121094781
  weight: 12   
  band:
  - # 1
    frequency:    14.7682607981
  - # 2
    frequency:    21.0742942354
  - # 3
    frequency:    34.1797493915
  - # 4
    frequency:    64.4813790939
  - # 5
    frequency:    65.5027251878
  - # 6
    frequency:    76.1890019503

- q-position: [    0.3541667,    0.0208333,    0.0000000 ]
  distance_from_gamma:  0.128414271
  weight: 12   
  band:
  - # 1
    frequency:    15.7057082944
  - # 2
    frequency:    21.2122860807
  - # 3
    frequency:    34.0055558525
  - # 4
    frequency:    64.1770735406
  - # 5
    frequency:    64.9261186840
  - # 6
    frequency:    76.0081849664

- q-position: [    0.3750000,    0.0208333,    0.0000000 ]
  distance_from_gamma:  0.135734786
  weight: 12   
  band:
  - # 1
    frequency:    16.6795995747
  - # 2
    frequency:    21.2667068135
  - # 3
    frequency:    33.5592240891
  - # 4
    frequency:    63.9218982511
  - # 5
    frequency:    64.4627915023
  - # 6
    frequency:    75.8870068422

- q-position: [    0.3958333,    0.0208333,    0.0000000 ]
  distance_from_gamma:  0.143056169
  weight: 12   
  band:
  - # 1
    frequency:    17.6726609656
  - # 2
    frequency:    21.2611642203
  - # 3
    frequency:    32.9030252987
  - # 4
    frequency:    63.7143998443
  - # 5
    frequency:    64.1137635157
  - # 6
    frequency:    75.8075311687

- q-position: [    0.4166667,    0.0208333,    0.0000000 ]
  distance_from_gamma:  0.150378293
  weight: 12   
  band:
  - # 1
    frequency:    18.6505498480
  - # 2
    frequency:    21.2193410486
  - # 3
    frequency:    32.1207579689
  - # 4
    frequency:    63.5500529052
  - # 5
    frequency:    63.8693252869
  - # 6
    frequency:    75.7567645761

- q-position: [    0.4375000,    0.0208333,    0.0000000 ]
  distance_from_gamma:  0.157701055
  weight: 12   
  band:
  - # 1
    frequency:    19.5530938977
  - # 2
    frequency:    21.1627036366
  - # 3
    frequency:    31.3204441301
  - # 4
    frequency:    63.4248331421
  - # 5
    frequency:    63.7130234722
  - # 6
    frequency:    75.7255982500

- q-position: [    0.4583333,    0.0208333,    0.0000000 ]
  distance_from_gamma:  0.165024370
  weight: 12   
  band:
  - # 1
    frequency:    20.2853352372
  - # 2
    frequency:    21.1069033547
  - # 3
    frequency:    30.6395234201
  - # 4
    frequency:    63.3391039414
  - # 5
    frequency:    63.6242369085
  - # 6
    frequency:    75.7079176215

- q-position: [    0.4791667,    0.0208333,    0.0000000 ]
  distance_from_gamma:  0.172348167
  weight: 12   
  band:
  - # 1
    frequency:    20.7245238193
  - # 2
    frequency:    21.0571190762
  - # 3
    frequency:    30.2371001659
  - # 4
    frequency:    63.2954667060
  - # 5
    frequency:    63.5847872729
  - # 6
    frequency:    75.6999693472

- q-position: [    0.0416667,    0.0416667,    0.0000000 ]
  distance_from_gamma:  0.025388365
  weight: 6    
  band:
  - # 1
    frequency:     3.5734848734
  - # 2
    frequency:     6.8121564703
  - # 3
    frequency:    10.6797790582
  - # 4
    frequency:    69.9648964904
  - # 5
    frequency:    70.3722153599
  - # 6
    frequency:    87.2974107354

- q-position: [    0.0625000,    0.0416667,    0.0000000 ]
  distance_from_gamma:  0.031946325
  weight: 12   
  band:
  - # 1
    frequency:     4.4570392564
  - # 2
    frequency:     8.5068835930
  - # 3
    frequency:    13.3014232611
  - # 4
    frequency:    69.7191267237
  - # 5
    frequency:    70.3562796628
  - # 6
    frequency:    86.6284786365

- q-position: [    0.0833333,    0.0416667,    0.0000000 ]
  distance_from_gamma:  0.038781367
  weight: 12   
  band:
  - # 1
    frequency:     5.3519597612
  - # 2
    frequency:    10.2017528315
  - # 3
    frequency:    15.9497450659
  - # 4
    frequency:    69.4114882067
  - # 5
    frequency:    70.3276241744
  - # 6
    frequency:    85.7978953579

- q-position: [    0.1041667,    0.0416667,    0.0000000 ]
  distance_from_gamma:  0.045769525
  weight: 12   
  band:
  - # 1
    frequency:     6.2368783556
  - # 2
    frequency:    11.8452897227
  - # 3
    frequency:    18.5494779195
  - # 4
    frequency:    69.0485948889
  - # 5
    frequency:    70.2786396656
  - # 6
    frequency:    84.8288829305

- q-position: [    0.1250000,    0.0416667,    0.0000000 ]
  distance_from_gamma:  0.052850095
  weight: 12   
  band:
  - # 1
    frequency:     7.1015816034
  - # 2
    frequency:    13.4052155492
  - # 3
    frequency:    21.0515380729
  - # 4
    frequency:    68.6383499035
  - # 5
    frequency:    70.1988607470
  - # 6
    frequency:    83.7511442251

- q-position: [    0.1458333,    0.0416667,    0.0000000 ]
  distance_from_gamma:  0.059990365
  weight: 12   
  band:
  - # 1
    frequency:     7.9422121575
  - # 2
    frequency:    14.8584146033
  - # 3
    frequency:    23.4183525108
  - # 4
    frequency:    68.1898800670
  - # 5
    frequency:    70.0742307444
  - # 6
    frequency:    82.6016227024

- q-position: [    0.1666667,    0.0416667,    0.0000000 ]
  distance_from_gamma:  0.067171299
  weight: 12   
  band:
  - # 1
    frequency:     8.7593487932
  - # 2
    frequency:    16.1872496416
  - # 3
    frequency:    25.6176976187
  - # 4
    frequency:    67.7133872247
  - # 5
    frequency:    69.8866607342
  - # 6
    frequency:    81.4249923330

- q-position: [    0.1875000,    0.0416667,    0.0000000 ]
  distance_from_gamma:  0.074381120
  weight: 12   
  band:
  - # 1
    frequency:     9.5570612467
  - # 2
    frequency:    17.3782181259
  - # 3
    frequency:    27.6198452970
  - # 4
    frequency:    67.2199191147
  - # 5
    frequency:    69.6147293715
  - # 6
    frequency:    80.2729616835

- q-position: [    0.2083333,    0.0416667,    0.0000000 ]
  distance_from_gamma:  0.081612174
  weight: 12   
  band:
  - # 1
    frequency:    10.3422448231
  - # 2
    frequency:    18.4215847179
  - # 3
    frequency:    29.3962453487
  - # 4
    frequency:    66.7210608452
  - # 5
    frequency:    69.2371103716
  - # 6
    frequency:    79.2006850064

- q-position: [    0.2291667,    0.0416667,    0.0000000 ]
  distance_from_gamma:  0.088859276
  weight: 12   
  band:
  - # 1
    frequency:    11.1239485141
  - # 2
    frequency:    19.3114612104
  - # 3
    frequency:    30.9192078525
  - # 4
    frequency:    66.2285565968
  - # 5
    frequency:    68.7402634192
  - # 6
    frequency:    78.2585413147

- q-position: [    0.2500000,    0.0416667,    0.0000000 ]
  distance_from_gamma:  0.096118797
  weight: 12   
  band:
  - # 1
    frequency:    11.9125684773
  - # 2
    frequency:    20.0460842833
  - # 3
    frequency:    32.1625765969
  - # 4
    frequency:    65.7538833864
  - # 5
    frequency:    68.1289688393
  - # 6
    frequency:    77.4804059019

- q-position: [    0.2708333,    0.0416667,    0.0000000 ]
  distance_from_gamma:  0.103388121
  weight: 12   
  band:
  - # 1
    frequency:    12.7188519583
  - # 2
    frequency:    20.6281335471
  - # 3
    frequency:    33.1036095335
  - # 4
    frequency:    65.3078052206
  - # 5
    frequency:    67.4328465526
  - # 6
    frequency:    76.8749482829

- q-position: [    0.2916667,    0.0416667,    0.0000000 ]
  distance_from_gamma:  0.110665316
  weight: 12   
  band:
  - # 1
    frequency:    13.5526937037
  - # 2
    frequency:    21.0649587931
  - # 3
    frequency:    33.7262334567
  - # 4
    frequency:    64.8999219729
  - # 5
    frequency:    66.7015701916
  - # 6
    frequency:    76.4270918596

- q-position: [    0.3125000,    0.0416667,    0.0000000 ]
  distance_from_gamma:  0.117948925
  weight: 12   
  band:
  - # 1
    frequency:    14.4217147739
  - # 2
    frequency:    21.3685932118
  - # 3
    frequency:    34.0254364433
  - # 4
    frequency:    64.5381777590
  - # 5
    frequency:    65.9904631950
  - # 6
    frequency:    76.1083210527

- q-position: [    0.3333333,    0.0416667,    0.0000000 ]
  distance_from_gamma:  0.125237829
  weight: 12   
  band:
  - # 1
    frequency:    15.3295812030
  - # 2
    frequency:    21.5554385081
  - # 3
    frequency:    34.0118813041
  - # 4
    frequency:    64.2282151937
  - # 5
    frequency:    65.3458010924
  - # 6
    frequency:    75.8877092992

- q-position: [    0.3541667,    0.0416667,    0.0000000 ]
  distance_from_gamma:  0.132531154
  weight: 12   
  band:
  - # 1
    frequency:    16.2739267469
  - # 2
    frequency:    21.6455224632
  - # 3
    frequency:    33.7153607540
  - # 4
    frequency:    63.9724199817
  - # 5
    frequency:    64.7969569322
  - # 6
    frequency:    75.7383237142

- q-position: [    0.3750000,    0.0416667,    0.0000000 ]
  distance_from_gamma:  0.139828209
  weight: 12   
  band:
  - # 1
    frequency:    17.2435700695
  - # 2
    frequency:    21.6612368966
  - # 3
    frequency:    33.1861979057
  - # 4
    frequency:    63.7686162369
  - # 5
    frequency:    64.3565861737
  - # 6
    frequency:    75.6391637499

- q-position: [    0.3958333,    0.0416667,    0.0000000 ]
  distance_from_gamma:  0.147128439
  weight: 12   
  band:
  - # 1
    frequency:    18.2144877031
  - # 2
    frequency:    21.6254222411
  - # 3
    frequency:    32.4952705729
  - # 4
    frequency:    63.6088485956
  - # 5
    frequency:    64.0262608649
  - # 6
    frequency:    75.5747888303

- q-position: [    0.4166667,    0.0416667,    0.0000000 ]
  distance_from_gamma:  0.154431393
  weight: 12   
  band:
  - # 1
    frequency:    19.1440219828
  - # 2
    frequency:    21.5584672426
  - # 3
    frequency:    31.7349332216
  - # 4
    frequency:    63.4807956277
  - # 5
    frequency:    63.8019883886
  - # 6
    frequency:    75.5342476503

- q-position: [    0.4375000,    0.0416667,    0.0000000 ]
  distance_from_gamma:  0.161736702
  weight: 12   
  band:
  - # 1
    frequency:    19.9644551481
  - # 2
    frequency:    21.4736383957
  - # 3
    frequency:    31.0223968953
  - # 4
    frequency:    63.3780613655
  - # 5
    frequency:    63.6707824911
  - # 6
    frequency:    75.5100377274

- q-position: [    0.4583333,    0.0416667,    0.0000000 ]
  distance_from_gamma:  0.169044062
  weight: 12   
  band:
  - # 1
    frequency:    20.5819142831
  - # 2
    frequency:    21.3721767018
  - # 3
    frequency:    30.4994285451
  - # 4
    frequency:    63.3091215845
  - # 5
    frequency:    63.6070361210
  - # 6
    frequency:    75.4973139005

- q-position: [    0.4791667,    0.0416667,    0.0000000 ]
  distance_from_gamma:  0.176353217
  weight: 6    
  band:
  - # 1
    frequency:    20.8505817177
  - # 2
    frequency:    21.2927207179
  - # 3
    frequency:    30.3043446176
  - # 4
    frequency:    63.2849035173
  - # 5
    frequency:    63.5883595358
  - # 6
    frequency:    75.4933636134

- q-position: [    0.0625000,    0.0625000,    0.0000000 ]
  distance_from_gamma:  0.038082547
  weight: 6    
  band:
  - # 1
    frequency:     5.2640337263
  - # 2
    frequency:    10.0903751108
  - # 3
    frequency:    15.6466051661
  - # 4
    frequency:    69.4373493186
  - # 5
    frequency:    70.3402448505
  - # 6
    frequency:    85.8871832618

- q-position: [    0.0833333,    0.0625000,    0.0000000 ]
  distance_from_gamma:  0.044580503
  weight: 12   
  band:
  - # 1
    frequency:     6.0948304776
  - # 2
    frequency:    11.6953836522
  - # 3
    frequency:    18.0381904190
  - # 4
    frequency:    69.0946835419
  - # 5
    frequency:    70.3114524777
  - # 6
    frequency:    84.9965764471

- q-position: [    0.1041667,    0.0625000,    0.0000000 ]
  distance_from_gamma:  0.051302927
  weight: 12   
  band:
  - # 1
    frequency:     6.9275258733
  - # 2
    frequency:    13.2621540463
  - # 3
    frequency:    20.3993134096
  - # 4
    frequency:    68.6990387344
  - # 5
    frequency:    70.2611602735
  - # 6
    frequency:    83.9820390729

- q-position: [    0.1250000,    0.0625000,    0.0000000 ]
  distance_from_gamma:  0.058172051
  weight: 12   
  band:
  - # 1
    frequency:     7.7507239575
  - # 2
    frequency:    14.7520853701
  - # 3
    frequency:    22.6756029086
  - # 4
    frequency:    68.2595548646
  - # 5
    frequency:    70.1777228099
  - # 6
    frequency:    82.8754983303

- q-position: [    0.1458333,    0.0625000,    0.0000000 ]
  distance_from_gamma:  0.065141484
  weight: 12   
  band:
  - # 1
    frequency:     8.5597061083
  - # 2
    frequency:    16.1381137825
  - # 3
    frequency:    24.8246600714
  - # 4
    frequency:    67.7865905047
  - # 5
    frequency:    70.0457889091
  - # 6
    frequency:    81.7161516195

- q-position: [    0.1666667,    0.0625000,    0.0000000 ]
  distance_from_gamma:  0.072182176
  weight: 12   
  band:
  - # 1
    frequency:     9.3544645629
  - # 2
    frequency:    17.4003303086
  - # 3
    frequency:    26.8106697260
  - # 4
    frequency:    67.2916036408
  - # 5
    frequency:    69.8459522867
  - # 6
    frequency:    80.5507299274

- q-position: [    0.1875000,    0.0625000,    0.0000000 ]
  distance_from_gamma:  0.079275143
  weight: 12   
  band:
  - # 1
    frequency:    10.1385368909
  - # 2
    frequency:    18.5240827125
  - # 3
    frequency:    28.6016005256
  - # 4
    frequency:    66.7869235165
  - # 5
    frequency:    69.5559356695
  - # 6
    frequency:    79.4321263547

- q-position: [    0.2083333,    0.0625000,    0.0000000 ]
  distance_from_gamma:  0.086407513
  weight: 12   
  band:
  - # 1
    frequency:    10.9181266501
  - # 2
    frequency:    19.4992735269
  - # 3
    frequency:    30.1679193935
  - # 4
    frequency:    66.2854134272
  - # 5
    frequency:    69.1551268979
  - # 6
    frequency:    78.4144219099

- q-position: [    0.2291667,    0.0625000,    0.0000000 ]
  distance_from_gamma:  0.093570275
  weight: 12   
  band:
  - # 1
    frequency:    11.7012598029
  - # 2
    frequency:    20.3202486963
  - # 3
    frequency:    31.4824607342
  - # 4
    frequency:    65.8000233921
  - # 5
    frequency:    68.6336069814
  - # 6
    frequency:    77.5429618753

- q-position: [    0.2500000,    0.0625000,    0.0000000 ]
  distance_from_gamma:  0.100756948
  weight: 12   
  band:
  - # 1
    frequency:    12.4968554735
  - # 2
    frequency:    20.9859551235
  - # 3
    frequency:    32.5214407575
  - # 4
    frequency:    65.3432304020
  - # 5
    frequency:    68.0025095480
  - # 6
    frequency:    76.8424110847

- q-position: [    0.2708333,    0.0625000,    0.0000000 ]
  distance_from_gamma:  0.107962758
  weight: 12   
  band:
  - # 1
    frequency:    13.3136563796
  - # 2
    frequency:    21.5001540502
  - # 3
    frequency:    33.2667010674
  - # 4
    frequency:    64.9263582966
  - # 5
    frequency:    67.2973644642
  - # 6
    frequency:    76.3109920978

- q-position: [    0.2916667,    0.0625000,    0.0000000 ]
  distance_from_gamma:  0.115184112
  weight: 12   