# Thermal properties / unit cell (natom)

unit:
  temperature:   K
  free_energy:   kJ/mol
  entropy:       J/K/mol
  heat_capacity: J/K/mol

natom: 2    
cutoff_frequency: 0.00000
num_modes: 13824
num_integrated_modes: 13822

zero_point_energy:      54.7735202

thermal_properties:
- temperature:         0.0000000
  free_energy:        54.7735202
  entropy:             0.0000000
  heat_capacity:       0.0000000
  energy:             54.7735202

- temperature:        10.0000000
  free_energy:        54.7733192
  entropy:             0.0244809
  heat_capacity:       0.0077874
  energy:             54.7735640

- temperature:        20.0000000
  free_energy:        54.7730202
  entropy:             0.0370308
  heat_capacity:       0.0358119
  energy:             54.7737608

- temperature:        30.0000000
  free_energy:        54.7725411
  entropy:             0.0607420
  heat_capacity:       0.0887912
  energy:             54.7743633

- temperature:        40.0000000
  free_energy:        54.7717657
  entropy:             0.0963436
  heat_capacity:       0.1666786
  energy:             54.7756195

- temperature:        50.0000000
  free_energy:        54.7705733
  entropy:             0.1442325
  heat_capacity:       0.2709632
  energy:             54.7777849

- temperature:        60.0000000
  free_energy:        54.7688385
  entropy:             0.2049033
  heat_capacity:       0.4034109
  energy:             54.7811326

- temperature:        70.0000000
  free_energy:        54.7664309
  entropy:             0.2788672
  heat_capacity:       0.5653926
  energy:             54.7859516

- temperature:        80.0000000
  free_energy:        54.7632152
  entropy:             0.3665910
  heat_capacity:       0.7579773
  energy:             54.7925425

- temperature:        90.0000000
  free_energy:        54.7590518
  entropy:             0.4684956
  heat_capacity:       0.9821363
  energy:             54.8012164

- temperature:       100.0000000
  free_energy:        54.7537968
  entropy:             0.5849653
  heat_capacity:       1.2387004
  energy:             54.8122933

- temperature:       110.0000000
  free_energy:        54.7473028
  entropy:             0.7163377
  heat_capacity:       1.5281050
  energy:             54.8260999

- temperature:       120.0000000
  free_energy:        54.7394195
  entropy:             0.8628728
  heat_capacity:       1.8501199
  energy:             54.8429642

- temperature:       130.0000000
  free_energy:        54.7299943
  entropy:             1.0247181
  heat_capacity:       2.2036999
  energy:             54.8632076

- temperature:       140.0000000
  free_energy:        54.7188740
  entropy:             1.2018805
  heat_capacity:       2.5869868
  energy:             54.8871373

- temperature:       150.0000000
  free_energy:        54.7059061
  entropy:             1.3942123
  heat_capacity:       2.9974256
  energy:             54.9150379

- temperature:       160.0000000
  free_energy:        54.6909402
  entropy:             1.6014119
  heat_capacity:       3.4319420
  energy:             54.9471661

- temperature:       170.0000000
  free_energy:        54.6738298
  entropy:             1.8230351
  heat_capacity:       3.8871356
  energy:             54.9837457

- temperature:       180.0000000
  free_energy:        54.6544333
  entropy:             2.0585146
  heat_capacity:       4.3594608
  energy:             55.0249659

- temperature:       190.0000000
  free_energy:        54.6326155
  entropy:             2.3071829
  heat_capacity:       4.8453809
  energy:             55.0709802

- temperature:       200.0000000
  free_energy:        54.6082482
  entropy:             2.5682966
  heat_capacity:       5.3414913
  energy:             55.1219075

- temperature:       210.0000000
  free_energy:        54.5812107
  entropy:             2.8410603
  heat_capacity:       5.8446102
  energy:             55.1778334

- temperature:       220.0000000
  free_energy:        54.5513909
  entropy:             3.1246477
  heat_capacity:       6.3518420
  energy:             55.2388134

- temperature:       230.0000000
  free_energy:        54.5186845
  entropy:             3.4182211
  heat_capacity:       6.8606164
  energy:             55.3048753

- temperature:       240.0000000
  free_energy:        54.4829959
  entropy:             3.7209476
  heat_capacity:       7.3687070
  energy:             55.3760234

- temperature:       250.0000000
  free_energy:        54.4442378
  entropy:             4.0320126
  heat_capacity:       7.8742342
  energy:             55.4522409

- temperature:       260.0000000
  free_energy:        54.4023305
  entropy:             4.3506301
  heat_capacity:       8.3756552
  energy:             55.5334943

- temperature:       270.0000000
  free_energy:        54.3572025
  entropy:             4.6760508
  heat_capacity:       8.8717451
  energy:             55.6197362

- temperature:       280.0000000
  free_energy:        54.3087892
  entropy:             5.0075684
  heat_capacity:       9.3615714
  energy:             55.7109083

- temperature:       290.0000000
  free_energy:        54.2570330
  entropy:             5.3445224
  heat_capacity:       9.8444640
  energy:             55.8069445

- temperature:       300.0000000
  free_energy:        54.2018827
  entropy:             5.6863012
  heat_capacity:      10.3199831
  energy:             55.9077730

- temperature:       310.0000000
  free_energy:        54.1432928
  entropy:             6.0323419
  heat_capacity:      10.7878872
  energy:             56.0133188

- temperature:       320.0000000
  free_energy:        54.0812233
  entropy:             6.3821305
  heat_capacity:      11.2481007
  energy:             56.1235051

- temperature:       330.0000000
  free_energy:        54.0156392
  entropy:             6.7352003
  heat_capacity:      11.7006840
  energy:             56.2382553

- temperature:       340.0000000
  free_energy:        53.9465098
  entropy:             7.0911297
  heat_capacity:      12.1458052
  energy:             56.3574939

- temperature:       350.0000000
  free_energy:        53.8738084
  entropy:             7.4495401
  heat_capacity:      12.5837148
  energy:             56.4811474

- temperature:       360.0000000
  free_energy:        53.7975119
  entropy:             7.8100926
  heat_capacity:      13.0147230
  energy:             56.6091452

- temperature:       370.0000000
  free_energy:        53.7176004
  entropy:             8.1724855
  heat_capacity:      13.4391804
  energy:             56.7414200

- temperature:       380.0000000
  free_energy:        53.6340569
  entropy:             8.5364508
  heat_capacity:      13.8574610
  energy:             56.8779082

- temperature:       390.0000000
  free_energy:        53.5468669
  entropy:             8.9017513
  heat_capacity:      14.2699486
  energy:             57.0185499

- temperature:       400.0000000
  free_energy:        53.4560181
  entropy:             9.2681775
  heat_capacity:      14.6770249
  energy:             57.1632891

- temperature:       410.0000000
  free_energy:        53.3615002
  entropy:             9.6355448
  heat_capacity:      15.0790610
  energy:             57.3120736

- temperature:       420.0000000
  free_energy:        53.2633046
  entropy:            10.0036907
  heat_capacity:      15.4764101
  energy:             57.4648547

- temperature:       430.0000000
  free_energy:        53.1614243
  entropy:            10.3724721
  heat_capacity:      15.8694026
  energy:             57.6215873

- temperature:       440.0000000
  free_energy:        53.0558535
  entropy:            10.7417631
  heat_capacity:      16.2583421
  energy:             57.7822293

- temperature:       450.0000000
  free_energy:        52.9465877
  entropy:            11.1114530
  heat_capacity:      16.6435034
  energy:             57.9467415

- temperature:       460.0000000
  free_energy:        52.8336234
  entropy:            11.4814438
  heat_capacity:      17.0251316
  energy:             58.1150876

- temperature:       470.0000000
  free_energy:        52.7169581
  entropy:            11.8516489
  heat_capacity:      17.4034413
  energy:             58.2872331

- temperature:       480.0000000
  free_energy:        52.5965900
  entropy:            12.2219916
  heat_capacity:      17.7786173
  energy:             58.4631460

- temperature:       490.0000000
  free_energy:        52.4725181
  entropy:            12.5924030
  heat_capacity:      18.1508160
  energy:             58.6427955

- temperature:       500.0000000
  free_energy:        52.3447419
  entropy:            12.9628217
  heat_capacity:      18.5201661
  energy:             58.8261528

- temperature:       510.0000000
  free_energy:        52.2132618
  entropy:            13.3331920
  heat_capacity:      18.8867710
  energy:             59.0131897

- temperature:       520.0000000
  free_energy:        52.0780784
  entropy:            13.7034633
  heat_capacity:      19.2507105
  energy:             59.2038793

- temperature:       530.0000000
  free_energy:        51.9391930
  entropy:            14.0735891
  heat_capacity:      19.6120428
  energy:             59.3981952

- temperature:       540.0000000
  free_energy:        51.7966073
  entropy:            14.4435266
  heat_capacity:      19.9708067
  energy:             59.5961116

- temperature:       550.0000000
  free_energy:        51.6503232
  entropy:            14.8132357
  heat_capacity:      20.3270239
  energy:             59.7976029

- temperature:       560.0000000
  free_energy:        51.5003434
  entropy:            15.1826789
  heat_capacity:      20.6807009
  energy:             60.0026436

- temperature:       570.0000000
  free_energy:        51.3466707
  entropy:            15.5518206
  heat_capacity:      21.0318309
  energy:             60.2112084

- temperature:       580.0000000
  free_energy:        51.1893081
  entropy:            15.9206268
  heat_capacity:      21.3803961
  energy:             60.4232717

- temperature:       590.0000000
  free_energy:        51.0282594
  entropy:            16.2890650
  heat_capacity:      21.7263692
  energy:             60.6388077

- temperature:       600.0000000
  free_energy:        50.8635282
  entropy:            16.6571036
  heat_capacity:      22.0697152
  energy:             60.8577903

- temperature:       610.0000000
  free_energy:        50.6951187
  entropy:            17.0247121
  heat_capacity:      22.4103928
  energy:             61.0801931

- temperature:       620.0000000
  free_energy:        50.5230355
  entropy:            17.3918608
  heat_capacity:      22.7483561
  energy:             61.3059891

- temperature:       630.0000000
  free_energy:        50.3472831
  entropy:            17.7585205
  heat_capacity:      23.0835555
  energy:             61.5351510

- temperature:       640.0000000
  free_energy:        50.1678668
  entropy:            18.1246626
  heat_capacity:      23.4159391
  energy:             61.7676509

- temperature:       650.0000000
  free_energy:        49.9847917
  entropy:            18.4902593
  heat_capacity:      23.7454538
  energy:             62.0034602

- temperature:       660.0000000
  free_energy:        49.7980635
  entropy:            18.8552829
  heat_capacity:      24.0720459
  energy:             62.2425502

- temperature:       670.0000000
  free_energy:        49.6076880
  entropy:            19.2197063
  heat_capacity:      24.3956620
  energy:             62.4848912

- temperature:       680.0000000
  free_energy:        49.4136715
  entropy:            19.5835028
  heat_capacity:      24.7162499
  energy:             62.7304533

- temperature:       690.0000000
  free_energy:        49.2160202
  entropy:            19.9466461
  heat_capacity:      25.0337587
  energy:             62.9792060

- temperature:       700.0000000
  free_energy:        49.0147408
  entropy:            20.3091104
  heat_capacity:      25.3481399
  energy:             63.2311181

- temperature:       710.0000000
  free_energy:        48.8098403
  entropy:            20.6708703
  heat_capacity:      25.6593471
  energy:             63.4861582

- temperature:       720.0000000
  free_energy:        48.6013258
  entropy:            21.0319007
  heat_capacity:      25.9673372
  energy:             63.7442943

- temperature:       730.0000000
  free_energy:        48.3892048
  entropy:            21.3921771
  heat_capacity:      26.2720696
  energy:             64.0054941

- temperature:       740.0000000
  free_energy:        48.1734849
  entropy:            21.7516754
  heat_capacity:      26.5735074
  energy:             64.2697247

- temperature:       750.0000000
  free_energy:        47.9541740
  entropy:            22.1103722
  heat_capacity:      26.8716170
  energy:             64.5369531

- temperature:       760.0000000
  free_energy:        47.7312802
  entropy:            22.4682443
  heat_capacity:      27.1663682
  energy:             64.8071459

- temperature:       770.0000000
  free_energy:        47.5048119
  entropy:            22.8252692
  heat_capacity:      27.4577345
  energy:             65.0802692

- temperature:       780.0000000
  free_energy:        47.2747777
  entropy:            23.1814250
  heat_capacity:      27.7456931
  energy:             65.3562892

- temperature:       790.0000000
  free_energy:        47.0411864
  entropy:            23.5366902
  heat_capacity:      28.0302245
  energy:             65.6351716

- temperature:       800.0000000
  free_energy:        46.8040469
  entropy:            23.8910441
  heat_capacity:      28.3113131
  energy:             65.9168822

- temperature:       810.0000000
  free_energy:        46.5633686
  entropy:            24.2444664
  heat_capacity:      28.5889465
  energy:             66.2013864

- temperature:       820.0000000
  free_energy:        46.3191608
  entropy:            24.5969376
  heat_capacity:      28.8631159
  energy:             66.4886496

- temperature:       830.0000000
  free_energy:        46.0714331
  entropy:            24.9484386
  heat_capacity:      29.1338158
  energy:             66.7786371

- temperature:       840.0000000
  free_energy:        45.8201953
  entropy:            25.2989512
  heat_capacity:      29.4010439
  energy:             67.0713143

- temperature:       850.0000000
  free_energy:        45.5654574
  entropy:            25.6484577
  heat_capacity:      29.6648010
  energy:             67.3666465

- temperature:       860.0000000
  free_energy:        45.3072296
  entropy:            25.9969410
  heat_capacity:      29.9250908
  energy:             67.6645988

- temperature:       870.0000000
  free_energy:        45.0455221
  entropy:            26.3443847
  heat_capacity:      30.1819201
  energy:             67.9651367

- temperature:       880.0000000
  free_energy:        44.7803454
  entropy:            26.6907731
  heat_capacity:      30.4352981
  energy:             68.2682257

- temperature:       890.0000000
  free_energy:        44.5117102
  entropy:            27.0360911
  heat_capacity:      30.6852369
  energy:             68.5738312

- temperature:       900.0000000
  free_energy:        44.2396272
  entropy:            27.3803243
  heat_capacity:      30.9317506
  energy:             68.8819190

- temperature:       910.0000000
  free_energy:        43.9641073
  entropy:            27.7234588
  heat_capacity:      31.1748561
  energy:             69.1924549

- temperature:       920.0000000
  free_energy:        43.6851617
  entropy:            28.0654817
  heat_capacity:      31.4145720
  energy:             69.5054048

- temperature:       930.0000000
  free_energy:        43.4028015
  entropy:            28.4063803
  heat_capacity:      31.6509192
  energy:             69.8207351

- temperature:       940.0000000
  free_energy:        43.1170379
  entropy:            28.7461427
  heat_capacity:      31.8839204
  energy:             70.1384121

- temperature:       950.0000000
  free_energy:        42.8278824
  entropy:            29.0847579
  heat_capacity:      32.1136000
  energy:             70.4584024

- temperature:       960.0000000
  free_energy:        42.5353466
  entropy:            29.4222151
  heat_capacity:      32.3399842
  energy:             70.7806731

- temperature:       970.0000000
  free_energy:        42.2394420
  entropy:            29.7585043
  heat_capacity:      32.5631004
  energy:             71.1051912

- temperature:       980.0000000
  free_energy:        41.9401804
  entropy:            30.0936162
  heat_capacity:      32.7829776
  energy:             71.4319243

- temperature:       990.0000000
  free_energy:        41.6375736
  entropy:            30.4275418
  heat_capacity:      32.9996459
  energy:             71.7608401

- temperature:      1000.0000000
  free_energy:        41.3316336
  entropy:            30.7602730
  heat_capacity:      33.2131368
  energy:             72.0919066

- temperature:      1010.0000000
  free_energy:        41.0223722
  entropy:            31.0918021
  heat_capacity:      33.4234825
  energy:             72.4250923

- temperature:      1020.0000000
  free_energy:        40.7098016
  entropy:            31.4221219
  heat_capacity:      33.6307165
  energy:             72.7603659

- temperature:      1030.0000000
  free_energy:        40.3939338
  entropy:            31.7512258
  heat_capacity:      33.8348728
  energy:             73.0976964

- temperature:      1040.0000000
  free_energy:        40.0747811
  entropy:            32.0791078
  heat_capacity:      34.0359863
  energy:             73.4370532

- temperature:      1050.0000000
  free_energy:        39.7523557
  entropy:            32.4057622
  heat_capacity:      34.2340926
  energy:             73.7784061

- temperature:      1060.0000000
  free_energy:        39.4266700
  entropy:            32.7311841
  heat_capacity:      34.4292277
  energy:             74.1217252

- temperature:      1070.0000000
  free_energy:        39.0977362
  entropy:            33.0553689
  heat_capacity:      34.6214284
  energy:             74.4669809

- temperature:      1080.0000000
  free_energy:        38.7655667
  entropy:            33.3783123
  heat_capacity:      34.8107315
  energy:             74.8141441

- temperature:      1090.0000000
  free_energy:        38.4301741
  entropy:            33.7000109
  heat_capacity:      34.9971746
  energy:             75.1631860

- temperature:      1100.0000000
  free_energy:        38.0915707
  entropy:            34.0204613
  heat_capacity:      35.1807951
  energy:             75.5140782

- temperature:      1110.0000000
  free_energy:        37.7497690
  entropy:            34.3396609
  heat_capacity:      35.3616311
  energy:             75.8667926

- temperature:      1120.0000000
  free_energy:        37.4047816
  entropy:            34.6576071
  heat_capacity:      35.5397205
  energy:             76.2213016

- temperature:      1130.0000000
  free_energy:        37.0566211
  entropy:            34.9742981
  heat_capacity:      35.7151015
  energy:             76.5775780

- temperature:      1140.0000000
  free_energy:        36.7052999
  entropy:            35.2897323
  heat_capacity:      35.8878122
  energy:             76.9355947

- temperature:      1150.0000000
  free_energy:        36.3508306
  entropy:            35.6039085
  heat_capacity:      36.0578908
  energy:             77.2953254

- temperature:      1160.0000000
  free_energy:        35.9932259
  entropy:            35.9168259
  heat_capacity:      36.2253756
  energy:             77.6567439

- temperature:      1170.0000000
  free_energy:        35.6324983
  entropy:            36.2284839
  heat_capacity:      36.3903045
  energy:             78.0198244

- temperature:      1180.0000000
  free_energy:        35.2686604
  entropy:            36.5388824
  heat_capacity:      36.5527155
  energy:             78.3845416

- temperature:      1190.0000000
  free_energy:        34.9017249
  entropy:            36.8480215
  heat_capacity:      36.7126465
  energy:             78.7508705

- temperature:      1200.0000000
  free_energy:        34.5317042
  entropy:            37.1559018
  heat_capacity:      36.8701349
  energy:             79.1187864

- temperature:      1210.0000000
  free_energy:        34.1586110
  entropy:            37.4625241
  heat_capacity:      37.0252184
  energy:             79.4882652

- temperature:      1220.0000000
  free_energy:        33.7824579
  entropy:            37.7678893
  heat_capacity:      37.1779339
  energy:             79.8592829

- temperature:      1230.0000000
  free_energy:        33.4032574
  entropy:            38.0719989
  heat_capacity:      37.3283184
  energy:             80.2318161

- temperature:      1240.0000000
  free_energy:        33.0210221
  entropy:            38.3748544
  heat_capacity:      37.4764085
  energy:             80.6058416

- temperature:      1250.0000000
  free_energy:        32.6357645
  entropy:            38.6764578
  heat_capacity:      37.6222405
  energy:             80.9813367

- temperature:      1260.0000000
  free_energy:        32.2474971
  entropy:            38.9768110
  heat_capacity:      37.7658503
  energy:             81.3582790

- temperature:      1270.0000000
  free_energy:        31.8562324
  entropy:            39.2759165
  heat_capacity:      37.9072736
  energy:             81.7366464

- temperature:      1280.0000000
  free_energy:        31.4619829
  entropy:            39.5737769
  heat_capacity:      38.0465455
  energy:             82.1164173

- temperature:      1290.0000000
  free_energy:        31.0647610
  entropy:            39.8703948
  heat_capacity:      38.1837010
  energy:             82.4975703

- temperature:      1300.0000000
  free_energy:        30.6645792
  entropy:            40.1657732
  heat_capacity:      38.3187745
  energy:             82.8800844

- temperature:      1310.0000000
  free_energy:        30.2614497
  entropy:            40.4599155
  heat_capacity:      38.4518001
  energy:             83.2639389

- temperature:      1320.0000000
  free_energy:        29.8553850
  entropy:            40.7528248
  heat_capacity:      38.5828115
  energy:             83.6491137

- temperature:      1330.0000000
  free_energy:        29.4463973
  entropy:            41.0445047
  heat_capacity:      38.7118419
  energy:             84.0355886

- temperature:      1340.0000000
  free_energy:        29.0344990
  entropy:            41.3349590
  heat_capacity:      38.8389240
  energy:             84.4233440

- temperature:      1350.0000000
  free_energy:        28.6197022
  entropy:            41.6241915
  heat_capacity:      38.9640904
  energy:             84.8123607

- temperature:      1360.0000000
  free_energy:        28.2020192
  entropy:            41.9122061
  heat_capacity:      39.0873730
  energy:             85.2026195

- temperature:      1370.0000000
  free_energy:        27.7814621
  entropy:            42.1990072
  heat_capacity:      39.2088032
  energy:             85.5941020

- temperature:      1380.0000000
  free_energy:        27.3580431
  entropy:            42.4845989
  heat_capacity:      39.3284122
  energy:             85.9867895

- temperature:      1390.0000000
  free_energy:        26.9317742
  entropy:            42.7689857
  heat_capacity:      39.4462305
  energy:             86.3806642

- temperature:      1400.0000000
  free_energy:        26.5026674
  entropy:            43.0521721
  heat_capacity:      39.5622883
  energy:             86.7757083

- temperature:      1410.0000000
  free_energy:        26.0707347
  entropy:            43.3341628
  heat_capacity:      39.6766154
  energy:             87.1719042

- temperature:      1420.0000000
  free_energy:        25.6359881
  entropy:            43.6149626
  heat_capacity:      39.7892409
  energy:             87.5692349

- temperature:      1430.0000000
  free_energy:        25.1984394
  entropy:            43.8945763
  heat_capacity:      39.9001938
  energy:             87.9676835

- temperature:      1440.0000000
  free_energy:        24.7581005
  entropy:            44.1730089
  heat_capacity:      40.0095024
  energy:             88.3672333

- temperature:      1450.0000000
  free_energy:        24.3149831
  entropy:            44.4502655
  heat_capacity:      40.1171946
  energy:             88.7678681

- temperature:      1460.0000000
  free_energy:        23.8690991
  entropy:            44.7263512
  heat_capacity:      40.2232979
  energy:             89.1695719

- temperature:      1470.0000000
  free_energy:        23.4204600
  entropy:            45.0012713
  heat_capacity:      40.3278393
  energy:             89.5723289

- temperature:      1480.0000000
  free_energy:        22.9690775
  entropy:            45.2750311
  heat_capacity:      40.4308455
  energy:             89.9761236

- temperature:      1490.0000000
  free_energy:        22.5149632
  entropy:            45.5476359
  heat_capacity:      40.5323426
  energy:             90.3809408

- temperature:      1500.0000000
  free_energy:        22.0581286
  entropy:            45.8190912
  heat_capacity:      40.6323562
  energy:             90.7867655

- temperature:      1510.0000000
  free_energy:        21.5985852
  entropy:            46.0894025
  heat_capacity:      40.7309118
  energy:             91.1935830

- temperature:      1520.0000000
  free_energy:        21.1363444
  entropy:            46.3585754
  heat_capacity:      40.8280341
  energy:             91.6013789

- temperature:      1530.0000000
  free_energy:        20.6714175
  entropy:            46.6266154
  heat_capacity:      40.9237476
  energy:             92.0101390

- temperature:      1540.0000000
  free_energy:        20.2038158
  entropy:            46.8935282
  heat_capacity:      41.0180764
  energy:             92.4198493

- temperature:      1550.0000000
  free_energy:        19.7335507
  entropy:            47.1593196
  heat_capacity:      41.1110439
  energy:             92.8304960

- temperature:      1560.0000000
  free_energy:        19.2606332
  entropy:            47.4239952
  heat_capacity:      41.2026736
  energy:             93.2420657

- temperature:      1570.0000000
  free_energy:        18.7850745
  entropy:            47.6875609
  heat_capacity:      41.2929880
  energy:             93.6545451

- temperature:      1580.0000000
  free_energy:        18.3068856
  entropy:            47.9500225
  heat_capacity:      41.3820097
  energy:             94.0679211

- temperature:      1590.0000000
  free_energy:        17.8260777
  entropy:            48.2113858
  heat_capacity:      41.4697606
  energy:             94.4821810

- temperature:      1600.0000000
  free_energy:        17.3426615
  entropy:            48.4716567
  heat_capacity:      41.5562624
  energy:             94.8973122

- temperature:      1610.0000000
  free_energy:        16.8566482
  entropy:            48.7308410
  heat_capacity:      41.6415362
  energy:             95.3133022

- temperature:      1620.0000000
  free_energy:        16.3680483
  entropy:            48.9889448
  heat_capacity:      41.7256029
  energy:             95.7301389

- temperature:      1630.0000000
  free_energy:        15.8768728
  entropy:            49.2459739
  heat_capacity:      41.8084830
  energy:             96.1478103

- temperature:      1640.0000000
  free_energy:        15.3831324
  entropy:            49.5019343
  heat_capacity:      41.8901967
  energy:             96.5663047

- temperature:      1650.0000000
  free_energy:        14.8868377
  entropy:            49.7568320
  heat_capacity:      41.9707636
  energy:             96.9856104

- temperature:      1660.0000000
  free_energy:        14.3879993
  entropy:            50.0106728
  heat_capacity:      42.0502031
  energy:             97.4057162

- temperature:      1670.0000000
  free_energy:        13.8866277
  entropy:            50.2634629
  heat_capacity:      42.1285343
  energy:             97.8266108

- temperature:      1680.0000000
  free_energy:        13.3827335
  entropy:            50.5152082
  heat_capacity:      42.2057759
  energy:             98.2482832

- temperature:      1690.0000000
  free_energy:        12.8763270
  entropy:            50.7659146
  heat_capacity:      42.2819462
  energy:             98.6707227

- temperature:      1700.0000000
  free_energy:        12.3674187
  entropy:            51.0155882
  heat_capacity:      42.3570632
  energy:             99.0939186

- temperature:      1710.0000000
  free_energy:        11.8560187
  entropy:            51.2642350
  heat_capacity:      42.4311447
  energy:             99.5178605

- temperature:      1720.0000000
  free_energy:        11.3421374
  entropy:            51.5118609
  heat_capacity:      42.5042079
  energy:             99.9425381

- temperature:      1730.0000000
  free_energy:        10.8257849
  entropy:            51.7584720
  heat_capacity:      42.5762700
  energy:            100.3679414

- temperature:      1740.0000000
  free_energy:        10.3069713
  entropy:            52.0040741
  heat_capacity:      42.6473477
  energy:            100.7940603

- temperature:      1750.0000000
  free_energy:         9.7857067
  entropy:            52.2486734
  heat_capacity:      42.7174574
  energy:            101.2208851

- temperature:      1760.0000000
  free_energy:         9.2620012
  entropy:            52.4922756
  heat_capacity:      42.7866152
  energy:            101.6484062

- temperature:      1770.0000000
  free_energy:         8.7358645
  entropy:            52.7348869
  heat_capacity:      42.8548370
  energy:            102.0766143

- temperature:      1780.0000000
  free_energy:         8.2073067
  entropy:            52.9765130
  heat_capacity:      42.9221382
  energy:            102.5054999
