unknown system                          
   1.00000000000000     
     3.606893    0.000000    0.000000
    -1.803446    3.123661    0.000000
     0.000000    0.000000   16.000000
  As_GW/a9e2ff09
               2
Direct
  0.666667  0.333333  0.456343
  0.333333  0.666667  0.543657
 
   36   36  160
 0.73063726058E-05 0.79641837756E-05 0.80109274108E-05 0.80903684141E-05 0.77830142355E-05
 0.84076377123E-05 0.79624397777E-05 0.68827723338E-05 0.73425405840E-05 0.87870282073E-06
 0.78233679854E-05 0.92259156075E-05 0.10752058211E-04 0.58244368626E-05 0.80653486787E-05
 0.14686701089E-04 0.95702061245E-05 0.78129960492E-05 0.73713164728E-05 0.78129960457E-05
 0.95702061227E-05 0.14686701059E-04 0.80653486814E-05 0.58244368093E-05 0.10752058223E-04
 0.92259156101E-05 0.78233679863E-05 0.87870282162E-06 0.73425405760E-05 0.68827723201E-05
 0.79624397782E-05 0.84076377145E-05 0.77830142322E-05 0.80903683999E-05 0.80109274143E-05
 0.79641837867E-05 0.78232429264E-05 0.74898561320E-05 0.80939860994E-05 0.90701678814E-05
 0.98051112789E-05 0.94871620955E-05 0.94086363416E-05 0.10059598705E-04 0.85637775085E-05
 0.14984613479E-04 0.76170355081E-05 0.63304097404E-05 0.57420769872E-05 0.11107638135E-04
 0.87690737498E-05 0.23176495070E-05 0.77144617130E-05 0.12013757580E-04 0.13741614895E-04
 0.14048942212E-04 0.11392697505E-04 0.48843971765E-05 0.94523431713E-05 0.10188849004E-04
 0.49578733341E-05 0.74005190882E-05 0.80347026854E-05 0.14508483381E-04 0.84848046087E-05
 0.93786709447E-05 0.90167305475E-05 0.91806433358E-05 0.99100615407E-05 0.93432445343E-05
 0.85349033168E-05 0.78070920908E-05 0.78604577871E-05 0.83853965680E-05 0.79524525800E-05
 0.80921494439E-05 0.77982585021E-05 0.86811138984E-05 0.82798432675E-05 0.72704109355E-05
 0.78359619917E-05 0.95685577772E-06 0.80259597350E-05 0.10146529053E-04 0.10167039222E-04
 0.55658054396E-05 0.80213192328E-05 0.15654350424E-04 0.13969149913E-04 0.86344485375E-05
 0.40178003395E-05 0.28754491499E-05 0.44419454639E-05 0.11401625310E-04 0.75809313493E-05
 0.83195780043E-05 0.12768436526E-04 0.87124757640E-05 0.80780812812E-05 0.22008117693E-05
 0.72420701915E-05 0.72132646034E-05 0.76133815679E-05 0.84032029521E-05 0.76495230443E-05
 0.85424176177E-05 0.85361036966E-05 0.88263137861E-05 0.95475877955E-05 0.74720076100E-05
 0.93988992245E-05 0.84911651661E-05 0.10616317225E-04 0.88926566895E-05 0.10513551814E-04
 0.99396688453E-05 0.98640235398E-05 0.15169920218E-04 0.89329909416E-05 0.55791018108E-05
 0.74904763414E-05 0.11406711669E-04 0.93789186177E-05 0.51455344217E-05 0.53465653238E-06
 0.20853581546E-05 0.16754157407E-04 0.22400810087E-04 0.22697330474E-04 0.10993685182E-04
 0.11146794792E-04 0.52536951483E-05 0.35016923814E-05 0.93949189379E-05 0.10297804320E-04
 0.13522865231E-04 0.10470874248E-04 0.85198341573E-05 0.99723043534E-05 0.81493709918E-05
 0.10789685255E-04 0.86564020862E-05 0.98491674030E-05 0.77450842952E-05 0.95586618427E-05
 0.81704045205E-05 0.97243757367E-05 0.73834502423E-05 0.91225362460E-05 0.73823070106E-05
 0.94243158464E-05 0.58428352658E-05 0.94783246389E-05 -.33488568052E-06 0.10293713665E-04
 0.95865827552E-05 0.12839472304E-04 0.28206081621E-05 0.15021073001E-04 0.71047338910E-05
 0.11672882039E-04 0.35779009076E-04 0.29376091559E-04 0.13416043560E-04 0.97050937082E-05
 0.18825209434E-04 0.23038620073E-04 0.23998109729E-04 0.19895425407E-04 0.40405126285E-05
 0.90236186026E-05 0.41620376638E-05 0.81722087781E-05 0.76911081601E-05 0.87047554747E-05
 0.76961043574E-05 0.82924350830E-05 0.75568182551E-05 0.95756402860E-05 0.82753548223E-05
 0.96848547857E-05 0.80690041737E-05 0.98078613544E-05 0.90726590147E-05 0.10435171677E-04
 0.89778573096E-05 0.99774689915E-05 0.10180411377E-04 0.94521494471E-05 0.16101025626E-04
 0.88349699165E-05 0.65343169657E-05 0.73323085541E-05 0.14360742556E-04 0.90180206591E-05
 -.47062645283E-05 0.35898130443E-04 0.91415999233E-05 -.26182838868E-04 -.31962185894E-04
 -.25722042277E-04 -.31773217236E-04 -.25980959437E-04 -.14904150342E-04 0.92653351071E-05
 0.25759774667E-04 0.11157094411E-04 0.11079594907E-04 0.13090093438E-04 0.85590703129E-05
 0.10823829914E-04 0.82504522636E-05 0.10748969036E-04 0.83293733106E-05 0.95299504226E-05
 0.77624854140E-05 0.81901181144E-05 0.93218988830E-05 0.86579912044E-05 0.88286541113E-05
 0.78763465550E-05 0.84725735996E-05 0.72839864922E-05 0.66539896477E-05 0.70662418965E-05
 0.11199048613E-05 0.79589547068E-05 0.13141792730E-04 0.94270497017E-05 0.89827342515E-05
 0.41868611778E-05 0.24479524313E-04 0.27896442216E-04 -.24605249347E-04 -.12185598484E-04
 0.29290600105E-04 0.63536346984E-04 0.76553707727E-04 0.58850847068E-04 0.19288559329E-04
 -.15362661994E-04 -.16346522710E-04 0.22995867161E-04 0.11205034593E-04 0.39833899415E-05
 0.11111109378E-04 0.78918915136E-05 0.93189345165E-05 0.71567862019E-05 0.82874066605E-05
 0.79915295301E-05 0.89299930970E-05 0.10363737541E-04 0.64376926270E-05 0.10600906541E-04
 0.79159230366E-05 0.11099448083E-04 0.79766632233E-05 0.10362633174E-04 0.92493745916E-05
 0.94364354379E-05 0.15581767990E-04 0.86384406384E-05 0.61622859393E-05 0.68088714631E-05
 0.16725133061E-04 0.35159226979E-05 0.13720976508E-04 0.13492694016E-04 -.31863070465E-04
 0.28637756087E-04 0.76513690031E-04 0.92749559268E-04 0.76900480799E-04 0.90901919002E-04
 0.98506758281E-04 0.84911715655E-04 0.19876700023E-04 -.24468359760E-04 0.17111752058E-04
 0.23957528459E-04 0.26856874502E-05 0.14819752914E-04 0.63553221894E-05 0.12947721011E-04
 0.64960883712E-05 0.10543760235E-04 0.57567649052E-05 0.63395564904E-05 0.97077025005E-05
 0.69834475278E-05 0.94097882819E-05 0.66996929360E-05 0.91779165015E-05 0.58355794850E-05
 0.69584543523E-05 0.52928165348E-05 0.12218202246E-05 0.61618691252E-05 0.14263590279E-04
 0.79542259144E-05 0.95596993370E-05 0.22895901637E-05 0.32355433557E-04 0.65312999418E-05
 -.21670781354E-04 0.61231463039E-04 0.94369314983E-04 0.71327977341E-04 0.41748172997E-04
 0.22459778378E-04 0.27195889668E-04 0.66498946211E-04 0.97479553709E-04 0.58116318755E-04
 -.30496874457E-04 0.78920204647E-05 0.21479547403E-04 0.27527275215E-05 0.12815860502E-04
 0.53935770783E-05 0.10016639000E-04 0.63895557290E-05 0.96287296163E-05 0.16332375830E-04
 -.61000032492E-06 0.16260059163E-04 0.11734666736E-05 0.16894434924E-04 0.19245697316E-05
 0.16801256165E-04 0.36090602471E-05 0.15672509098E-04 0.96931787894E-05 0.14198069130E-04
 -.90627915306E-06 0.11949608441E-04 0.10161100080E-04 0.10845291865E-04 0.37169722429E-05
 0.17709519993E-04 -.30919602597E-04 0.73800365815E-04 0.76910564765E-04 0.38266184596E-04
 -.33428403828E-04 -.31071364766E-04 -.41919982664E-04 -.78577278835E-05 0.21251421014E-04
 0.95108717769E-04 0.67831777443E-04 -.16046185607E-04 0.51390443225E-05 0.26886385912E-04
 -.30968609792E-05 0.21391358267E-04 -.47358829480E-06 0.17504015161E-04 -.10861303981E-05
 0.65940471732E-05 0.89872972344E-05 0.69471085453E-05 0.87050924069E-05 0.72887452367E-05
 0.87870737024E-05 0.65019555695E-05 0.63867962838E-05 0.59355324051E-05 -.26283006882E-07
 0.67485234059E-05 0.12980210867E-04 0.90981015051E-05 0.57463919747E-05 0.70993534207E-05
 0.20527752110E-04 0.21472885315E-04 -.23373084479E-04 0.58058239761E-04 0.90693061015E-04
 0.23353295003E-04 -.29286636277E-04 -.64560530472E-04 -.71566029430E-04 -.65697394113E-04
 -.34205590090E-04 0.19488028670E-04 0.80884365673E-04 0.57889982044E-04 -.26720004128E-04
 0.21538868028E-04 0.11109198224E-04 0.60186501836E-05 0.10069905825E-04 0.69992301093E-05
 0.94049644330E-05 0.40413062061E-05 0.11374078339E-04 0.48114500357E-05 0.12220930650E-04
 0.61776209463E-05 0.12996143489E-04 0.81848616373E-05 0.14827860602E-04 0.80759967318E-05
 0.19732003255E-04 0.65662805904E-05 0.55587790486E-05 0.49106211657E-05 0.14043248767E-04
 0.96357746218E-05 -.40824601477E-05 0.25340058805E-04 -.17078370202E-04 0.19671635973E-04
 0.96526920387E-04 0.26044369225E-04 -.44207609264E-04 -.71166904817E-04 -.61814156702E-04
 -.69990220123E-04 -.69806130647E-04 -.40619520373E-04 0.41889703432E-04 0.91291960167E-04
 0.28542274700E-04 -.21303453812E-04 0.32221601195E-04 0.63155081875E-06 0.16036747798E-04
 0.33773967791E-05 0.12444187710E-04 0.93991813879E-05 0.72358947429E-05 0.89646320047E-05
 0.73861338397E-05 0.97109478538E-05 0.74079683774E-05 0.78464945306E-05 0.46807831549E-05
 0.76043331685E-05 -.21511876707E-05 0.89745454979E-05 0.11448107458E-04 0.12361573996E-04
 0.62764308950E-06 0.11749796153E-04 0.13002582074E-04 0.18478297211E-04 0.11383454225E-04
 -.15613131842E-04 0.85816478528E-04 0.67597364719E-04 -.59292282018E-05 -.65763213538E-04
 -.70261382582E-04 -.67617087133E-04 -.63452733826E-04 -.65820950130E-04 -.21958523973E-04
 0.66149053477E-04 0.82783627350E-04 -.16943217130E-04 0.93409949145E-05 0.16766900966E-04
 0.33973498823E-05 0.11566029296E-04 0.64516910800E-05 0.14351213032E-04 0.24399210892E-05
 0.13942112000E-04 0.43371548761E-05 0.13123031963E-04 0.71111834510E-05 0.17737188757E-04
 0.11679322099E-04 0.17083491403E-04 0.17087996852E-04 0.13043847310E-04 0.33186315385E-06
 0.78015423739E-05 0.12038447275E-04 0.10012503409E-04 -.10126557353E-05 0.52973987579E-05
 0.23059921014E-04 -.16259988215E-04 0.18509789772E-04 0.97420349757E-04 0.19295734408E-04
 -.33653983749E-04 -.69845055894E-04 -.63087483223E-04 -.75525542293E-04 -.64268574054E-04
 -.34993085858E-04 0.34719681782E-04 0.93460947355E-04 0.28043013897E-04 -.22153709393E-04
 0.34300533553E-04 -.18158616264E-05 0.16695884625E-04 0.15211320044E-05 0.66618674941E-05
 0.10313495816E-04 0.67683076566E-05 0.93251804536E-05 0.11841944230E-04 0.91442848245E-05
 0.25557016787E-05 0.14384387050E-05 0.18890930740E-05 -.32048998975E-05 0.69251930563E-05
 0.16223865258E-04 0.11699191812E-04 0.28892084414E-05 0.68631471395E-05 0.20474693828E-04
 0.71502445671E-05 0.13361671812E-04 0.23211272193E-04 -.24181156768E-04 0.59845628982E-04
 0.98116729614E-04 0.19783476588E-04 -.40777278738E-04 -.65813817859E-04 -.64578814158E-04
 -.64734690810E-04 -.45121556504E-04 0.22059281314E-04 0.88824435032E-04 0.57219687562E-04
 -.25854695274E-04 0.19859491262E-04 0.11093056663E-04 0.63279197793E-05 0.10996765239E-04
 -.17669079657E-05 0.18630317708E-04 -.94972823561E-06 0.23056362869E-04 -.75732275135E-05
 0.13024561603E-04 0.82535935917E-05 0.33655550787E-04 0.14898840426E-04 0.35624254242E-04
 0.28448222125E-05 0.71865394649E-05 -.48039038507E-05 0.23967729490E-04 0.26176035881E-05
 0.44024096013E-05 0.43684974145E-05 0.97502118699E-05 0.99404191065E-05 0.18426628126E-04
 -.34013007301E-04 0.68797312114E-04 0.80259639390E-04 0.44276119645E-04 -.23735714070E-04
 -.32938609593E-04 -.46969566096E-04 -.15211217423E-05 0.24291579891E-04 0.96835055114E-04
 0.60327777057E-04 -.14042391074E-04 0.41472480259E-05 0.28904513664E-04 -.52024533002E-05
 0.21197065415E-04 0.57743256541E-05 0.11651283064E-04 0.10323739055E-04 0.28733176407E-05
 0.61013539856E-05 0.38416793904E-04 0.23872883453E-04 0.13807609335E-04 0.37384035867E-05
 0.60517274996E-05 0.18906325677E-04 0.34320548718E-04 0.16035293603E-04 0.56650304536E-06
 0.47578453071E-05 0.24617986949E-04 0.47299394286E-05 0.17959569728E-04 0.23288144977E-05
 0.27112188075E-04 0.83411867688E-05 -.13763517794E-04 0.57453229743E-04 0.92689454071E-04
 0.65154361163E-04 0.35024859212E-04 0.20786735394E-04 0.26608392172E-04 0.68535081024E-04
 0.93064474594E-04 0.59512788214E-04 -.23203378833E-04 0.41335656285E-05 0.25035991593E-04
 0.79653464802E-06 0.15329518876E-04 0.52259107850E-05 0.14459902026E-04 0.58968936862E-05
 0.61296628573E-05 0.34967571423E-04 0.13005902323E-04 -.26964656270E-04 -.25795019944E-04
 -.25260850739E-04 -.12878844352E-04 -.27189490618E-04 -.19675894345E-04 0.74434920805E-05
 0.34173782492E-04 0.93711053708E-05 -.41163118762E-05 0.11576603995E-04 0.60936950526E-05
 0.11615795838E-04 0.21837835877E-05 0.20729222330E-04 0.45601043706E-05 -.28171723212E-04
 0.29623651256E-04 0.81876516436E-04 0.93929396282E-04 0.86876654933E-04 0.94951323042E-04
 0.90779245628E-04 0.82581740552E-04 0.26931193204E-04 -.28097883515E-04 0.12604605940E-04
 0.26445114809E-04 0.13789430753E-06 0.16495086678E-04 0.40627713194E-05 0.17191100996E-04
 0.85972482822E-06 0.18605483259E-04 0.24291898825E-04 -.24151510678E-04 -.15721821908E-04
 0.28465336138E-04 0.58925902014E-04 0.61655238060E-04 0.55979015460E-04 0.28164790635E-04
 -.17568800114E-04 -.21478219143E-04 0.21306208245E-04 0.29702573370E-04 0.28161498360E-05
 0.17511426336E-04 0.70228327225E-05 0.17511426282E-04 0.28161497987E-05 0.29702573348E-04
 0.21306208234E-04 -.21478219193E-04 -.17568800107E-04 0.28164790628E-04 0.55979015473E-04
 0.61655238060E-04 0.58925901993E-04 0.28465336122E-04 -.15721821919E-04 -.24151510701E-04
 0.24291898828E-04 0.18605483252E-04 0.85972484953E-06 0.17191100998E-04 0.52259108152E-05
 0.16495086669E-04 0.13789429332E-06 0.26445114811E-04 0.12604605947E-04 -.28097883485E-04
 0.26931193224E-04 0.82581740552E-04 0.90779245625E-04 0.94951323053E-04 0.86876654915E-04
 0.93929396282E-04 0.81876516443E-04 0.29623651292E-04 -.28171723180E-04 0.45601043954E-05
 0.20729222369E-04 0.21837835860E-05 0.11615795833E-04 0.60936950064E-05 0.11576603940E-04
 -.41163119224E-05 0.93711053584E-05 0.34173782474E-04 0.74434920982E-05 -.19675894356E-04
 -.27189490597E-04 -.12878844343E-04 -.25260850748E-04 -.25795019949E-04 -.26964656278E-04
 0.13005902307E-04 0.34967571434E-04 0.61296628608E-05 0.58968937129E-05 0.14459902037E-04
 0.57743256825E-05 0.15329518881E-04 0.79653465512E-06 0.25035991618E-04 0.41335656764E-05
 -.23203378797E-04 0.59512788262E-04 0.93064474623E-04 0.68535081038E-04 0.26608392158E-04
 0.20786735423E-04 0.35024859226E-04 0.65154361184E-04 0.92689454117E-04 0.57453229765E-04
 -.13763517748E-04 0.83411867848E-05 0.27112188105E-04 0.23288144941E-05 0.17959569698E-04
 0.47299393984E-05 0.24617986920E-04 0.47578452875E-05 0.56650304536E-06 0.16035293619E-04
 0.34320548735E-04 0.18906325689E-04 0.60517275084E-05 0.37384035583E-05 0.13807609312E-04
 0.23872883444E-04 0.38416793901E-04 0.61013539661E-05 0.28733176674E-05 0.10323739080E-04
 0.11651283092E-04 -.17669079355E-05 0.21197065411E-04 -.52024533002E-05 0.28904513663E-04
 0.41472480561E-05 -.14042391035E-04 0.60327777057E-04 0.96835055125E-04 0.24291579901E-04
 -.15211216962E-05 -.46969566071E-04 -.32938609586E-04 -.23735714066E-04 0.44276119695E-04
 0.80259639418E-04 0.68797312162E-04 -.34013007262E-04 0.18426628174E-04 0.99404190887E-05
 0.97502118273E-05 0.43684973861E-05 0.44024095729E-05 0.26176035792E-05 0.23967729486E-04
 -.48039038276E-05 0.71865394773E-05 0.28448222196E-05 0.35624254235E-04 0.14898840389E-04
 0.33655550769E-04 0.82535935917E-05 0.13024561593E-04 -.75732275100E-05 0.23056362904E-04
 -.94972818232E-06 0.18630317742E-04 0.66618675119E-05 0.10996765251E-04 0.63279197899E-05
 0.11093056653E-04 0.19859491291E-04 -.25854695275E-04 0.57219687598E-04 0.88824435046E-04
 0.22059281324E-04 -.45121556486E-04 -.64734690778E-04 -.64578814122E-04 -.65813817809E-04
 -.40777278681E-04 0.19783476620E-04 0.98116729671E-04 0.59845629041E-04 -.24181156695E-04
 0.23211272175E-04 0.13361671821E-04 0.71502445635E-05 0.20474693800E-04 0.68631471422E-05
 0.28892084085E-05 0.11699191828E-04 0.16223865284E-04 0.69251930839E-05 -.32048999064E-05
 0.18890930740E-05 0.14384386908E-05 0.25557016556E-05 0.91442848138E-05 0.11841944229E-04
 0.93251804625E-05 0.67683076850E-05 0.10313495866E-04 0.14351213046E-04 0.15211320044E-05
 0.16695884613E-04 -.18158616122E-05 0.34300533564E-04 -.22153709374E-04 0.28043013891E-04
 0.93460947387E-04 0.34719681810E-04 -.34993085805E-04 -.64268574029E-04 -.75525542275E-04
 -.63087483202E-04 -.69845055833E-04 -.33653983703E-04 0.19295734443E-04 0.97420349814E-04
 0.18509789829E-04 -.16259988195E-04 0.23059921020E-04 0.52973987259E-05 -.10126557726E-05
 0.10012503409E-04 0.12038447277E-04 0.78015424201E-05 0.33186316362E-06 0.13043847338E-04
 0.17087996866E-04 0.17083491379E-04 0.11679322084E-04 0.17737188744E-04 0.71111834394E-05
 0.13123031955E-04 0.43371548912E-05 0.13942112014E-04 0.24399211211E-05 0.93991813923E-05
 0.64516910800E-05 0.11566029290E-04 0.33973498841E-05 0.16766900947E-04 0.93409949322E-05
 -.16943217126E-04 0.82783627363E-04 0.66149053509E-04 -.21958523945E-04 -.65820950098E-04
 -.63452733791E-04 -.67617087122E-04 -.70261382508E-04 -.65763213478E-04 -.59292281307E-05
 0.67597364783E-04 0.85816478594E-04 -.15613131799E-04 0.11383454220E-04 0.18478297221E-04
 0.13002582055E-04 0.11749796136E-04 0.62764307529E-06 0.12361573998E-04 0.11448107478E-04
 0.89745455201E-05 -.21511876440E-05 0.76043331809E-05 0.46807831628E-05 0.78464945039E-05
 0.74079683543E-05 0.97109478530E-05 0.73861338450E-05 0.89646320269E-05 0.72358947580E-05
 0.40413062088E-05 0.12444187704E-04 0.33773967383E-05 0.16036747789E-04 0.63155082408E-06
 0.32221601208E-04 -.21303453817E-04 0.28542274721E-04 0.91291960185E-04 0.41889703450E-04
 -.40619520323E-04 -.69806130622E-04 -.69990220119E-04 -.61814156634E-04 -.71166904757E-04
 -.44207609189E-04 0.26044369307E-04 0.96526920430E-04 0.19671635995E-04 -.17078370197E-04
 0.25340058805E-04 -.40824601495E-05 0.96357746235E-05 0.14043248767E-04 0.49106211693E-05
 0.55587790637E-05 0.65662806259E-05 0.19732003255E-04 0.80759967398E-05 0.14827860610E-04
 0.81848616178E-05 0.12996143498E-04 0.61776209570E-05 0.12220930658E-04 0.48114500402E-05
 0.11374078363E-04 0.65940471758E-05 0.94049644144E-05 0.69992300959E-05 0.10069905793E-04
 0.60186501907E-05 0.11109198212E-04 0.21538868030E-04 -.26720004099E-04 0.57889982067E-04
 0.80884365666E-04 0.19488028695E-04 -.34205590079E-04 -.65697394078E-04 -.71566029384E-04
 -.64560530451E-04 -.29286636192E-04 0.23353295049E-04 0.90693061061E-04 0.58058239826E-04
 -.23373084483E-04 0.21472885335E-04 0.20527752081E-04 0.70993534278E-05 0.57463919756E-05
 0.90981015246E-05 0.12980210888E-04 0.67485234361E-05 -.26282985566E-07 0.59355324131E-05
 0.63867962785E-05 0.65019555366E-05 0.87870736953E-05 0.72887452180E-05 0.87050924185E-05
 0.69471085604E-05 0.89872972486E-05 0.16332375827E-04 -.10861304087E-05 0.17504015144E-04
 -.47358830990E-06 0.21391358258E-04 -.30968609614E-05 0.26886385900E-04 0.51390443279E-05
 -.16046185586E-04 0.67831777468E-04 0.95108717794E-04 0.21251421021E-04 -.78577278799E-05
 -.41919982618E-04 -.31071364745E-04 -.33428403725E-04 0.38266184646E-04 0.76910564808E-04
 0.73800365836E-04 -.30919602608E-04 0.17709519986E-04 0.37169722411E-05 0.10845291865E-04
 0.10161100081E-04 0.11949608462E-04 -.90627913796E-06 0.14198069145E-04 0.96931787956E-05
 0.15672509100E-04 0.36090602520E-05 0.16801256158E-04 0.19245697258E-05 0.16894434924E-04
 0.11734666749E-05 0.16260059186E-04 -.61000030316E-06 0.63395565055E-05 0.96287296074E-05
 0.63895557201E-05 0.10016638996E-04 0.53935770854E-05 0.12815860501E-04 0.27527275446E-05
 0.21479547406E-04 0.78920204647E-05 -.30496874466E-04 0.58116318765E-04 0.97479553709E-04
 0.66498946246E-04 0.27195889729E-04 0.22459778400E-04 0.41748173071E-04 0.71327977384E-04
 0.94369315018E-04 0.61231463079E-04 -.21670781360E-04 0.65312999489E-05 0.32355433557E-04
 0.22895901512E-05 0.95596993051E-05 0.79542259357E-05 0.14263590292E-04 0.61618691349E-05
 0.12218202450E-05 0.52928165379E-05 0.69584543407E-05 0.58355794805E-05 0.91779164970E-05
 0.66996929187E-05 0.94097882930E-05 0.69834475340E-05 0.97077025210E-05 0.10363737546E-04
 0.57567648817E-05 0.10543760220E-04 0.64960883694E-05 0.12947720994E-04 0.63553221956E-05
 0.14819752922E-04 0.26856874626E-05 0.23957528482E-04 0.17111752079E-04 -.24468359742E-04
 0.19876700030E-04 0.84911715675E-04 0.98506758334E-04 0.90901919009E-04 0.76900480828E-04
 0.92749559318E-04 0.76513690027E-04 0.28637756136E-04 -.31863070456E-04 0.13492694016E-04
 0.13720976511E-04 0.35159226979E-05 0.16725133041E-04 0.68088714968E-05 0.61622859668E-05
 0.86384406472E-05 0.15581768000E-04 0.94364354277E-05 0.92493745751E-05 0.10362633156E-04
 0.79766632335E-05 0.11099448064E-04 0.79159230277E-05 0.10600906575E-04 0.64376926563E-05
 0.81901181224E-05 0.89299930854E-05 0.79915295101E-05 0.82874066560E-05 0.71567861948E-05
 0.93189345263E-05 0.78918915314E-05 0.11111109397E-04 0.39833899468E-05 0.11205034612E-04
 0.22995867178E-04 -.16346522706E-04 -.15362661960E-04 0.19288559379E-04 0.58850847084E-04
 0.76553707780E-04 0.63536347012E-04 0.29290600127E-04 -.12185598438E-04 -.24605249346E-04
 0.27896442203E-04 0.24479524289E-04 0.41868611902E-05 0.89827342098E-05 0.94270497009E-05
 0.13141792737E-04 0.79589547077E-05 0.11199048537E-05 0.70662418912E-05 0.66539896140E-05
 0.72839864602E-05 0.84725735849E-05 0.78763465465E-05 0.88286541144E-05 0.86579912288E-05
 0.93218989159E-05 0.96848547915E-05 0.77624853985E-05 0.95299504119E-05 0.83293733200E-05
 0.10748969040E-04 0.82504522751E-05 0.10823829920E-04 0.85590703449E-05 0.13090093445E-04
 0.11079594902E-04 0.11157094438E-04 0.25759774676E-04 0.92653350698E-05 -.14904150301E-04
 -.25980959443E-04 -.31773217190E-04 -.25722042279E-04 -.31962185892E-04 -.26182838845E-04
 0.91415999304E-05 0.35898130442E-04 -.47062645585E-05 0.90180206733E-05 0.14360742538E-04
 0.73323085727E-05 0.65343169711E-05 0.88349699157E-05 0.16101025613E-04 0.94521494312E-05
 0.10180411351E-04 0.99774689670E-05 0.89778573074E-05 0.10435171669E-04 0.90726590212E-05
 0.98078613733E-05 0.80690042057E-05 0.95586618389E-05 0.82753547961E-05 0.95756402709E-05
 0.75568182534E-05 0.82924350973E-05 0.76961043751E-05 0.87047554924E-05 0.76911082001E-05
 0.81722088119E-05 0.41620376825E-05 0.90236185999E-05 0.40405126285E-05 0.19895425391E-04
 0.23998109755E-04 0.23038620077E-04 0.18825209455E-04 0.97050937313E-05 0.13416043579E-04
 0.29376091572E-04 0.35779009051E-04 0.11672882035E-04 0.71047338714E-05 0.15021073013E-04
 0.28206081364E-05 0.12839472298E-04 0.95865827783E-05 0.10293713668E-04 -.33488566009E-06
 0.94783246243E-05 0.58428352467E-05 0.94243158228E-05 0.73823069888E-05 0.91225362362E-05
 0.73834502266E-05 0.97243757380E-05 0.81704045374E-05 0.95475877921E-05 0.77450842786E-05
 0.98491673854E-05 0.86564020920E-05 0.10789685261E-04 0.81493710038E-05 0.99723043725E-05
 0.85198342008E-05 0.10470874249E-04 0.13522865252E-04 0.10297804328E-04 0.93949189308E-05
 0.35016923512E-05 0.52536951518E-05 0.11146794817E-04 0.10993685214E-04 0.22697330483E-04
 0.22400810089E-04 0.16754157414E-04 0.20853581422E-05 0.53465652528E-06 0.51455344092E-05
 0.93789186337E-05 0.11406711642E-04 0.74904763459E-05 0.55791018285E-05 0.89329909434E-05
 0.15169920206E-04 0.98640235389E-05 0.99396688262E-05 0.10513551812E-04 0.88926566908E-05
 0.10616317225E-04 0.84911651599E-05 0.93988992294E-05 0.74720076317E-05 0.78604577789E-05
 0.88263137770E-05 0.85361036868E-05 0.85424176137E-05 0.76495230519E-05 0.84032029455E-05
 0.76133815954E-05 0.72132646438E-05 0.72420701933E-05 0.22008117542E-05 0.80780813061E-05
 0.87124757524E-05 0.12768436489E-04 0.83195780132E-05 0.75809313405E-05 0.11401625326E-04
 0.44419455030E-05 0.28754491588E-05 0.40178003626E-05 0.86344485464E-05 0.13969149908E-04
 0.15654350412E-04 0.80213192248E-05 0.55658053988E-05 0.10167039243E-04 0.10146529066E-04
 0.80259597350E-05 0.95685578705E-06 0.78359620010E-05 0.72704109257E-05 0.82798432643E-05
 0.86811138853E-05 0.77982584923E-05 0.80921494325E-05 0.79524525869E-05 0.83853965844E-05
 0.78232429090E-05 0.78070920717E-05 0.85349033121E-05 0.93432445407E-05 0.99100615483E-05
 0.91806433309E-05 0.90167305555E-05 0.93786709705E-05 0.84848046078E-05 0.14508483397E-04
 0.80347026792E-05 0.74005190793E-05 0.49578733003E-05 0.10188849031E-04 0.94523431482E-05
 0.48843972120E-05 0.11392697518E-04 0.14048942218E-04 0.13741614925E-04 0.12013757583E-04
 0.77144617059E-05 0.23176495034E-05 0.87690737534E-05 0.11107638109E-04 0.57420769961E-05
 0.63304097440E-05 0.76170354983E-05 0.14984613481E-04 0.85637775200E-05 0.10059598702E-04
 0.94086363482E-05 0.94871621195E-05 0.98051112611E-05 0.90701678646E-05 0.80939861116E-05
 0.74898561480E-05 0.72990067057E-05 0.69999437202E-05 0.78520333144E-05 0.65820854769E-05
 0.75692902834E-05 0.79499445844E-05 0.90192347937E-05 0.63255534628E-05 0.92429992873E-05
 0.20191456480E-05 0.85498988653E-05 0.12894063174E-04 0.61962228806E-05 0.60651680833E-06
 0.93815935642E-05 0.16421448464E-04 0.11713899703E-04 0.12374820248E-04 0.13334912015E-04
 0.13188203893E-04 0.11798138384E-04 0.18477564986E-04 0.98010789635E-05 -.52750897517E-06
 0.63397020860E-05 0.14563361160E-04 0.83468072658E-05 0.12084826295E-06 0.87873392824E-05
 0.54908966529E-05 0.86369984316E-05 0.78121901828E-05 0.72283117427E-05 0.64072749166E-05
 0.79883345458E-05 0.71290439534E-05 0.70085701103E-05 0.74716674867E-05 0.69180820172E-05
 0.88738594426E-05 0.82652236670E-05 0.82070779206E-05 0.70463273270E-05 0.95043456363E-05
 0.62405234988E-05 0.13037249774E-04 0.66449399601E-05 0.29307080744E-05 0.89929166354E-05
 0.14897652396E-04 0.67081277155E-05 0.10894695635E-05 0.70080869357E-05 0.56090797340E-05
 0.38988336062E-05 0.33641884727E-05 0.43008619919E-05 -.23099463249E-05 0.67245553090E-05
 0.17891827632E-04 0.10469742764E-04 0.89443949136E-06 0.67308134613E-05 0.14986937360E-04
 0.56091278036E-05 0.94984835233E-05 0.64634546799E-05 0.78501938168E-05 0.84259274902E-05
 0.93652820288E-05 0.72524329586E-05 0.77047555165E-05 0.75640885804E-05 0.74825639989E-05
 0.77364975803E-05 0.67567625244E-05 0.72378779419E-05 0.81333977315E-05 0.87582762633E-05
 0.66512406427E-05 0.88801923361E-05 0.25517439952E-05 0.83667513691E-05 0.12758750580E-04
 0.72837281007E-05 0.21302817483E-05 0.10046620076E-04 0.16433669828E-04 0.75715453995E-05
 0.12637005852E-04 0.17654751689E-04 0.20012738362E-04 0.18331747405E-04 0.23600999933E-04
 0.11239661426E-04 -.17085071455E-05 0.52028985635E-05 0.16917308905E-04 0.95094313552E-05
 0.47061187747E-06 0.92827681728E-05 0.53997504170E-05 0.83084953082E-05 0.77739755664E-05
 0.70831924881E-05 0.67219985427E-05 0.81448125000E-05 0.77971527510E-05 0.87595116027E-05
 0.67809323061E-05 0.85266884615E-05 0.78087236293E-05 0.96020709333E-05 0.68377263622E-05
 0.81163481140E-05 0.78139955026E-05 0.72699946907E-05 0.11180934134E-04 0.78278817330E-05
 0.23098490365E-05 0.10309376766E-04 0.13901859667E-04 0.95351929996E-05 -.26578979657E-05
 0.17353297396E-04 0.14902939204E-04 0.47374322900E-05 -.46578691766E-05 -.22290726633E-05
 -.77285632507E-05 0.94510413504E-05 0.22701982241E-04 0.15481935852E-04 -.16366381050E-05
 0.83513295923E-05 0.15923259105E-04 0.72401342477E-05 0.91886759508E-05 0.77181104587E-05
 0.67087009796E-05 0.94943737845E-05 0.82399945796E-05 0.86499892791E-05 0.68925715140E-05
 0.89084732597E-05 0.69942426943E-05 0.91829189057E-05 0.62114922468E-05 0.81701880064E-05
 0.73180380786E-05 0.94185609463E-05 0.59302624216E-05 0.92841882187E-05 0.20911977630E-05
 0.85973389545E-05 0.12068047682E-04 0.76404339282E-05 0.42588360865E-05 0.66317149994E-05
 0.24858464457E-04 0.13891215367E-04 -.14686273598E-04 -.29598168929E-05 0.11624969664E-04
 0.20355775733E-04 0.19634827968E-04 0.25888618147E-05 -.15747424769E-04 0.28002046246E-05
 0.21687069765E-04 0.12384374818E-04 -.16075758111E-05 0.12339617983E-04 0.44361392177E-05
 0.10048496836E-04 0.65791335984E-05 0.82176409517E-05 0.54619755994E-05 0.91875999666E-05
 0.68662398509E-05 0.74211408654E-05 0.83748580229E-05 0.76180778419E-05 0.95042565695E-05
 0.86632958718E-05 0.80379869125E-05 0.66992899450E-05 0.85340048832E-05 0.59377669817E-05
 0.11779298041E-04 0.68773906623E-05 0.34814368846E-05 0.98683088838E-05 0.13477390539E-04
 0.98078059221E-05 0.10768939978E-04 -.17548402203E-04 0.12549135491E-04 0.52082854777E-04
 0.59361348971E-04 0.54712982205E-04 0.47312812587E-04 0.55412031418E-04 0.52646324972E-04
 0.13855896450E-04 -.13163595078E-04 0.83779385722E-05 0.21649285685E-04 0.48654419293E-05
 0.12338865965E-04 0.66868837205E-05 0.86040238170E-05 0.78682457811E-05 0.94519869855E-05
 0.69586803004E-05 0.81207692975E-05 0.77612289076E-05 0.78432557178E-05 0.85468023050E-05
 0.73085557579E-05 0.76909874873E-05 0.81443150348E-05 0.89821862659E-05 0.64601822873E-05
 0.91276827985E-05 0.24856869425E-05 0.91289557345E-05 0.11041292891E-04 0.96441602473E-05
 0.63974018882E-06 0.16345505712E-04 0.10690493015E-04 -.23573611330E-05 0.53242263295E-04
 0.44337281452E-04 0.72657703427E-05 -.24118085442E-04 -.22709418936E-04 -.21082918586E-04
 0.46387924790E-05 0.47332377058E-04 0.51690566847E-04 0.24307807855E-06 -.43715892399E-05
 0.16076483012E-04 0.44521235534E-05 0.10210920291E-04 0.79537025721E-05 0.74925657954E-05
 0.62416433346E-05 0.78569717585E-05 0.74596980699E-05 0.86147062359E-05 0.64183973194E-05
 0.93146289459E-05 0.77596707162E-05 0.10955496468E-04 0.61120653223E-05 0.88046742990E-05
 0.59849243117E-05 0.82310727612E-05 0.90602787330E-05 0.99177897601E-05 0.11766081194E-05
 0.13605265270E-04 0.84050925615E-05 0.18482979318E-04 -.10369471386E-04 0.98206628145E-05
 0.55761474407E-04 0.62377005037E-05 -.43760396000E-04 -.49174700823E-04 -.49028904524E-04
 -.41769821326E-04 -.47182072564E-04 -.44136506034E-04 0.24343480192E-05 0.55665822167E-04
 0.16967052296E-04 -.11145473149E-05 0.16760958239E-04 0.67001636088E-05 0.88240071001E-05
 0.92401103187E-05 0.84171030927E-05 0.80993140701E-05 0.62542001471E-05 0.78657879277E-05
 0.69338238893E-05 0.86756002511E-05 0.68269935998E-05 0.80766937010E-05 0.80581183943E-05
 0.96827454978E-05 0.64353197127E-05 0.97894404938E-05 0.25505509624E-05 0.99909833171E-05
 0.10402840564E-04 0.10459655961E-04 0.59954419118E-06 0.17471988587E-04 0.32112720145E-05
 0.19547748952E-04 0.53826169143E-04 -.25584712681E-04 -.49092974489E-04 -.18470003130E-04
 0.32565258721E-04 0.37919924168E-04 0.20599823568E-04 -.15347299634E-04 -.45991780141E-04
 -.22874971592E-04 0.47318790061E-04 0.15817989309E-04 -.33168054632E-05 0.16030701206E-04
 0.61780426606E-05 0.97379051107E-05 0.58094489770E-05 0.87854627928E-05 0.66511530630E-05
 0.12537069441E-04 0.17074140186E-05 0.13178449005E-04 0.31334306732E-05 0.15556802476E-04
 0.17132179799E-05 0.13292827776E-04 0.11234971953E-05 0.12455920676E-04 0.39198281305E-05