    2    2    1    1
  0.9013366E+02  0.3606893E-09  0.3606893E-09  0.1600000E-08  0.5000000E-15
  1.000000000000000E-004
  CAR 
 unknown system                          
     10    150     16
 
  0.0000000E+00  0.0000000E+00  0.0000000E+00  0.6666667E-02
      1        -16.474735   1.000000
      2        -10.187010   1.000000
      3         -3.562606   1.000000
      4         -3.012975   1.000000
      5         -3.012959   1.000000
      6         -1.092177   0.000000
      7          0.476428   0.000000
      8          0.476436   0.000000
      9          1.903252   0.000000
     10          1.996482   0.000000
     11          3.375984   0.000000
     12          4.303994   0.000000
     13          5.864400   0.000000
     14          6.885142   0.000000
     15          7.069438   0.000000
     16          7.069443   0.000000
 
  0.1360544E-01 -0.6802721E-02  0.0000000E+00  0.6666667E-02
      1        -16.472894   1.000000
      2        -10.186704   1.000000
      3         -3.561670   1.000000
      4         -3.039157   1.000000
      5         -3.017480   1.000000
      6         -1.068883   0.000000
      7          0.471025   0.000000
      8          0.481135   0.000000
      9          1.905890   0.000000
     10          1.998806   0.000000
     11          3.378167   0.000000
     12          4.306210   0.000000
     13          5.873096   0.000000
     14          6.829166   0.000000
     15          7.066766   0.000000
     16          7.116003   0.000000
 
  0.2721088E-01 -0.1360544E-01  0.0000000E+00  0.6666667E-02
      1        -16.467368   1.000000
      2        -10.185801   1.000000
      3         -3.558869   1.000000
      4         -3.113695   1.000000
      5         -3.031009   1.000000
      6         -1.003235   0.000000
      7          0.455121   0.000000
      8          0.495415   0.000000
      9          1.913817   0.000000
     10          2.005742   0.000000
     11          3.384661   0.000000
     12          4.312855   0.000000
     13          5.898748   0.000000
     14          6.720533   0.000000
     15          7.058549   0.000000
     16          7.197823   0.000000
 
  0.4081633E-01 -0.2040816E-01  0.0000000E+00  0.6666667E-02
      1        -16.458163   1.000000
      2        -10.184360   1.000000
      3         -3.554307   1.000000
      4         -3.227091   1.000000
      5         -3.053592   1.000000
      6         -0.905690   0.000000
      7          0.429364   0.000000
      8          0.519698   0.000000
      9          1.927051   0.000000
     10          2.017181   0.000000
     11          3.395286   0.000000
     12          4.323905   0.000000
     13          5.939920   0.000000
     14          6.595434   0.000000
     15          7.044083   0.000000
     16          7.282580   0.000000
 
  0.5442177E-01 -0.2721088E-01  0.0000000E+00  0.6666667E-02
      1        -16.445279   1.000000
      2        -10.182462   1.000000
      3         -3.547931   1.000000
      4         -3.368458   1.000000
      5         -3.085175   1.000000
      6         -0.788147   0.000000
      7          0.395079   0.000000
      8          0.554758   0.000000
      9          1.945648   0.000000
     10          2.032993   0.000000
     11          3.409808   0.000000
     12          4.339348   0.000000
     13          5.993699   0.000000
     14          6.463648   0.000000
     15          7.022461   0.000000
     16          7.367061   0.000000
 
  0.6802721E-01 -0.3401361E-01  0.0000000E+00  0.6666667E-02
      1        -16.428720   1.000000
      2        -10.180217   1.000000
      3         -3.539893   1.000000
      4         -3.528558   1.000000
      5         -3.125787   1.000000
      6         -0.661294   0.000000
      7          0.353983   0.000000
      8          0.601513   0.000000
      9          1.969668   0.000000
     10          2.053014   0.000000
     11          3.427908   0.000000
     12          4.359138   0.000000
     13          6.052349   0.000000
     14          6.334872   0.000000
     15          6.992567   0.000000
     16          7.452989   0.000000
 
  0.8163265E-01 -0.4081633E-01  0.0000000E+00  0.6666667E-02
      1        -16.408499   1.000000
      2        -10.177786   1.000000
      3         -3.700674   1.000000
      4         -3.530334   1.000000
      5         -3.175361   1.000000
      6         -0.533682   0.000000
      7          0.307475   0.000000
      8          0.660708   0.000000
      9          1.999145   0.000000
     10          2.077090   0.000000
     11          3.449249   0.000000
     12          4.383208   0.000000
     13          6.076609   0.000000
     14          6.248663   0.000000
     15          6.953517   0.000000
     16          7.514264   0.000000
 
  0.9523810E-01 -0.4761905E-01  0.0000000E+00  0.6666667E-02
      1        -16.384636   1.000000
      2        -10.175387   1.000000
      3         -3.879758   1.000000
      4         -3.519553   1.000000
      5         -3.233762   1.000000
      6         -0.411616   0.000000
      7          0.257223   0.000000
      8          0.732490   0.000000
      9          2.034075   0.000000
     10          2.105076   0.000000
     11          3.473466   0.000000
     12          4.411447   0.000000
     13          5.990095   0.000000
     14          6.281316   0.000000
     15          6.905414   0.000000
     16          7.481041   0.000000
 
  0.1088435E+00 -0.5442177E-01  0.0000000E+00  0.6666667E-02
      1        -16.357133   1.000000
      2        -10.173239   1.000000
      3         -4.062274   1.000000
      4         -3.507662   1.000000
      5         -3.300662   1.000000
      6         -0.299090   0.000000
      7          0.204808   0.000000
      8          0.816187   0.000000
      9          2.074412   0.000000
     10          2.136886   0.000000
     11          3.500244   0.000000
     12          4.443758   0.000000
     13          5.862043   0.000000
     14          6.362965   0.000000
     15          6.849899   0.000000
     16          7.456347   0.000000
 
  0.1224490E+00 -0.6122449E-01  0.0000000E+00  0.6666667E-02
      1        -16.326013   1.000000
      2        -10.171630   1.000000
      3         -4.245542   1.000000
      4         -3.495656   1.000000
      5         -3.375199   1.000000
      6         -0.198027   0.000000
      7          0.151706   0.000000
      8          0.909736   0.000000
      9          2.119952   0.000000
     10          2.172420   0.000000
     11          3.529206   0.000000
     12          4.479957   0.000000
     13          5.730443   0.000000
     14          6.454916   0.000000
     15          6.790075   0.000000
     16          7.431510   0.000000
 
  0.1360544E+00 -0.6802721E-01  0.0000000E+00  0.6666667E-02
      1        -16.291290   1.000000
      2        -10.170884   1.000000
      3         -4.427511   1.000000
      4         -3.491883   1.000000
      5         -3.448885   1.000000
      6         -0.108509   0.000000
      7          0.099157   0.000000
      8          1.010020   0.000000
      9          2.170321   0.000000
     10          2.211620   0.000000
     11          3.560002   0.000000
     12          4.519840   0.000000
     13          5.602755   0.000000
     14          6.549307   0.000000
     15          6.730525   0.000000
     16          7.407652   0.000000
 
  0.1496599E+00 -0.7482993E-01  0.0000000E+00  0.6666667E-02
      1        -16.252984   1.000000
      2        -10.171381   1.000000
      3         -4.606657   1.000000
      4         -3.559380   1.000000
      5         -3.458658   1.000000
      6         -0.029454   0.000000
      7          0.048147   0.000000
      8          1.112962   0.000000
      9          2.224838   0.000000
     10          2.254424   0.000000
     11          3.592225   0.000000
     12          4.563159   0.000000
     13          5.481834   0.000000
     14          6.643052   0.000000
     15          6.675768   0.000000
     16          7.385108   0.000000
 
  0.1632653E+00 -0.8163265E-01  0.0000000E+00  0.6666667E-02
      1        -16.211121   1.000000
      2        -10.173523   1.000000
      3         -4.781397   1.000000
      4         -3.656680   1.000000
      5         -3.445716   1.000000
      6         -0.000517   0.000000
      7          0.040716   0.000000
      8          1.214524   0.000000
      9          2.282529   0.000000
     10          2.300789   0.000000
     11          3.625459   0.000000
     12          4.609662   0.000000
     13          5.369853   0.000000
     14          6.630105   0.000000
     15          6.734509   0.000000
     16          7.363994   0.000000
 
  0.1768707E+00 -0.8843537E-01  0.0000000E+00  0.6666667E-02
      1        -16.165726   1.000000
      2        -10.177766   1.000000
      3         -4.950480   1.000000
      4         -3.762193   1.000000
      5         -3.431265   1.000000
      6         -0.046142   0.000000
      7          0.103896   0.000000
      8          1.311250   0.000000
      9          2.342165   0.000000
     10          2.350676   0.000000
     11          3.659248   0.000000
     12          4.659140   0.000000
     13          5.268495   0.000000
     14          6.596728   0.000000
     15          6.822904   0.000000
     16          7.344845   0.000000
 
  0.1904762E+00 -0.9523810E-01  0.0000000E+00  0.6666667E-02
      1        -16.116831   1.000000
      2        -10.184630   1.000000
      3         -5.113027   1.000000
      4         -3.874293   1.000000
      5         -3.416946   1.000000
      6         -0.088287   0.000000
      7          0.161397   0.000000
      8          1.400242   0.000000
      9          2.402424   0.000000
     10          2.404026   0.000000
     11          3.693067   0.000000
     12          4.711470   0.000000
     13          5.179038   0.000000
     14          6.577098   0.000000
     15          6.907917   0.000000
     16          7.328725   0.000000
 
  0.2040816E+00 -0.1020408E+00  0.0000000E+00  0.6666667E-02
      1        -16.064472   1.000000
      2        -10.194646   1.000000
      3         -5.267971   1.000000
      4         -3.992055   1.000000
      5         -3.403394   1.000000
      6         -0.126638   0.000000
      7          0.214181   0.000000
      8          1.479234   0.000000
      9          2.460784   0.000000
     10          2.462132   0.000000
     11          3.726404   0.000000
     12          4.766688   0.000000
     13          5.102874   0.000000
     14          6.570145   0.000000
     15          6.989470   0.000000
     16          7.318177   0.000000
 
  0.2176871E+00 -0.1088435E+00  0.0000000E+00  0.6666667E-02
      1        -16.008684   1.000000
      2        -10.208368   1.000000
      3         -5.414270   1.000000
      4         -4.114601   1.000000
      5         -3.391113   1.000000
      6         -0.160680   0.000000
      7          0.262965   0.000000
      8          1.547060   0.000000
      9          2.520755   0.000000
     10          2.520898   0.000000
     11          3.758822   0.000000
     12          4.825029   0.000000
     13          5.041248   0.000000
     14          6.572255   0.000000
     15          7.067684   0.000000
     16          7.317812   0.000000
 
  0.2312925E+00 -0.1156463E+00  0.0000000E+00  0.6666667E-02
      1        -15.949513   1.000000
      2        -10.226377   1.000000
      3         -5.551130   1.000000
      4         -4.241218   1.000000
      5         -3.380652   1.000000
      6         -0.190280   0.000000
      7          0.308072   0.000000
      8          1.602487   0.000000
      9          2.578398   0.000000
     10          2.584291   0.000000
     11          3.789989   0.000000
     12          4.886875   0.000000
     13          4.995047   0.000000
     14          6.576165   0.000000
     15          7.142520   0.000000
     16          7.334127   0.000000
 
  0.2448980E+00 -0.1224490E+00  0.0000000E+00  0.6666667E-02
      1        -15.886999   1.000000
      2        -10.249251   1.000000
      3         -5.677814   1.000000
      4         -4.371341   1.000000
      5         -3.372548   1.000000
      6         -0.215198   0.000000
      7          0.349019   0.000000
      8          1.644882   0.000000
      9          2.635962   0.000000
     10          2.650877   0.000000
     11          3.819794   0.000000
     12          4.952673   0.000000
     13          4.964696   0.000000
     14          6.573046   0.000000
     15          7.213728   0.000000
     16          7.374080   0.000000
 
  0.2585034E+00 -0.1292517E+00  0.0000000E+00  0.6666667E-02
      1        -15.821194   1.000000
      2        -10.277519   1.000000
      3         -5.793480   1.000000
      4         -4.504106   1.000000
      5         -3.367370   1.000000
      6         -0.234991   0.000000
      7          0.385532   0.000000
      8          1.674363   0.000000
      9          2.694989   0.000000
     10          2.720572   0.000000
     11          3.848562   0.000000
     12          4.950459   0.000000
     13          5.022885   0.000000
     14          6.555737   0.000000
     15          7.280843   0.000000
     16          7.442724   0.000000
 
  0.2721088E+00 -0.1360544E+00  0.0000000E+00  0.6666667E-02
      1        -15.752143   1.000000
      2        -10.311672   1.000000
      3         -5.897538   1.000000
      4         -4.638978   1.000000
      5         -3.365685   1.000000
      6         -0.249444   0.000000
      7          0.416590   0.000000
      8          1.691719   0.000000
      9          2.757100   0.000000
     10          2.793258   0.000000
     11          3.876922   0.000000
     12          4.951835   0.000000
     13          5.097852   0.000000
     14          6.521142   0.000000
     15          7.342916   0.000000
     16          7.540299   0.000000
 
  0.2857143E+00 -0.1428571E+00  0.0000000E+00  0.6666667E-02
      1        -15.679915   1.000000
      2        -10.352116   1.000000
      3         -5.989473   1.000000
      4         -4.775265   1.000000
      5         -3.367962   1.000000
      6         -0.258341   0.000000
      7          0.441229   0.000000
      8          1.698431   0.000000
      9          2.823730   0.000000
     10          2.868832   0.000000
     11          3.905932   0.000000
     12          4.967947   0.000000
     13          5.177807   0.000000
     14          6.470122   0.000000
     15          7.398515   0.000000
     16          7.661983   0.000000
 
  0.2993197E+00 -0.1496599E+00  0.0000000E+00  0.6666667E-02
      1        -15.604582   1.000000
      2        -10.399164   1.000000
      3         -6.068863   1.000000
      4         -4.912375   1.000000
      5         -3.374798   1.000000
      6         -0.261286   0.000000
      7          0.457947   0.000000
      8          1.697239   0.000000
      9          2.895848   0.000000
     10          2.947185   0.000000
     11          3.936931   0.000000
     12          4.997510   0.000000
     13          5.262809   0.000000
     14          6.405767   0.000000
     15          7.445592   0.000000
     16          7.801340   0.000000
 
  0.3129252E+00 -0.1564626E+00  0.0000000E+00  0.6666667E-02
      1        -15.526206   1.000000
      2        -10.452968   1.000000
      3         -6.135459   1.000000
      4         -5.049699   1.000000
      5         -3.386577   1.000000
      6         -0.257825   0.000000
      7          0.465207   0.000000
      8          1.691496   0.000000
      9          2.973983   0.000000
     10          3.028221   0.000000
     11          3.971339   0.000000
     12          5.039068   0.000000
     13          5.352855   0.000000
     14          6.331558   0.000000
     15          7.481565   0.000000
     16          7.951071   0.000000
 
  0.3265306E+00 -0.1632653E+00  0.0000000E+00  0.6666667E-02
      1        -15.444878   1.000000
      2        -10.513569   1.000000
      3         -6.189217   1.000000
      4         -5.186749   1.000000
      5         -3.403678   1.000000
      6         -0.247748   0.000000
      7          0.461469   0.000000
      8          1.684429   0.000000
      9          3.058220   0.000000
     10          3.111842   0.000000
     11          4.010478   0.000000
     12          5.091004   0.000000
     13          5.447843   0.000000
     14          6.250532   0.000000
     15          7.503248   0.000000
     16          8.104106   0.000000
 
  0.3401361E+00 -0.1700680E+00  0.0000000E+00  0.6666667E-02
      1        -15.360678   1.000000
      2        -10.580851   1.000000
      3         -6.230189   1.000000
      4         -5.323010   1.000000
      5         -3.426367   1.000000
      6         -0.230763   0.000000
      7          0.445522   0.000000
      8          1.679195   0.000000
      9          3.148424   0.000000
     10          3.197987   0.000000
     11          4.055497   0.000000
     12          5.151750   0.000000
     13          5.547605   0.000000
     14          6.165407   0.000000
     15          7.507581   0.000000
     16          8.254476   0.000000
 
  0.3537415E+00 -0.1768707E+00  0.0000000E+00  0.6666667E-02
      1        -15.273700   1.000000
      2        -10.654557   1.000000
      3         -6.258636   1.000000
      4         -5.458002   1.000000
      5         -3.454803   1.000000
      6         -0.206628   0.000000
      7          0.416780   0.000000
      8          1.678150   0.000000
      9          3.244339   0.000000
     10          3.286642   0.000000
     11          4.107299   0.000000
     12          5.219799   0.000000
     13          5.651844   0.000000
     14          6.078647   0.000000
     15          7.492526   0.000000
     16          8.396384   0.000000
 
  0.3673469E+00 -0.1836735E+00  0.0000000E+00  0.6666667E-02
      1        -15.184067   1.000000
      2        -10.734317   1.000000
      3         -6.275006   1.000000
      4         -5.591346   1.000000
      5         -3.489084   1.000000
      6         -0.175375   0.000000
      7          0.375321   0.000000
      8          1.682430   0.000000
      9          3.345645   0.000000
     10          3.377796   0.000000
     11          4.166424   0.000000
     12          5.293635   0.000000
     13          5.759624   0.000000
     14          5.992893   0.000000
     15          7.457980   0.000000
     16          8.523688   0.000000
 
  0.3809524E+00 -0.1904762E+00  0.0000000E+00  0.6666667E-02
      1        -15.091878   1.000000
      2        -10.819655   1.000000
      3         -6.279757   1.000000
      4         -5.722614   1.000000
      5         -3.529010   1.000000
      6         -0.136868   0.000000
      7          0.322064   0.000000
      8          1.692387   0.000000
      9          3.452063   0.000000
     10          3.471535   0.000000
     11          4.233202   0.000000
     12          5.371796   0.000000
     13          5.857943   0.000000
     14          5.923014   0.000000
     15          7.406370   0.000000
     16          8.630246   0.000000
 
  0.3945578E+00 -0.1972789E+00  0.0000000E+00  0.6666667E-02
      1        -14.997269   1.000000
      2        -10.909987   1.000000
      3         -6.273523   1.000000
      4         -5.851343   1.000000
      5         -3.574497   1.000000
      6         -0.091144   0.000000
      7          0.258606   0.000000
      8          1.707574   0.000000
      9          3.563275   0.000000
     10          3.568037   0.000000
     11          4.307700   0.000000
     12          5.452643   0.000000
     13          5.815966   0.000000
     14          6.001357   0.000000
     15          7.342239   0.000000
     16          8.709144   0.000000
 
  0.4081633E+00 -0.2040816E+00  0.0000000E+00  0.6666667E-02
      1        -14.900382   1.000000
      2        -11.004719   1.000000
      3         -6.257005   1.000000
      4         -5.977238   1.000000
      5         -3.625238   1.000000
      6         -0.038452   0.000000
      7          0.186687   0.000000
      8          1.726674   0.000000
      9          3.667430   0.000000
     10          3.679002   0.000000
     11          4.389615   0.000000
     12          5.534290   0.000000
     13          5.741126   0.000000
     14          6.121841   0.000000
     15          7.271021   0.000000
     16          8.752722   0.000000
 
  0.4217687E+00 -0.2108844E+00  0.0000000E+00  0.6666667E-02
      1        -14.801369   1.000000
      2        -11.103225   1.000000
      3         -6.230937   1.000000
      4         -6.099856   1.000000
      5         -3.680886   1.000000
      6          0.021084   0.000000
      7          0.108239   0.000000
      8          1.748425   0.000000
      9          3.770040   0.000000
     10          3.798979   0.000000
     11          4.478557   0.000000
     12          5.614484   0.000000
     13          5.670898   0.000000
     14          6.248467   0.000000
     15          7.198620   0.000000
     16          8.757382   0.000000
 
  0.4353741E+00 -0.2176871E+00  0.0000000E+00  0.6666667E-02
      1        -14.700405   1.000000
      2        -11.204851   1.000000
      3         -6.218900   1.000000
      4         -6.196036   1.000000
      5         -3.740949   1.000000
      6          0.025078   0.000000
      7          0.087003   0.000000
      8          1.771117   0.000000
      9          3.875985   0.000000
     10          3.922924   0.000000
     11          4.573714   0.000000
     12          5.608010   0.000000
     13          5.690374   0.000000
     14          6.379815   0.000000
     15          7.131252   0.000000
     16          8.724624   0.000000
 
  0.4489796E+00 -0.2244898E+00  0.0000000E+00  0.6666667E-02
      1        -14.597668   1.000000
      2        -11.308978   1.000000
      3         -6.334045   1.000000
      4         -6.153106   1.000000
      5         -3.804984   1.000000
      6         -0.061126   0.000000
      7          0.158977   0.000000
      8          1.793234   0.000000
      9          3.985498   0.000000
     10          4.050525   0.000000
     11          4.674045   0.000000
     12          5.554029   0.000000
     13          5.758531   0.000000
     14          6.515584   0.000000
     15          7.075138   0.000000
     16          8.660811   0.000000
 
  0.4625850E+00 -0.2312925E+00  0.0000000E+00  0.6666667E-02
      1        -14.493365   1.000000
      2        -11.415011   1.000000
      3         -6.444872   1.000000
      4         -6.102897   1.000000
      5         -3.872505   1.000000
      6         -0.148922   0.000000
      7          0.236517   0.000000
      8          1.813502   0.000000
      9          4.098913   0.000000
     10          4.181398   0.000000
     11          4.778219   0.000000
     12          5.510487   0.000000
     13          5.815284   0.000000
     14          6.655629   0.000000
     15          7.036556   0.000000
     16          8.573794   0.000000
 
  0.4761905E+00 -0.2380952E+00  0.0000000E+00  0.6666667E-02
      1        -14.387730   1.000000
      2        -11.522390   1.000000
      3         -6.551131   1.000000
      4         -6.046226   1.000000
      5         -3.943021   1.000000
      6         -0.237008   0.000000
      7          0.319093   0.000000
      8          1.830574   0.000000
      9          4.216306   0.000000
     10          4.315068   0.000000
     11          4.884074   0.000000
     12          5.478659   0.000000
     13          5.857814   0.000000
     14          6.799874   0.000000
     15          7.021009   0.000000
     16          8.467752   0.000000
 
  0.4897959E+00 -0.2448980E+00  0.0000000E+00  0.6666667E-02
      1        -14.280990   1.000000
      2        -11.630588   1.000000
      3         -6.652461   1.000000
      4         -5.983830   1.000000
      5         -4.015993   1.000000
      6         -0.324257   0.000000
      7          0.406173   0.000000
      8          1.843312   0.000000
      9          4.337756   0.000000
     10          4.450874   0.000000
     11          4.988433   0.000000
     12          5.459851   0.000000
     13          5.886171   0.000000
     14          6.948244   0.000000
     15          7.031810   0.000000
     16          8.312189   0.000000
 
  0.5034014E+00 -0.2517007E+00  0.0000000E+00  0.6666667E-02
      1        -14.173409   1.000000
      2        -11.739122   1.000000
      3         -6.748487   1.000000
      4         -5.916451   1.000000
      5         -4.090933   1.000000
      6         -0.409646   0.000000
      7          0.497149   0.000000
      8          1.850995   0.000000
      9          4.463412   0.000000
     10          4.587895   0.000000
     11          5.086455   0.000000
     12          5.455585   0.000000
     13          5.905237   0.000000
     14          7.068635   0.000000
     15          7.100678   0.000000
     16          8.160510   0.000000
 
  0.5170068E+00 -0.2585034E+00  0.0000000E+00  0.6666667E-02
      1        -14.065292   1.000000
      2        -11.847557   1.000000
      3         -6.838896   1.000000
      4         -5.844832   1.000000
      5         -4.167370   1.000000
      6         -0.492281   0.000000
      7          0.591270   0.000000
      8          1.852965   0.000000
      9          4.593229   0.000000
     10          4.724773   0.000000
     11          5.170786   0.000000
     12          5.467469   0.000000
     13          5.925320   0.000000
     14          7.127511   0.000000
     15          7.257069   0.000000
     16          8.012279   0.000000
 
  0.5306122E+00 -0.2653061E+00  0.0000000E+00  0.6666667E-02
      1        -13.956944   1.000000
      2        -11.955494   1.000000
      3         -6.923321   1.000000
      4         -5.769694   1.000000
      5         -4.244816   1.000000
      6         -0.571299   0.000000
      7          0.687851   0.000000
      8          1.848904   0.000000
      9          4.727177   0.000000
     10          4.859576   0.000000
     11          5.232302   0.000000
     12          5.497489   0.000000
     13          5.960122   0.000000
     14          7.201835   0.000000
     15          7.417240   0.000000
     16          7.867878   0.000000
 
  0.5442177E+00 -0.2721088E+00  0.0000000E+00  0.6666667E-02
      1        -13.848701   1.000000
      2        -12.062598   1.000000
      3         -7.001440   1.000000
      4         -5.691817   1.000000
      5         -4.322882   1.000000
      6         -0.646006   0.000000
      7          0.785968   0.000000
      8          1.838654   0.000000
      9          4.864995   0.000000
     10          4.989696   0.000000
     11          5.264107   0.000000
     12          5.547975   0.000000
     13          6.021134   0.000000
     14          7.282736   0.000000
     15          7.580501   0.000000
     16          7.728244   0.000000
 
  0.5578231E+00 -0.2789116E+00  0.0000000E+00  0.6666667E-02
      1        -13.740913   1.000000
      2        -12.168517   1.000000
      3         -7.072786   1.000000
      4         -5.611886   1.000000
      5         -4.401121   1.000000
      6         -0.715536   0.000000
      7          0.884800   0.000000
      8          1.822421   0.000000
      9          5.006497   0.000000
     10          5.112344   0.000000
     11          5.266898   0.000000
     12          5.621324   0.000000
     13          6.111638   0.000000
     14          7.356260   0.000000
     15          7.597354   0.000000
     16          7.720448   0.000000
 
  0.5714286E+00 -0.2857143E+00  0.0000000E+00  0.6666667E-02
      1        -13.633980   1.000000
      2        -12.272969   1.000000
      3         -7.137051   1.000000
      4         -5.530736   1.000000
      5         -4.479198   1.000000
      6         -0.779265   0.000000
      7          0.983136   0.000000
      8          1.800412   0.000000
      9          5.150257   0.000000
     10          5.225619   0.000000
     11          5.248705   0.000000
     12          5.718338   0.000000
     13          6.226961   0.000000
     14          7.378785   0.000000
     15          7.504882   0.000000
     16          7.614728   0.000000
 
  0.5850340E+00 -0.2925170E+00  0.0000000E+00  0.6666667E-02
      1        -13.528307   1.000000
      2        -12.375718   1.000000
      3         -7.193907   1.000000
      4         -5.449113   1.000000
      5         -4.556753   1.000000
      6         -0.836544   0.000000
      7          1.079765   0.000000
      8          1.773066   0.000000
      9          5.213647   0.000000
     10          5.300371   0.000000
     11          5.329955   0.000000
     12          5.837588   0.000000
     13          6.359843   0.000000
     14          7.287753   0.000000
     15          7.494744   0.000000
     16          7.495015   0.000000
 
  0.5986395E+00 -0.2993197E+00  0.0000000E+00  0.6666667E-02
      1        -13.424314   1.000000
      2        -12.476534   1.000000
      3         -7.242883   1.000000
      4         -5.367827   1.000000
      5         -4.633524   1.000000
      6         -0.886715   0.000000
      7          1.173410   0.000000
      8          1.741044   0.000000
      9          5.177515   0.000000
     10          5.427763   0.000000
     11          5.446919   0.000000
     12          5.975183   0.000000
     13          6.503156   0.000000
     14          7.164256   0.000000
     15          7.377307   0.000000
     16          7.469863   0.000000
 
  0.6122449E+00 -0.3061224E+00  0.0000000E+00  0.6666667E-02
      1        -13.322426   1.000000
      2        -12.575176   1.000000
      3         -7.283630   1.000000
      4         -5.287553   1.000000
      5         -4.708977   1.000000
      6         -0.928906   0.000000
      7          1.262579   0.000000