 running   16 mpi-ranks, on    1 nodes
 distrk:  each k-point on   16 cores,    1 groups
 distr:  one band on    4 cores,    4 groups
 vasp.6.4.2 20Jul23 (build Nov 14 2023 12:59:38) complex                        
  
 POSCAR found type information on POSCAR As
 POSCAR found :  1 types and       2 ions
 Reading from existing POTCAR
 scaLAPACK will be used
 Reading from existing POTCAR
 LDA part: xc-table for Pade appr. of Perdew
 POSCAR, INCAR and KPOINTS ok, starting setup
 FFT: planning ... GRIDC
 FFT: planning ... GRID_SOFT
 FFT: planning ... GRID
 WAVECAR not read
 entering main loop
       N       E                     dE             d eps       ncg     rms          rms(c)
DAV:   1     0.303809341096E+02    0.30381E+02   -0.21118E+03   672   0.231E+02
DAV:   2    -0.582115021590E+01   -0.36202E+02   -0.34255E+02   912   0.658E+01
DAV:   3    -0.915322481886E+01   -0.33321E+01   -0.33223E+01   888   0.218E+01
DAV:   4    -0.940020934403E+01   -0.24698E+00   -0.24697E+00  1048   0.600E+00
DAV:   5    -0.940224849284E+01   -0.20391E-02   -0.20391E-02   896   0.482E-01
DAV:   6    -0.940231755875E+01   -0.69066E-04   -0.69066E-04  1040   0.714E-02
DAV:   7    -0.940231813910E+01   -0.58035E-06   -0.58043E-06   944   0.663E-03
DAV:   8    -0.940231815514E+01   -0.16040E-07   -0.15975E-07   744   0.939E-04
DAV:   9    -0.940231815684E+01   -0.16968E-08   -0.18517E-08   616   0.439E-04
DAV:  10    -0.940231815775E+01   -0.91205E-09   -0.69608E-09   512   0.280E-04
DAV:  11    -0.940231815803E+01   -0.28194E-09   -0.31975E-09   456   0.187E-04
DAV:  12    -0.940231815822E+01   -0.19270E-09   -0.14891E-09   424   0.127E-04    0.193E+00
DAV:  13    -0.938772241683E+01    0.14596E-01   -0.19025E-03   816   0.164E-01    0.172E+00
DAV:  14    -0.934516122730E+01    0.42561E-01   -0.10928E-01   848   0.125E+00    0.220E-01
DAV:  15    -0.934154332967E+01    0.36179E-02   -0.11376E-02   896   0.390E-01    0.111E-01
DAV:  16    -0.934168680060E+01   -0.14347E-03   -0.90433E-04   920   0.119E-01    0.480E-02
DAV:  17    -0.934158897263E+01    0.97828E-04   -0.56190E-04   936   0.874E-02    0.359E-02
DAV:  18    -0.934157911009E+01    0.98625E-05   -0.10488E-04   744   0.369E-02    0.613E-03
DAV:  19    -0.934158038462E+01   -0.12745E-05   -0.75467E-06   920   0.111E-02    0.547E-03
DAV:  20    -0.934158140698E+01   -0.10224E-05   -0.10129E-06   736   0.421E-03    0.176E-03
DAV:  21    -0.934158139589E+01    0.11087E-07   -0.20880E-07   664   0.209E-03
   1 F= -.93415814E+01 E0= -.93415814E+01  d E =-.381756E-11
