       N       E                     dE             d eps       ncg     rms          rms(c)
DAV:   1     0.296813464593E+02    0.29681E+02   -0.20785E+03  4840   0.228E+02
DAV:   2    -0.612154746485E+01   -0.35803E+02   -0.33746E+02  6904   0.639E+01
DAV:   3    -0.913544173376E+01   -0.30139E+01   -0.30057E+01  6160   0.206E+01
DAV:   4    -0.933014675668E+01   -0.19471E+00   -0.19469E+00  7632   0.520E+00
DAV:   5    -0.933197566118E+01   -0.18289E-02   -0.18289E-02  6504   0.458E-01
DAV:   6    -0.933205311419E+01   -0.77453E-04   -0.77453E-04  7616   0.720E-02
DAV:   7    -0.933205374703E+01   -0.63284E-06   -0.63269E-06  6520   0.655E-03
DAV:   8    -0.933205376766E+01   -0.20631E-07   -0.20590E-07  5456   0.999E-04
DAV:   9    -0.933205376973E+01   -0.20683E-08   -0.21520E-08  5024   0.465E-04
DAV:  10    -0.933205377052E+01   -0.79183E-09   -0.83739E-09  4488   0.294E-04
DAV:  11    -0.933205377090E+01   -0.38193E-09   -0.38332E-09  4240   0.196E-04
DAV:  12    -0.933205377108E+01   -0.17621E-09   -0.17936E-09  4152   0.132E-04
DAV:  13    -0.933205377114E+01   -0.56559E-10   -0.84019E-10  3888   0.895E-05
   1 F= -.93320538E+01 E0= -.93320538E+01  d E =-.218358E-11
