 vasp.6.4.2 20Jul23 (build Nov 14 2023 12:59:38) complex                        
  
 executed on             LinuxIFC date 2023.12.17  08:41:42
 running   16 mpi-ranks, on    1 nodes
 distrk:  each k-point on   16 cores,    1 groups
 distr:  one band on NCORE=   4 cores,    4 groups


--------------------------------------------------------------------------------------------------------


 INCAR:
   ENCUT = 234.789750
   ALGO = Normal
   NELM = 200
   NELMIN = 6
   NELMDL = -12
   EDIFF = 1.0E-6
   AMIX = 0.1
   BMIX = 0.0001
   NBANDS = 16
   PREC = Accurate
   IVDW = 0
   ISPIN = 1
   ADDGRID = .TRUE.
   LASPH = .TRUE.
   NSW = 0
   EDIFFG = -0.010
   IBRION = 2
   ISIF = -1
   POTIM = 0.5
   STRESSTYPE = 2
   ISMEAR = 0
   SIGMA = 0.01
   LORBIT = 10
   NEDOS = 6001
   NWRITE = 1
   LWAVE = .FALSE.
   LCHARG = .FALSE.
   ICHARG = 11
   NCORE = 4
   LPLANE = .TRUE.

 POTCAR:    PAW_PBE As_GW 20Mar2012               
 POTCAR:    PAW_PBE As_GW 20Mar2012               
  local pseudopotential read in
  partial core-charges read in
  partial kinetic energy density read in
  kinetic energy density of atom read in
  atomic valenz-charges read in
  non local Contribution for L=           0  read in
    real space projection operators read in
  non local Contribution for L=           0  read in
    real space projection operators read in
  non local Contribution for L=           1  read in
    real space projection operators read in
  non local Contribution for L=           1  read in
    real space projection operators read in
  non local Contribution for L=           2  read in
    real space projection operators read in
    PAW grid and wavefunctions read in
 
   number of l-projection  operators is LMAX  =           5
   number of lm-projection operators is LMMAX =          13
 
  PAW_PBE As_GW 20Mar2012               :
 energy of atom  1       EATOM= -170.1867
 kinetic energy error for atom=    0.0047 (will be added to EATOM!!)
 
 
 POSCAR: pnictogen honeycomb monolayer
  positions in direct lattice
  velocities in cartesian coordinates
 exchange correlation table for  LEXCH =        8
   RHO(1)=    0.500       N(1)  =     2000
   RHO(2)=  100.500       N(2)  =     4000
 


--------------------------------------------------------------------------------------------------------


 ion  position               nearest neighbor table
   1  0.667  0.333  0.456-   2 2.51   2 2.51   2 2.51
   2  0.333  0.667  0.544-   1 2.51   1 2.51   1 2.51
 
  LATTYP: Found a hexagonal cell.
 ALAT       =     3.6068925390
 C/A-ratio  =     4.4359513978
  
  Lattice vectors:
  
 A1 = (   3.6068925390,   0.0000000000,   0.0000000000)
 A2 = (  -1.8034462695,   3.1236605675,   0.0000000000)
 A3 = (   0.0000000000,   0.0000000000,  16.0000000000)


Analysis of symmetry for initial positions (statically):
=====================================================================
 Subroutine PRICEL returns:
 Original cell was already a primitive cell.
 

 Routine SETGRP: Setting up the symmetry group for a 
 hexagonal supercell.


 Subroutine GETGRP returns: Found 12 space group operations
 (whereof 12 operations were pure point group operations)
 out of a pool of 24 trial point group operations.


The static configuration has the point symmetry D_3d.


Analysis of symmetry for dynamics (positions and initial velocities):
=====================================================================
 Subroutine PRICEL returns:
 Original cell was already a primitive cell.
 

 Routine SETGRP: Setting up the symmetry group for a 
 hexagonal supercell.


 Subroutine GETGRP returns: Found 12 space group operations
 (whereof 12 operations were pure point group operations)
 out of a pool of 24 trial point group operations.


The dynamic configuration has the point symmetry D_3d.


 Subroutine INISYM returns: Found 12 space group operations
 (whereof 12 operations are pure point group operations),
 and found     1 'primitive' translations


----------------------------------------------------------------------------------------

                                     Primitive cell                                     

  volume of cell :     180.2673

  direct lattice vectors                    reciprocal lattice vectors
     3.606892539  0.000000000  0.000000000     0.277246962  0.160068608  0.000000000
    -1.803446269  3.123660567  0.000000000     0.000000000  0.320137217  0.000000000
     0.000000000  0.000000000 16.000000000     0.000000000  0.000000000  0.062500000

  length of vectors
     3.606892539  3.606892539 16.000000000     0.320137217  0.320137217  0.062500000

  position of ions in fractional coordinates (direct lattice)
     0.666666667  0.333333333  0.456343136
     0.333333333  0.666666667  0.543656864

  ion indices of the primitive-cell ions
   primitive index   ion index
                 1           1
                 2           2

----------------------------------------------------------------------------------------

 
 
 KPOINTS: kpoints along symmetry lines            

Interpolating k-points between supplied coordinates.

 Line segments in fractional coordinates (reciprocal lattice):
    0.000000  0.000000  0.000000  ...  0.666667 -0.333333  0.000000
    0.666667 -0.333333  0.000000  ...  0.333333  0.333333  0.000000
    0.333333  0.333333  0.000000  ...  0.000000  0.000000  0.000000

 Generated    50 points on each line segment, for a total of    150 k-points:

 Following reciprocal coordinates:
            Coordinates               Weight
  0.000000  0.000000  0.000000      0.006667
  0.013605 -0.006803  0.000000      0.006667
  0.027211 -0.013605  0.000000      0.006667
  0.040816 -0.020408  0.000000      0.006667
  0.054422 -0.027211  0.000000      0.006667
  0.068027 -0.034014  0.000000      0.006667
  0.081633 -0.040816  0.000000      0.006667
  0.095238 -0.047619  0.000000      0.006667
  0.108844 -0.054422  0.000000      0.006667
  0.122449 -0.061224  0.000000      0.006667
  0.136054 -0.068027  0.000000      0.006667
  0.149660 -0.074830  0.000000      0.006667
  0.163265 -0.081633  0.000000      0.006667
  0.176871 -0.088435  0.000000      0.006667
  0.190476 -0.095238  0.000000      0.006667
  0.204082 -0.102041  0.000000      0.006667
  0.217687 -0.108844  0.000000      0.006667
  0.231293 -0.115646  0.000000      0.006667
  0.244898 -0.122449  0.000000      0.006667
  0.258503 -0.129252  0.000000      0.006667
  0.272109 -0.136054  0.000000      0.006667
  0.285714 -0.142857  0.000000      0.006667
  0.299320 -0.149660  0.000000      0.006667
  0.312925 -0.156463  0.000000      0.006667
  0.326531 -0.163265  0.000000      0.006667
  0.340136 -0.170068  0.000000      0.006667
  0.353741 -0.176871  0.000000      0.006667
  0.367347 -0.183673  0.000000      0.006667
  0.380952 -0.190476  0.000000      0.006667
  0.394558 -0.197279  0.000000      0.006667
  0.408163 -0.204082  0.000000      0.006667
  0.421769 -0.210884  0.000000      0.006667
  0.435374 -0.217687  0.000000      0.006667
  0.448980 -0.224490  0.000000      0.006667
  0.462585 -0.231293  0.000000      0.006667
  0.476190 -0.238095  0.000000      0.006667
  0.489796 -0.244898  0.000000      0.006667
  0.503401 -0.251701  0.000000      0.006667
  0.517007 -0.258503  0.000000      0.006667
  0.530612 -0.265306  0.000000      0.006667
  0.544218 -0.272109  0.000000      0.006667
  0.557823 -0.278912  0.000000      0.006667
  0.571429 -0.285714  0.000000      0.006667
  0.585034 -0.292517  0.000000      0.006667
  0.598639 -0.299320  0.000000      0.006667
  0.612245 -0.306122  0.000000      0.006667
  0.625850 -0.312925  0.000000      0.006667
  0.639456 -0.319728  0.000000      0.006667
  0.653061 -0.326531  0.000000      0.006667
  0.666667 -0.333333  0.000000      0.006667
  0.666667 -0.333333  0.000000      0.006667
  0.659864 -0.319728  0.000000      0.006667
  0.653061 -0.306122  0.000000      0.006667
  0.646259 -0.292517  0.000000      0.006667
  0.639456 -0.278912  0.000000      0.006667
  0.632653 -0.265306  0.000000      0.006667
  0.625850 -0.251701  0.000000      0.006667
  0.619048 -0.238095  0.000000      0.006667
  0.612245 -0.224490  0.000000      0.006667
  0.605442 -0.210884  0.000000      0.006667
  0.598639 -0.197279  0.000000      0.006667
  0.591837 -0.183673  0.000000      0.006667
  0.585034 -0.170068  0.000000      0.006667
  0.578231 -0.156463  0.000000      0.006667
  0.571429 -0.142857  0.000000      0.006667
  0.564626 -0.129252  0.000000      0.006667
  0.557823 -0.115646  0.000000      0.006667
  0.551020 -0.102041  0.000000      0.006667
  0.544218 -0.088435  0.000000      0.006667
  0.537415 -0.074830  0.000000      0.006667
  0.530612 -0.061224  0.000000      0.006667
  0.523810 -0.047619  0.000000      0.006667
  0.517007 -0.034014  0.000000      0.006667
  0.510204 -0.020408  0.000000      0.006667
  0.503401 -0.006803  0.000000      0.006667
  0.496599  0.006803  0.000000      0.006667
  0.489796  0.020408  0.000000      0.006667
  0.482993  0.034014  0.000000      0.006667
  0.476190  0.047619  0.000000      0.006667
  0.469388  0.061224  0.000000      0.006667
  0.462585  0.074830  0.000000      0.006667
  0.455782  0.088435  0.000000      0.006667
  0.448980  0.102041  0.000000      0.006667
  0.442177  0.115646  0.000000      0.006667
  0.435374  0.129252  0.000000      0.006667
  0.428571  0.142857  0.000000      0.006667
  0.421769  0.156463  0.000000      0.006667
  0.414966  0.170068  0.000000      0.006667
  0.408163  0.183673  0.000000      0.006667
  0.401361  0.197279  0.000000      0.006667
  0.394558  0.210884  0.000000      0.006667
  0.387755  0.224490  0.000000      0.006667
  0.380952  0.238095  0.000000      0.006667
  0.374150  0.251701  0.000000      0.006667
  0.367347  0.265306  0.000000      0.006667
  0.360544  0.278912  0.000000      0.006667
  0.353741  0.292517  0.000000      0.006667
  0.346939  0.306122  0.000000      0.006667
  0.340136  0.319728  0.000000      0.006667
  0.333333  0.333333  0.000000      0.006667
  0.333333  0.333333  0.000000      0.006667
  0.326531  0.326531  0.000000      0.006667
  0.319728  0.319728  0.000000      0.006667
  0.312925  0.312925  0.000000      0.006667
  0.306122  0.306122  0.000000      0.006667
  0.299320  0.299320  0.000000      0.006667
  0.292517  0.292517  0.000000      0.006667
  0.285714  0.285714  0.000000      0.006667
  0.278912  0.278912  0.000000      0.006667
  0.272109  0.272109  0.000000      0.006667
  0.265306  0.265306  0.000000      0.006667
  0.258503  0.258503  0.000000      0.006667
  0.251701  0.251701  0.000000      0.006667
  0.244898  0.244898  0.000000      0.006667
  0.238095  0.238095  0.000000      0.006667
  0.231293  0.231293  0.000000      0.006667
  0.224490  0.224490  0.000000      0.006667
  0.217687  0.217687  0.000000      0.006667
  0.210884  0.210884  0.000000      0.006667
  0.204082  0.204082  0.000000      0.006667
  0.197279  0.197279  0.000000      0.006667
  0.190476  0.190476  0.000000      0.006667
  0.183673  0.183673  0.000000      0.006667
  0.176871  0.176871  0.000000      0.006667
  0.170068  0.170068  0.000000      0.006667
  0.163265  0.163265  0.000000      0.006667
  0.156463  0.156463  0.000000      0.006667
  0.149660  0.149660  0.000000      0.006667
  0.142857  0.142857  0.000000      0.006667
  0.136054  0.136054  0.000000      0.006667
  0.129252  0.129252  0.000000      0.006667
  0.122449  0.122449  0.000000      0.006667
  0.115646  0.115646  0.000000      0.006667
  0.108844  0.108844  0.000000      0.006667
  0.102041  0.102041  0.000000      0.006667
  0.095238  0.095238  0.000000      0.006667
  0.088435  0.088435  0.000000      0.006667
  0.081633  0.081633  0.000000      0.006667
  0.074830  0.074830  0.000000      0.006667
  0.068027  0.068027  0.000000      0.006667
  0.061224  0.061224  0.000000      0.006667
  0.054422  0.054422  0.000000      0.006667
  0.047619  0.047619  0.000000      0.006667
  0.040816  0.040816  0.000000      0.006667
  0.034014  0.034014  0.000000      0.006667
  0.027211  0.027211  0.000000      0.006667
  0.020408  0.020408  0.000000      0.006667
  0.013605  0.013605  0.000000      0.006667
  0.006803  0.006803  0.000000      0.006667
  0.000000  0.000000  0.000000      0.006667

 Following cartesian coordinates:
            Coordinates               Weight
  0.000000  0.000000  0.000000      0.006667
  0.003772  0.000000  0.000000      0.006667
  0.007544  0.000000  0.000000      0.006667
  0.011316  0.000000  0.000000      0.006667
  0.015088  0.000000  0.000000      0.006667
  0.018860  0.000000  0.000000      0.006667
  0.022632  0.000000  0.000000      0.006667
  0.026404  0.000000  0.000000      0.006667
  0.030177  0.000000  0.000000      0.006667
  0.033949  0.000000  0.000000      0.006667
  0.037721  0.000000  0.000000      0.006667
  0.041493  0.000000  0.000000      0.006667
  0.045265  0.000000  0.000000      0.006667
  0.049037  0.000000  0.000000      0.006667
  0.052809  0.000000  0.000000      0.006667
  0.056581  0.000000  0.000000      0.006667
  0.060353  0.000000  0.000000      0.006667
  0.064125  0.000000  0.000000      0.006667
  0.067897  0.000000  0.000000      0.006667
  0.071669  0.000000  0.000000      0.006667
  0.075441  0.000000  0.000000      0.006667
  0.079213  0.000000  0.000000      0.006667
  0.082985  0.000000  0.000000      0.006667
  0.086758  0.000000  0.000000      0.006667
  0.090530  0.000000  0.000000      0.006667
  0.094302  0.000000  0.000000      0.006667
  0.098074  0.000000  0.000000      0.006667
  0.101846  0.000000  0.000000      0.006667
  0.105618  0.000000  0.000000      0.006667
  0.109390  0.000000  0.000000      0.006667
  0.113162  0.000000  0.000000      0.006667
  0.116934  0.000000  0.000000      0.006667
  0.120706  0.000000  0.000000      0.006667
  0.124478  0.000000  0.000000      0.006667
  0.128250  0.000000  0.000000      0.006667
  0.132022  0.000000  0.000000      0.006667
  0.135794  0.000000  0.000000      0.006667
  0.139566  0.000000  0.000000      0.006667
  0.143339  0.000000  0.000000      0.006667
  0.147111  0.000000  0.000000      0.006667
  0.150883  0.000000  0.000000      0.006667
  0.154655  0.000000  0.000000      0.006667
  0.158427  0.000000  0.000000      0.006667
  0.162199  0.000000  0.000000      0.006667
  0.165971  0.000000  0.000000      0.006667
  0.169743  0.000000  0.000000      0.006667
  0.173515  0.000000  0.000000      0.006667
  0.177287  0.000000  0.000000      0.006667
  0.181059  0.000000  0.000000      0.006667
  0.184831  0.000000  0.000000      0.006667
  0.184831  0.000000  0.000000      0.006667
  0.182945  0.003267  0.000000      0.006667
  0.181059  0.006533  0.000000      0.006667
  0.179173  0.009800  0.000000      0.006667
  0.177287  0.013067  0.000000      0.006667
  0.175401  0.016334  0.000000      0.006667
  0.173515  0.019600  0.000000      0.006667
  0.171629  0.022867  0.000000      0.006667
  0.169743  0.026134  0.000000      0.006667
  0.167857  0.029400  0.000000      0.006667
  0.165971  0.032667  0.000000      0.006667
  0.164085  0.035934  0.000000      0.006667
  0.162199  0.039200  0.000000      0.006667
  0.160313  0.042467  0.000000      0.006667
  0.158427  0.045734  0.000000      0.006667
  0.156541  0.049001  0.000000      0.006667
  0.154655  0.052267  0.000000      0.006667
  0.152769  0.055534  0.000000      0.006667
  0.150883  0.058801  0.000000      0.006667
  0.148997  0.062067  0.000000      0.006667
  0.147111  0.065334  0.000000      0.006667
  0.145225  0.068601  0.000000      0.006667
  0.143339  0.071868  0.000000      0.006667
  0.141453  0.075134  0.000000      0.006667
  0.139566  0.078401  0.000000      0.006667
  0.137680  0.081668  0.000000      0.006667
  0.135794  0.084934  0.000000      0.006667
  0.133908  0.088201  0.000000      0.006667
  0.132022  0.091468  0.000000      0.006667
  0.130136  0.094734  0.000000      0.006667
  0.128250  0.098001  0.000000      0.006667
  0.126364  0.101268  0.000000      0.006667
  0.124478  0.104535  0.000000      0.006667
  0.122592  0.107801  0.000000      0.006667
  0.120706  0.111068  0.000000      0.006667
  0.118820  0.114335  0.000000      0.006667
  0.116934  0.117601  0.000000      0.006667
  0.115048  0.120868  0.000000      0.006667
  0.113162  0.124135  0.000000      0.006667
  0.111276  0.127402  0.000000      0.006667
  0.109390  0.130668  0.000000      0.006667
  0.107504  0.133935  0.000000      0.006667
  0.105618  0.137202  0.000000      0.006667
  0.103732  0.140468  0.000000      0.006667
  0.101846  0.143735  0.000000      0.006667
  0.099960  0.147002  0.000000      0.006667
  0.098074  0.150268  0.000000      0.006667
  0.096188  0.153535  0.000000      0.006667
  0.094302  0.156802  0.000000      0.006667
  0.092416  0.160069  0.000000      0.006667
  0.092416  0.160069  0.000000      0.006667
  0.090530  0.156802  0.000000      0.006667
  0.088644  0.153535  0.000000      0.006667
  0.086758  0.150268  0.000000      0.006667
  0.084872  0.147002  0.000000      0.006667
  0.082985  0.143735  0.000000      0.006667
  0.081099  0.140468  0.000000      0.006667
  0.079213  0.137202  0.000000      0.006667
  0.077327  0.133935  0.000000      0.006667
  0.075441  0.130668  0.000000      0.006667
  0.073555  0.127402  0.000000      0.006667
  0.071669  0.124135  0.000000      0.006667
  0.069783  0.120868  0.000000      0.006667
  0.067897  0.117601  0.000000      0.006667
  0.066011  0.114335  0.000000      0.006667
  0.064125  0.111068  0.000000      0.006667
  0.062239  0.107801  0.000000      0.006667
  0.060353  0.104535  0.000000      0.006667
  0.058467  0.101268  0.000000      0.006667
  0.056581  0.098001  0.000000      0.006667
  0.054695  0.094734  0.000000      0.006667
  0.052809  0.091468  0.000000      0.006667
  0.050923  0.088201  0.000000      0.006667
  0.049037  0.084934  0.000000      0.006667
  0.047151  0.081668  0.000000      0.006667
  0.045265  0.078401  0.000000      0.006667
  0.043379  0.075134  0.000000      0.006667
  0.041493  0.071868  0.000000      0.006667
  0.039607  0.068601  0.000000      0.006667
  0.037721  0.065334  0.000000      0.006667
  0.035835  0.062067  0.000000      0.006667
  0.033949  0.058801  0.000000      0.006667
  0.032063  0.055534  0.000000      0.006667
  0.030177  0.052267  0.000000      0.006667
  0.028291  0.049001  0.000000      0.006667
  0.026404  0.045734  0.000000      0.006667
  0.024518  0.042467  0.000000      0.006667
  0.022632  0.039200  0.000000      0.006667
  0.020746  0.035934  0.000000      0.006667
  0.018860  0.032667  0.000000      0.006667
  0.016974  0.029400  0.000000      0.006667
  0.015088  0.026134  0.000000      0.006667
  0.013202  0.022867  0.000000      0.006667
  0.011316  0.019600  0.000000      0.006667
  0.009430  0.016334  0.000000      0.006667
  0.007544  0.013067  0.000000      0.006667
  0.005658  0.009800  0.000000      0.006667
  0.003772  0.006533  0.000000      0.006667
  0.001886  0.003267  0.000000      0.006667
  0.000000  0.000000  0.000000      0.006667
 


--------------------------------------------------------------------------------------------------------




 Dimension of arrays:
   k-points           NKPTS =    150   k-points in BZ     NKDIM =    150   number of bands    NBANDS=     16
   number of dos      NEDOS =   6001   number of ions     NIONS =      2
   non local maximal  LDIM  =      5   non local SUM 2l+1 LMDIM =     13
   total plane-waves  NPLWV =  25920
   max r-space proj   IRMAX =      1   max aug-charges    IRDMAX=  47793
   dimension x,y,z NGX =    18 NGY =   18 NGZ =   80
   dimension x,y,z NGXF=    36 NGYF=   36 NGZF=  160
   support grid    NGXF=    72 NGYF=   72 NGZF=  320
   ions per type =               2
   NGX,Y,Z   is equivalent  to a cutoff of   8.30,  8.30,  8.31 a.u.
   NGXF,Y,Z  is equivalent  to a cutoff of  16.59, 16.59, 16.62 a.u.

 SYSTEM =  unknown system                          
 POSCAR =  pnictogen honeycomb monolayer           

 Startparameter for this run:
   NWRITE =      1    write-flag & timer
   PREC   = accura    normal or accurate (medium, high low for compatibility)
   ISTART =      0    job   : 0-new  1-cont  2-samecut
   ICHARG =     11    charge: 1-file 2-atom 10-const
   ISPIN  =      1    spin polarized calculation?
   LNONCOLLINEAR =      F non collinear calculations
   LSORBIT =      F    spin-orbit coupling
   INIWAV =      1    electr: 0-lowe 1-rand  2-diag
   LASPH  =      T    aspherical Exc in radial PAW
 Electronic Relaxation 1
   ENCUT  =  234.8 eV  17.26 Ry    4.15 a.u.   4.51  4.51 19.99*2*pi/ulx,y,z
   ENINI  =  234.8     initial cutoff
   ENAUG  =  462.8 eV  augmentation charge cutoff
   NELM   =    200;   NELMIN=  6; NELMDL=-12     # of ELM steps 
   EDIFF  = 0.1E-05   stopping-criterion for ELM
   LREAL  =      F    real-space projection
   NLSPLINE    = F    spline interpolate recip. space projectors
   LCOMPAT=      F    compatible to vasp.4.4
   GGA_COMPAT  = T    GGA compatible to vasp.4.4-vasp.4.6
   LMAXPAW     = -100 max onsite density
   LMAXMIX     =    2 max onsite mixed and CHGCAR
   VOSKOWN=      0    Vosko Wilk Nusair interpolation
   ROPT   =    0.00000
 Ionic relaxation
   EDIFFG = -.1E-01   stopping-criterion for IOM
   NSW    =      0    number of steps for IOM
   NBLOCK =      1;   KBLOCK =      1    inner block; outer block 
   IBRION =     -1    ionic relax: 0-MD 1-quasi-New 2-CG
   NFREE  =      1    steps in history (QN), initial steepest desc. (CG)
   ISIF   =     -1    stress and relaxation
   IWAVPR =     10    prediction:  0-non 1-charg 2-wave 3-comb
   ISYM   =      2    0-nonsym 1-usesym 2-fastsym
   LCORR  =      T    Harris-Foulkes like correction to forces

   POTIM  = 0.5000    time-step for ionic-motion
   TEIN   =    0.0    initial temperature
   TEBEG  =    0.0;   TEEND  =   0.0 temperature during run
   SMASS  =  -3.00    Nose mass-parameter (am)
   estimated Nose-frequenzy (Omega)   =  0.10E-29 period in steps = 0.13E+47 mass=  -0.297E-27a.u.
   SCALEE = 1.0000    scale energy and forces
   NPACO  =    256;   APACO  = 10.0  distance and # of slots for P.C.
   PSTRESS=    0.0 pullay stress

  Mass of Ions in am
   POMASS =  74.92
  Ionic Valenz
   ZVAL   =   5.00
  Atomic Wigner-Seitz radii
   RWIGS  =  -1.00
  virtual crystal weights 
   VCA    =   1.00
   NELECT =      10.0000    total number of electrons
   NUPDOWN=      -1.0000    fix difference up-down

 DOS related values:
   EMIN   =  10.00;   EMAX   =-10.00  energy-range for DOS
   EFERMI =   0.00;   METHOD = LEGACY      
   ISMEAR =     0;   SIGMA  =   0.01  broadening in eV -4-tet -1-fermi 0-gaus

 Electronic relaxation 2 (details)
   IALGO  =     38    algorithm
   LDIAG  =      T    sub-space diagonalisation (order eigenvalues)
   LSUBROT=      F    optimize rotation matrix (better conditioning)
   TURBO    =      0    0=normal 1=particle mesh
   IRESTART =      0    0=no restart 2=restart with 2 vectors
   NREBOOT  =      0    no. of reboots
   NMIN     =      0    reboot dimension
   EREF     =   0.00    reference energy to select bands
   IMIX   =      4    mixing-type and parameters
     AMIX     =   0.10;   BMIX     =  0.00
     AMIX_MAG =   0.40;   BMIX_MAG =  0.00
     AMIN     =   0.10
     WC   =   100.;   INIMIX=   1;  MIXPRE=   1;  MAXMIX= -45

 Intra band minimization:
   WEIMIN = 0.0000     energy-eigenvalue tresh-hold
   EBREAK =  0.16E-07  absolut break condition
   DEPER  =   0.30     relativ break condition  

   TIME   =   0.40     timestep for ELM

  volume/ion in A,a.u.               =      90.13       608.25
  Fermi-wavevector in a.u.,A,eV,Ry     =   0.624361  1.179871  5.303915  0.389827
  Thomas-Fermi vector in A             =   1.684891
 
 Write flags
   LWAVE        =      F    write WAVECAR
   LDOWNSAMPLE  =      F    k-point downsampling of WAVECAR
   LCHARG       =      F    write CHGCAR
   LVTOT        =      F    write LOCPOT, total local potential
   LVHAR        =      F    write LOCPOT, Hartree potential only
   LELF         =      F    write electronic localiz. function (ELF)
   LORBIT       =     10    0 simple, 1 ext, 2 COOP (PROOUT), +10 PAW based schemes


 Dipole corrections
   LMONO  =      F    monopole corrections only (constant potential shift)
   LDIPOL =      F    correct potential (dipole corrections)
   IDIPOL =      0    1-x, 2-y, 3-z, 4-all directions 
   EPSILON=  1.0000000 bulk dielectric constant

 Exchange correlation treatment:
   GGA     =    --    GGA type
   LEXCH   =     8    internal setting for exchange type
   LIBXC   =     F    Libxc                    
   VOSKOWN =     0    Vosko Wilk Nusair interpolation
   LHFCALC =     F    Hartree Fock is set to
   LHFONE  =     F    Hartree Fock one center treatment
   AEXX    =    0.0000 exact exchange contribution

 Linear response parameters
   LEPSILON=     F    determine dielectric tensor
   LRPA    =     F    only Hartree local field effects (RPA)
   LNABLA  =     F    use nabla operator in PAW spheres
   LVEL    =     F    velocity operator in full k-point grid
   CSHIFT  =0.1000    complex shift for real part using Kramers Kronig
   OMEGAMAX=  -1.0    maximum frequency
   DEG_THRESHOLD= 0.2000000E-02 threshold for treating states as degnerate
   RTIME   =   -0.100 relaxation time in fs
  (WPLASMAI=    0.000 imaginary part of plasma frequency in eV, 0.658/RTIME)
   DFIELD  = 0.0000000 0.0000000 0.0000000 field for delta impulse in time
 
  Optional k-point grid parameters
   LKPOINTS_OPT  =     F    use optional k-point grid
   KPOINTS_OPT_MODE=     1    mode for optional k-point grid
 
 Orbital magnetization related:
   ORBITALMAG=     F  switch on orbital magnetization
   LCHIMAG   =     F  perturbation theory with respect to B field
   DQ        =  0.001000  dq finite difference perturbation B field
   LLRAUG    =     F  two centre corrections for induced B field
   LBONE     =     F  B-component reconstruction in AE one-centre
   LVGVCALC  =     T  calculate vGv susceptibility
   LVGVAPPL  =     F  apply vGv susceptibility instead of pGv for G=0

 Random number generation:
   RANDOM_GENERATOR = DEFAULT
   PCG_SEED         = not used


--------------------------------------------------------------------------------------------------------


 Static calculation
 charge density and potential remain constant during run
 non-spin polarized calculation
 Variant of blocked Davidson
 Davidson routine will perform the subspace rotation
 perform sub-space diagonalisation
    after iterative eigenvector-optimisation
 no mixing
 using additional bands           11
 reciprocal scheme for non local part
 use partial core corrections
 calculate Harris-corrections to forces 
   (improved forces if not selfconsistent)
 use gradient corrections 
 WARNING: stress and forces are not correct
  (second derivative of E(xc) not defined)
 use of overlap-Matrix (Vanderbilt PP)
 Gauss-broadening in eV      SIGMA  =   0.01


--------------------------------------------------------------------------------------------------------


  energy-cutoff  :      234.79
  volume of cell :      180.27
      direct lattice vectors                 reciprocal lattice vectors
     3.606892539  0.000000000  0.000000000     0.277246962  0.160068608  0.000000000
    -1.803446269  3.123660567  0.000000000     0.000000000  0.320137217  0.000000000
     0.000000000  0.000000000 16.000000000     0.000000000  0.000000000  0.062500000

  length of vectors
     3.606892539  3.606892539 16.000000000     0.320137217  0.320137217  0.062500000


 
 k-points in units of 2pi/SCALE and weight: kpoints along symmetry lines            
   0.00000000  0.00000000  0.00000000       0.007
   0.00377207  0.00000000  0.00000000       0.007
   0.00754414  0.00000000  0.00000000       0.007
   0.01131620  0.00000000  0.00000000       0.007
   0.01508827  0.00000000  0.00000000       0.007
   0.01886034  0.00000000  0.00000000       0.007
   0.02263241  0.00000000  0.00000000       0.007
   0.02640447  0.00000000  0.00000000       0.007
   0.03017654  0.00000000  0.00000000       0.007
   0.03394861  0.00000000  0.00000000       0.007
   0.03772068  0.00000000  0.00000000       0.007
   0.04149274  0.00000000  0.00000000       0.007
   0.04526481  0.00000000  0.00000000       0.007
   0.04903688  0.00000000  0.00000000       0.007
   0.05280895  0.00000000  0.00000000       0.007
   0.05658101  0.00000000  0.00000000       0.007
   0.06035308  0.00000000  0.00000000       0.007
   0.06412515  0.00000000  0.00000000       0.007
   0.06789722  0.00000000  0.00000000       0.007
   0.07166928  0.00000000  0.00000000       0.007
   0.07544135  0.00000000  0.00000000       0.007
   0.07921342  0.00000000  0.00000000       0.007
   0.08298549  0.00000000  0.00000000       0.007
   0.08675755  0.00000000  0.00000000       0.007
   0.09052962  0.00000000  0.00000000       0.007
   0.09430169  0.00000000  0.00000000       0.007
   0.09807376  0.00000000  0.00000000       0.007
   0.10184582  0.00000000  0.00000000       0.007
   0.10561789  0.00000000  0.00000000       0.007
   0.10938996  0.00000000  0.00000000       0.007
   0.11316203  0.00000000  0.00000000       0.007
   0.11693409  0.00000000  0.00000000       0.007
   0.12070616  0.00000000  0.00000000       0.007
   0.12447823  0.00000000  0.00000000       0.007
   0.12825030  0.00000000  0.00000000       0.007
   0.13202236  0.00000000  0.00000000       0.007
   0.13579443  0.00000000  0.00000000       0.007
   0.13956650  0.00000000  0.00000000       0.007
   0.14333857  0.00000000  0.00000000       0.007
   0.14711063  0.00000000  0.00000000       0.007
   0.15088270  0.00000000  0.00000000       0.007
   0.15465477  0.00000000  0.00000000       0.007
   0.15842684  0.00000000  0.00000000       0.007
   0.16219890  0.00000000  0.00000000       0.007
   0.16597097  0.00000000  0.00000000       0.007
   0.16974304  0.00000000  0.00000000       0.007
   0.17351511  0.00000000  0.00000000       0.007
   0.17728717  0.00000000  0.00000000       0.007
   0.18105924  0.00000000  0.00000000       0.007
   0.18483131  0.00000000  0.00000000       0.007
   0.18483131  0.00000000  0.00000000       0.007
   0.18294527  0.00326671  0.00000000       0.007
   0.18105924  0.00653341  0.00000000       0.007
   0.17917321  0.00980012  0.00000000       0.007
   0.17728717  0.01306683  0.00000000       0.007
   0.17540114  0.01633353  0.00000000       0.007
   0.17351511  0.01960024  0.00000000       0.007
   0.17162907  0.02286694  0.00000000       0.007
   0.16974304  0.02613365  0.00000000       0.007
   0.16785700  0.02940036  0.00000000       0.007
   0.16597097  0.03266706  0.00000000       0.007
   0.16408494  0.03593377  0.00000000       0.007
   0.16219890  0.03920048  0.00000000       0.007
   0.16031287  0.04246718  0.00000000       0.007
   0.15842684  0.04573389  0.00000000       0.007
   0.15654080  0.04900059  0.00000000       0.007
   0.15465477  0.05226730  0.00000000       0.007
   0.15276873  0.05553401  0.00000000       0.007
   0.15088270  0.05880071  0.00000000       0.007
   0.14899667  0.06206742  0.00000000       0.007
   0.14711063  0.06533413  0.00000000       0.007
   0.14522460  0.06860083  0.00000000       0.007
   0.14333857  0.07186754  0.00000000       0.007
   0.14145253  0.07513424  0.00000000       0.007
   0.13956650  0.07840095  0.00000000       0.007
   0.13768046  0.08166766  0.00000000       0.007
   0.13579443  0.08493436  0.00000000       0.007
   0.13390840  0.08820107  0.00000000       0.007
   0.13202236  0.09146778  0.00000000       0.007
   0.13013633  0.09473448  0.00000000       0.007
   0.12825030  0.09800119  0.00000000       0.007
   0.12636426  0.10126790  0.00000000       0.007
   0.12447823  0.10453460  0.00000000       0.007
   0.12259219  0.10780131  0.00000000       0.007
   0.12070616  0.11106801  0.00000000       0.007
   0.11882013  0.11433472  0.00000000       0.007
   0.11693409  0.11760143  0.00000000       0.007
   0.11504806  0.12086813  0.00000000       0.007
   0.11316203  0.12413484  0.00000000       0.007
   0.11127599  0.12740155  0.00000000       0.007
   0.10938996  0.13066825  0.00000000       0.007
   0.10750392  0.13393496  0.00000000       0.007
   0.10561789  0.13720166  0.00000000       0.007
   0.10373186  0.14046837  0.00000000       0.007
   0.10184582  0.14373508  0.00000000       0.007
   0.09995979  0.14700178  0.00000000       0.007
   0.09807376  0.15026849  0.00000000       0.007
   0.09618772  0.15353520  0.00000000       0.007
   0.09430169  0.15680190  0.00000000       0.007
   0.09241565  0.16006861  0.00000000       0.007
   0.09241565  0.16006861  0.00000000       0.007
   0.09052962  0.15680190  0.00000000       0.007
   0.08864359  0.15353520  0.00000000       0.007
   0.08675755  0.15026849  0.00000000       0.007
   0.08487152  0.14700178  0.00000000       0.007
   0.08298549  0.14373508  0.00000000       0.007
   0.08109945  0.14046837  0.00000000       0.007
   0.07921342  0.13720166  0.00000000       0.007
   0.07732738  0.13393496  0.00000000       0.007
   0.07544135  0.13066825  0.00000000       0.007
   0.07355532  0.12740155  0.00000000       0.007
   0.07166928  0.12413484  0.00000000       0.007
   0.06978325  0.12086813  0.00000000       0.007
   0.06789722  0.11760143  0.00000000       0.007
   0.06601118  0.11433472  0.00000000       0.007
   0.06412515  0.11106801  0.00000000       0.007
   0.06223911  0.10780131  0.00000000       0.007
   0.06035308  0.10453460  0.00000000       0.007
   0.05846705  0.10126790  0.00000000       0.007
   0.05658101  0.09800119  0.00000000       0.007
   0.05469498  0.09473448  0.00000000       0.007
   0.05280895  0.09146778  0.00000000       0.007
   0.05092291  0.08820107  0.00000000       0.007
   0.04903688  0.08493436  0.00000000       0.007
   0.04715084  0.08166766  0.00000000       0.007
   0.04526481  0.07840095  0.00000000       0.007
   0.04337878  0.07513424  0.00000000       0.007
   0.04149274  0.07186754  0.00000000       0.007
   0.03960671  0.06860083  0.00000000       0.007
   0.03772068  0.06533413  0.00000000       0.007
   0.03583464  0.06206742  0.00000000       0.007
   0.03394861  0.05880071  0.00000000       0.007
   0.03206257  0.05553401  0.00000000       0.007
   0.03017654  0.05226730  0.00000000       0.007
   0.02829051  0.04900059  0.00000000       0.007
   0.02640447  0.04573389  0.00000000       0.007
   0.02451844  0.04246718  0.00000000       0.007
   0.02263241  0.03920048  0.00000000       0.007
   0.02074637  0.03593377  0.00000000       0.007
   0.01886034  0.03266706  0.00000000       0.007
   0.01697430  0.02940036  0.00000000       0.007
   0.01508827  0.02613365  0.00000000       0.007
   0.01320224  0.02286694  0.00000000       0.007
   0.01131620  0.01960024  0.00000000       0.007
   0.00943017  0.01633353  0.00000000       0.007
   0.00754414  0.01306683  0.00000000       0.007
   0.00565810  0.00980012  0.00000000       0.007
   0.00377207  0.00653341  0.00000000       0.007
   0.00188603  0.00326671  0.00000000       0.007
   0.00000000  0.00000000  0.00000000       0.007
 
 k-points in reciprocal lattice and weights: kpoints along symmetry lines            
   0.00000000  0.00000000  0.00000000       0.007
   0.01360544 -0.00680272  0.00000000       0.007
   0.02721088 -0.01360544  0.00000000       0.007
   0.04081633 -0.02040816  0.00000000       0.007
   0.05442177 -0.02721088  0.00000000       0.007
   0.06802721 -0.03401361  0.00000000       0.007
   0.08163265 -0.04081633  0.00000000       0.007
   0.09523810 -0.04761905  0.00000000       0.007
   0.10884354 -0.05442177  0.00000000       0.007
   0.12244898 -0.06122449  0.00000000       0.007
   0.13605442 -0.06802721  0.00000000       0.007
   0.14965986 -0.07482993  0.00000000       0.007
   0.16326531 -0.08163265  0.00000000       0.007
   0.17687075 -0.08843537  0.00000000       0.007
   0.19047619 -0.09523810  0.00000000       0.007
   0.20408163 -0.10204082  0.00000000       0.007
   0.21768707 -0.10884354  0.00000000       0.007
   0.23129252 -0.11564626  0.00000000       0.007
   0.24489796 -0.12244898  0.00000000       0.007
   0.25850340 -0.12925170  0.00000000       0.007
   0.27210884 -0.13605442  0.00000000       0.007
   0.28571429 -0.14285714  0.00000000       0.007
   0.29931973 -0.14965986  0.00000000       0.007
   0.31292517 -0.15646259  0.00000000       0.007
   0.32653061 -0.16326531  0.00000000       0.007
   0.34013605 -0.17006803  0.00000000       0.007
   0.35374150 -0.17687075  0.00000000       0.007
   0.36734694 -0.18367347  0.00000000       0.007
   0.38095238 -0.19047619  0.00000000       0.007
   0.39455782 -0.19727891  0.00000000       0.007
   0.40816327 -0.20408163  0.00000000       0.007
   0.42176871 -0.21088435  0.00000000       0.007
   0.43537415 -0.21768707  0.00000000       0.007
   0.44897959 -0.22448980  0.00000000       0.007
   0.46258503 -0.23129252  0.00000000       0.007
   0.47619048 -0.23809524  0.00000000       0.007
   0.48979592 -0.24489796  0.00000000       0.007
   0.50340136 -0.25170068  0.00000000       0.007
   0.51700680 -0.25850340  0.00000000       0.007
   0.53061224 -0.26530612  0.00000000       0.007
   0.54421769 -0.27210884  0.00000000       0.007
   0.55782313 -0.27891156  0.00000000       0.007
   0.57142857 -0.28571429  0.00000000       0.007
   0.58503401 -0.29251701  0.00000000       0.007
   0.59863946 -0.29931973  0.00000000       0.007
   0.61224490 -0.30612245  0.00000000       0.007
   0.62585034 -0.31292517  0.00000000       0.007
   0.63945578 -0.31972789  0.00000000       0.007
   0.65306122 -0.32653061  0.00000000       0.007
   0.66666667 -0.33333333  0.00000000       0.007
   0.66666667 -0.33333333  0.00000000       0.007
   0.65986395 -0.31972789  0.00000000       0.007
   0.65306122 -0.30612245  0.00000000       0.007
   0.64625850 -0.29251701  0.00000000       0.007
   0.63945578 -0.27891156  0.00000000       0.007
   0.63265306 -0.26530612  0.00000000       0.007
   0.62585034 -0.25170068  0.00000000       0.007
   0.61904762 -0.23809524  0.00000000       0.007
   0.61224490 -0.22448980  0.00000000       0.007
   0.60544218 -0.21088435  0.00000000       0.007
   0.59863946 -0.19727891  0.00000000       0.007
   0.59183673 -0.18367347  0.00000000       0.007
   0.58503401 -0.17006803  0.00000000       0.007
   0.57823129 -0.15646259  0.00000000       0.007
   0.57142857 -0.14285714  0.00000000       0.007
   0.56462585 -0.12925170  0.00000000       0.007
   0.55782313 -0.11564626  0.00000000       0.007
   0.55102041 -0.10204082  0.00000000       0.007
   0.54421769 -0.08843537  0.00000000       0.007
   0.53741497 -0.07482993  0.00000000       0.007
   0.53061224 -0.06122449  0.00000000       0.007
   0.52380952 -0.04761905  0.00000000       0.007
   0.51700680 -0.03401361  0.00000000       0.007
   0.51020408 -0.02040816  0.00000000       0.007
   0.50340136 -0.00680272  0.00000000       0.007
   0.49659864  0.00680272  0.00000000       0.007
   0.48979592  0.02040816  0.00000000       0.007
   0.48299320  0.03401361  0.00000000       0.007
   0.47619048  0.04761905  0.00000000       0.007
   0.46938776  0.06122449  0.00000000       0.007
   0.46258503  0.07482993  0.00000000       0.007
   0.45578231  0.08843537  0.00000000       0.007
   0.44897959  0.10204082  0.00000000       0.007
   0.44217687  0.11564626  0.00000000       0.007
   0.43537415  0.12925170  0.00000000       0.007
   0.42857143  0.14285714  0.00000000       0.007
   0.42176871  0.15646259  0.00000000       0.007
   0.41496599  0.17006803  0.00000000       0.007
   0.40816327  0.18367347  0.00000000       0.007
   0.40136054  0.19727891  0.00000000       0.007
   0.39455782  0.21088435  0.00000000       0.007
   0.38775510  0.22448980  0.00000000       0.007
   0.38095238  0.23809524  0.00000000       0.007
   0.37414966  0.25170068  0.00000000       0.007
   0.36734694  0.26530612  0.00000000       0.007
   0.36054422  0.27891156  0.00000000       0.007
   0.35374150  0.29251701  0.00000000       0.007
   0.34693878  0.30612245  0.00000000       0.007
   0.34013605  0.31972789  0.00000000       0.007
   0.33333333  0.33333333  0.00000000       0.007
   0.33333333  0.33333333  0.00000000       0.007
   0.32653061  0.32653061  0.00000000       0.007
   0.31972789  0.31972789  0.00000000       0.007
   0.31292517  0.31292517  0.00000000       0.007
   0.30612245  0.30612245  0.00000000       0.007
   0.29931973  0.29931973  0.00000000       0.007
   0.29251701  0.29251701  0.00000000       0.007
   0.28571429  0.28571429  0.00000000       0.007
   0.27891156  0.27891156  0.00000000       0.007
   0.27210884  0.27210884  0.00000000       0.007
   0.26530612  0.26530612  0.00000000       0.007
   0.25850340  0.25850340  0.00000000       0.007
   0.25170068  0.25170068  0.00000000       0.007
   0.24489796  0.24489796  0.00000000       0.007
   0.23809524  0.23809524  0.00000000       0.007
   0.23129252  0.23129252  0.00000000       0.007
   0.22448980  0.22448980  0.00000000       0.007
   0.21768707  0.21768707  0.00000000       0.007
   0.21088435  0.21088435  0.00000000       0.007
   0.20408163  0.20408163  0.00000000       0.007
   0.19727891  0.19727891  0.00000000       0.007
   0.19047619  0.19047619  0.00000000       0.007
   0.18367347  0.18367347  0.00000000       0.007
   0.17687075  0.17687075  0.00000000       0.007
   0.17006803  0.17006803  0.00000000       0.007
   0.16326531  0.16326531  0.00000000       0.007
   0.15646259  0.15646259  0.00000000       0.007
   0.14965986  0.14965986  0.00000000       0.007
   0.14285714  0.14285714  0.00000000       0.007
   0.13605442  0.13605442  0.00000000       0.007
   0.12925170  0.12925170  0.00000000       0.007
   0.12244898  0.12244898  0.00000000       0.007
   0.11564626  0.11564626  0.00000000       0.007
   0.10884354  0.10884354  0.00000000       0.007
   0.10204082  0.10204082  0.00000000       0.007
   0.09523810  0.09523810  0.00000000       0.007
   0.08843537  0.08843537  0.00000000       0.007
   0.08163265  0.08163265  0.00000000       0.007
   0.07482993  0.07482993  0.00000000       0.007
   0.06802721  0.06802721  0.00000000       0.007
   0.06122449  0.06122449  0.00000000       0.007
   0.05442177  0.05442177  0.00000000       0.007
   0.04761905  0.04761905  0.00000000       0.007
   0.04081633  0.04081633  0.00000000       0.007
   0.03401361  0.03401361  0.00000000       0.007
   0.02721088  0.02721088  0.00000000       0.007
   0.02040816  0.02040816  0.00000000       0.007
   0.01360544  0.01360544  0.00000000       0.007
   0.00680272  0.00680272  0.00000000       0.007
   0.00000000  0.00000000  0.00000000       0.007
 
 position of ions in fractional coordinates (direct lattice) 
   0.66666667  0.33333333  0.45634314
   0.33333333  0.66666667  0.54365686
 
 position of ions in cartesian coordinates  (Angst):
   1.80344627  1.04122019  7.30149017
   0.00000000  2.08244038  8.69850983
 


--------------------------------------------------------------------------------------------------------


 k-point   1 :   0.0000 0.0000 0.0000  plane waves:    1485
 k-point   2 :   0.0136-0.0068 0.0000  plane waves:    1485
 k-point   3 :   0.0272-0.0136 0.0000  plane waves:    1483
 k-point   4 :   0.0408-0.0204 0.0000  plane waves:    1489
 k-point   5 :   0.0544-0.0272 0.0000  plane waves:    1493
 k-point   6 :   0.0680-0.0340 0.0000  plane waves:    1489
 k-point   7 :   0.0816-0.0408 0.0000  plane waves:    1485
 k-point   8 :   0.0952-0.0476 0.0000  plane waves:    1489
 k-point   9 :   0.1088-0.0544 0.0000  plane waves:    1491
 k-point  10 :   0.1224-0.0612 0.0000  plane waves:    1495
 k-point  11 :   0.1361-0.0680 0.0000  plane waves:    1495
 k-point  12 :   0.1497-0.0748 0.0000  plane waves:    1499
 k-point  13 :   0.1633-0.0816 0.0000  plane waves:    1503
 k-point  14 :   0.1769-0.0884 0.0000  plane waves:    1499
 k-point  15 :   0.1905-0.0952 0.0000  plane waves:    1499
 k-point  16 :   0.2041-0.1020 0.0000  plane waves:    1507
 k-point  17 :   0.2177-0.1088 0.0000  plane waves:    1503
 k-point  18 :   0.2313-0.1156 0.0000  plane waves:    1497
 k-point  19 :   0.2449-0.1224 0.0000  plane waves:    1499
 k-point  20 :   0.2585-0.1293 0.0000  plane waves:    1495
 k-point  21 :   0.2721-0.1361 0.0000  plane waves:    1491
 k-point  22 :   0.2857-0.1429 0.0000  plane waves:    1491
 k-point  23 :   0.2993-0.1497 0.0000  plane waves:    1497
 k-point  24 :   0.3129-0.1565 0.0000  plane waves:    1493
 k-point  25 :   0.3265-0.1633 0.0000  plane waves:    1493
 k-point  26 :   0.3401-0.1701 0.0000  plane waves:    1489
 k-point  27 :   0.3537-0.1769 0.0000  plane waves:    1477
 k-point  28 :   0.3673-0.1837 0.0000  plane waves:    1477
 k-point  29 :   0.3810-0.1905 0.0000  plane waves:    1479
 k-point  30 :   0.3946-0.1973 0.0000  plane waves:    1475
 k-point  31 :   0.4082-0.2041 0.0000  plane waves:    1477
 k-point  32 :   0.4218-0.2109 0.0000  plane waves:    1475
 k-point  33 :   0.4354-0.2177 0.0000  plane waves:    1471
 k-point  34 :   0.4490-0.2245 0.0000  plane waves:    1467
 k-point  35 :   0.4626-0.2313 0.0000  plane waves:    1459
 k-point  36 :   0.4762-0.2381 0.0000  plane waves:    1459
 k-point  37 :   0.4898-0.2449 0.0000  plane waves:    1457
 k-point  38 :   0.5034-0.2517 0.0000  plane waves:    1451
 k-point  39 :   0.5170-0.2585 0.0000  plane waves:    1450
 k-point  40 :   0.5306-0.2653 0.0000  plane waves:    1446
 k-point  41 :   0.5442-0.2721 0.0000  plane waves:    1452
 k-point  42 :   0.5578-0.2789 0.0000  plane waves:    1448
 k-point  43 :   0.5714-0.2857 0.0000  plane waves:    1448
 k-point  44 :   0.5850-0.2925 0.0000  plane waves:    1462
 k-point  45 :   0.5986-0.2993 0.0000  plane waves:    1474
 k-point  46 :   0.6122-0.3061 0.0000  plane waves:    1476
 k-point  47 :   0.6259-0.3129 0.0000  plane waves:    1476
 k-point  48 :   0.6395-0.3197 0.0000  plane waves:    1472
 k-point  49 :   0.6531-0.3265 0.0000  plane waves:    1464
 k-point  50 :   0.6667-0.3333 0.0000  plane waves:    1464
 k-point  51 :   0.6667-0.3333 0.0000  plane waves:    1464
 k-point  52 :   0.6599-0.3197 0.0000  plane waves:    1468
 k-point  53 :   0.6531-0.3061 0.0000  plane waves:    1468
 k-point  54 :   0.6463-0.2925 0.0000  plane waves:    1474
 k-point  55 :   0.6395-0.2789 0.0000  plane waves:    1470
 k-point  56 :   0.6327-0.2653 0.0000  plane waves:    1470
 k-point  57 :   0.6259-0.2517 0.0000  plane waves:    1466
 k-point  58 :   0.6190-0.2381 0.0000  plane waves:    1462
 k-point  59 :   0.6122-0.2245 0.0000  plane waves:    1458
 k-point  60 :   0.6054-0.2109 0.0000  plane waves:    1460
 k-point  61 :   0.5986-0.1973 0.0000  plane waves:    1452
 k-point  62 :   0.5918-0.1837 0.0000  plane waves:    1452
 k-point  63 :   0.5850-0.1701 0.0000  plane waves:    1456
 k-point  64 :   0.5782-0.1565 0.0000  plane waves:    1458
 k-point  65 :   0.5714-0.1429 0.0000  plane waves:    1458
 k-point  66 :   0.5646-0.1293 0.0000  plane waves:    1458
 k-point  67 :   0.5578-0.1156 0.0000  plane waves:    1444
 k-point  68 :   0.5510-0.1020 0.0000  plane waves:    1448
 k-point  69 :   0.5442-0.0884 0.0000  plane waves:    1452
 k-point  70 :   0.5374-0.0748 0.0000  plane waves:    1452
 k-point  71 :   0.5306-0.0612 0.0000  plane waves:    1456
 k-point  72 :   0.5238-0.0476 0.0000  plane waves:    1452
 k-point  73 :   0.5170-0.0340 0.0000  plane waves:    1452
 k-point  74 :   0.5102-0.0204 0.0000  plane waves:    1446
 k-point  75 :   0.5034-0.0068 0.0000  plane waves:    1438
 k-point  76 :   0.4966 0.0068 0.0000  plane waves:    1438
 k-point  77 :   0.4898 0.0204 0.0000  plane waves:    1446
 k-point  78 :   0.4830 0.0340 0.0000  plane waves:    1452
 k-point  79 :   0.4762 0.0476 0.0000  plane waves:    1452
 k-point  80 :   0.4694 0.0612 0.0000  plane waves:    1456
 k-point  81 :   0.4626 0.0748 0.0000  plane waves:    1452
 k-point  82 :   0.4558 0.0884 0.0000  plane waves:    1452
 k-point  83 :   0.4490 0.1020 0.0000  plane waves:    1448
 k-point  84 :   0.4422 0.1156 0.0000  plane waves:    1444
 k-point  85 :   0.4354 0.1293 0.0000  plane waves:    1458
 k-point  86 :   0.4286 0.1429 0.0000  plane waves:    1458
 k-point  87 :   0.4218 0.1565 0.0000  plane waves:    1458
 k-point  88 :   0.4150 0.1701 0.0000  plane waves:    1456
 k-point  89 :   0.4082 0.1837 0.0000  plane waves:    1452
 k-point  90 :   0.4014 0.1973 0.0000  plane waves:    1452
 k-point  91 :   0.3946 0.2109 0.0000  plane waves:    1460
 k-point  92 :   0.3878 0.2245 0.0000  plane waves:    1458
 k-point  93 :   0.3810 0.2381 0.0000  plane waves:    1462
 k-point  94 :   0.3741 0.2517 0.0000  plane waves:    1466
 k-point  95 :   0.3673 0.2653 0.0000  plane waves:    1470
 k-point  96 :   0.3605 0.2789 0.0000  plane waves:    1470
 k-point  97 :   0.3537 0.2925 0.0000  plane waves:    1474
 k-point  98 :   0.3469 0.3061 0.0000  plane waves:    1468
 k-point  99 :   0.3401 0.3197 0.0000  plane waves:    1468
 k-point 100 :   0.3333 0.3333 0.0000  plane waves:    1464
 k-point 101 :   0.3333 0.3333 0.0000  plane waves:    1464
 k-point 102 :   0.3265 0.3265 0.0000  plane waves:    1464
 k-point 103 :   0.3197 0.3197 0.0000  plane waves:    1472
 k-point 104 :   0.3129 0.3129 0.0000  plane waves:    1476
 k-point 105 :   0.3061 0.3061 0.0000  plane waves:    1476
 k-point 106 :   0.2993 0.2993 0.0000  plane waves:    1474
 k-point 107 :   0.2925 0.2925 0.0000  plane waves:    1462
 k-point 108 :   0.2857 0.2857 0.0000  plane waves:    1448
 k-point 109 :   0.2789 0.2789 0.0000  plane waves:    1448
 k-point 110 :   0.2721 0.2721 0.0000  plane waves:    1452
 k-point 111 :   0.2653 0.2653 0.0000  plane waves:    1446
 k-point 112 :   0.2585 0.2585 0.0000  plane waves:    1450
 k-point 113 :   0.2517 0.2517 0.0000  plane waves:    1451
 k-point 114 :   0.2449 0.2449 0.0000  plane waves:    1457
 k-point 115 :   0.2381 0.2381 0.0000  plane waves:    1459
 k-point 116 :   0.2313 0.2313 0.0000  plane waves:    1459
 k-point 117 :   0.2245 0.2245 0.0000  plane waves:    1467
 k-point 118 :   0.2177 0.2177 0.0000  plane waves:    1471
 k-point 119 :   0.2109 0.2109 0.0000  plane waves:    1475
 k-point 120 :   0.2041 0.2041 0.0000  plane waves:    1477
 k-point 121 :   0.1973 0.1973 0.0000  plane waves:    1475
 k-point 122 :   0.1905 0.1905 0.0000  plane waves:    1479
 k-point 123 :   0.1837 0.1837 0.0000  plane waves:    1477
 k-point 124 :   0.1769 0.1769 0.0000  plane waves:    1477
 k-point 125 :   0.1701 0.1701 0.0000  plane waves:    1489
 k-point 126 :   0.1633 0.1633 0.0000  plane waves:    1493
 k-point 127 :   0.1565 0.1565 0.0000  plane waves:    1493
 k-point 128 :   0.1497 0.1497 0.0000  plane waves:    1497
 k-point 129 :   0.1429 0.1429 0.0000  plane waves:    1491
 k-point 130 :   0.1361 0.1361 0.0000  plane waves:    1491
 k-point 131 :   0.1293 0.1293 0.0000  plane waves:    1495
 k-point 132 :   0.1224 0.1224 0.0000  plane waves:    1499
 k-point 133 :   0.1156 0.1156 0.0000  plane waves:    1497
 k-point 134 :   0.1088 0.1088 0.0000  plane waves:    1503
 k-point 135 :   0.1020 0.1020 0.0000  plane waves:    1507
 k-point 136 :   0.0952 0.0952 0.0000  plane waves:    1499
 k-point 137 :   0.0884 0.0884 0.0000  plane waves:    1499
 k-point 138 :   0.0816 0.0816 0.0000  plane waves:    1503
 k-point 139 :   0.0748 0.0748 0.0000  plane waves:    1499
 k-point 140 :   0.0680 0.0680 0.0000  plane waves:    1495
 k-point 141 :   0.0612 0.0612 0.0000  plane waves:    1495
 k-point 142 :   0.0544 0.0544 0.0000  plane waves:    1491
 k-point 143 :   0.0476 0.0476 0.0000  plane waves:    1489
 k-point 144 :   0.0408 0.0408 0.0000  plane waves:    1485
 k-point 145 :   0.0340 0.0340 0.0000  plane waves:    1489
 k-point 146 :   0.0272 0.0272 0.0000  plane waves:    1493
 k-point 147 :   0.0204 0.0204 0.0000  plane waves:    1489
 k-point 148 :   0.0136 0.0136 0.0000  plane waves:    1483
 k-point 149 :   0.0068 0.0068 0.0000  plane waves:    1485
 k-point 150 :   0.0000 0.0000 0.0000  plane waves:    1485

 maximum and minimum number of plane-waves per node :       381      355

 maximum number of plane-waves:      1507
 maximum index in each direction: 
   IXMAX=    4   IYMAX=    4   IZMAX=   19
   IXMIN=   -5   IYMIN=   -4   IZMIN=  -19


 parallel 3D FFT for wavefunctions:
    minimum data exchange during FFTs selected (reduces bandwidth)
 parallel 3D FFT for charge:
    minimum data exchange during FFTs selected (reduces bandwidth)


 total amount of memory used by VASP MPI-rank0    43094. kBytes
=======================================================================

   base      :      30000. kBytes
   nonl-proj :       5877. kBytes
   fftplans  :       2321. kBytes
   grid      :       1125. kBytes
   one-center:          8. kBytes
   wavefun   :       3763. kBytes
 
     INWAV:  cpu time      0.0001: real time      0.0005
 initial charge density was supplied:
 number of electron       9.9999999 magnetization 
 keeping initial charge density in first step


--------------------------------------------------------------------------------------------------------


 Maximum index for augmentation-charges         3084 (set IRDMAX)


--------------------------------------------------------------------------------------------------------


 First call to EWALD:  gamma=   0.314
 Maximum number of real-space cells 5x 5x 1
 Maximum number of reciprocal cells 2x 2x 7

    FEWALD:  cpu time      0.0016: real time      0.0016


--------------------------------------- Ionic step        1  -------------------------------------------




--------------------------------------- Iteration      1(   1)  ---------------------------------------


    POTLOK:  cpu time      0.0143: real time      0.1133
    SETDIJ:  cpu time      0.2650: real time      0.2652
     EDDAV:  cpu time      1.3199: real time      1.3211
       DOS:  cpu time      0.0043: real time      0.0042
    --------------------------------------------
      LOOP:  cpu time      1.6036: real time      1.7038

 eigenvalue-minimisations  :  4840
 total energy-change (2. order) : 0.2968135E+02  (-0.2078465E+03)
 number of electron       9.9999999 magnetization 
 augmentation part        9.9999999 magnetization 

 Free energy of the ion-electron system (eV)
  ---------------------------------------------------
  alpha Z        PSCENC =         5.26383816
  Ewald energy   TEWEN  =       378.22030483
  -Hartree energ DENC   =      -670.07988326
  -exchange      EXHF   =         0.00000000
  -V(xc)+E(xc)   XCENC  =       -23.49315673
  PAW double counting   =       332.29420147     -289.56758992
  entropy T*S    EENTRO =        -0.00001130
  eigenvalues    EBANDS =       -43.32029253
  atomic energy  EATOM  =       340.36393574
  Solvation  Ediel_sol  =         0.00000000
  ---------------------------------------------------
  free energy    TOTEN  =        29.68134646 eV

  energy without entropy =       29.68135776  energy(sigma->0) =       29.68135211


--------------------------------------------------------------------------------------------------------




--------------------------------------- Iteration      1(   2)  ---------------------------------------


     EDDAV:  cpu time      1.7422: real time      1.7439
       DOS:  cpu time      0.0036: real time      0.0036
    --------------------------------------------
      LOOP:  cpu time      1.7458: real time      1.7475

 eigenvalue-minimisations  :  6904
 total energy-change (2. order) :-0.3580289E+02  (-0.3374570E+02)
 number of electron       9.9999999 magnetization 
 augmentation part        9.9999999 magnetization 

 Free energy of the ion-electron system (eV)
  ---------------------------------------------------
  alpha Z        PSCENC =         5.26383816
  Ewald energy   TEWEN  =       378.22030483
  -Hartree energ DENC   =      -670.07988326
  -exchange      EXHF   =         0.00000000
  -V(xc)+E(xc)   XCENC  =       -23.49315673
  PAW double counting   =       332.29420147     -289.56758992
  entropy T*S    EENTRO =        -0.00000000
  eigenvalues    EBANDS =       -79.12319776
  atomic energy  EATOM  =       340.36393574
  Solvation  Ediel_sol  =         0.00000000
  ---------------------------------------------------
  free energy    TOTEN  =        -6.12154746 eV

  energy without entropy =       -6.12154746  energy(sigma->0) =       -6.12154746


--------------------------------------------------------------------------------------------------------




--------------------------------------- Iteration      1(   3)  ---------------------------------------


     EDDAV:  cpu time      1.5946: real time      1.5963
       DOS:  cpu time      0.0036: real time      0.0036
    --------------------------------------------
      LOOP:  cpu time      1.5982: real time      1.5999

 eigenvalue-minimisations  :  6160
 total energy-change (2. order) :-0.3013894E+01  (-0.3005732E+01)
 number of electron       9.9999999 magnetization 
 augmentation part        9.9999999 magnetization 

 Free energy of the ion-electron system (eV)
  ---------------------------------------------------
  alpha Z        PSCENC =         5.26383816
  Ewald energy   TEWEN  =       378.22030483
  -Hartree energ DENC   =      -670.07988326
  -exchange      EXHF   =         0.00000000
  -V(xc)+E(xc)   XCENC  =       -23.49315673
  PAW double counting   =       332.29420147     -289.56758992
  entropy T*S    EENTRO =        -0.00000000
  eigenvalues    EBANDS =       -82.13709203
  atomic energy  EATOM  =       340.36393574
  Solvation  Ediel_sol  =         0.00000000
  ---------------------------------------------------
  free energy    TOTEN  =        -9.13544173 eV

  energy without entropy =       -9.13544173  energy(sigma->0) =       -9.13544173


--------------------------------------------------------------------------------------------------------




--------------------------------------- Iteration      1(   4)  ---------------------------------------


     EDDAV:  cpu time      1.9526: real time      1.9550
       DOS:  cpu time      0.0036: real time      0.0036
    --------------------------------------------
      LOOP:  cpu time      1.9562: real time      1.9587

 eigenvalue-minimisations  :  7632
 total energy-change (2. order) :-0.1947050E+00  (-0.1946932E+00)
 number of electron       9.9999999 magnetization 
 augmentation part        9.9999999 magnetization 

 Free energy of the ion-electron system (eV)
  ---------------------------------------------------
  alpha Z        PSCENC =         5.26383816
  Ewald energy   TEWEN  =       378.22030483
  -Hartree energ DENC   =      -670.07988326
  -exchange      EXHF   =         0.00000000
  -V(xc)+E(xc)   XCENC  =       -23.49315673
  PAW double counting   =       332.29420147     -289.56758992
  entropy T*S    EENTRO =        -0.00000000
  eigenvalues    EBANDS =       -82.33179705
  atomic energy  EATOM  =       340.36393574
  Solvation  Ediel_sol  =         0.00000000
  ---------------------------------------------------
  free energy    TOTEN  =        -9.33014676 eV

  energy without entropy =       -9.33014676  energy(sigma->0) =       -9.33014676


--------------------------------------------------------------------------------------------------------




--------------------------------------- Iteration      1(   5)  ---------------------------------------


     EDDAV:  cpu time      1.6827: real time      1.6848
       DOS:  cpu time      0.0037: real time      0.0037
    --------------------------------------------
      LOOP:  cpu time      1.6864: real time      1.6885

 eigenvalue-minimisations  :  6504
 total energy-change (2. order) :-0.1828905E-02  (-0.1828888E-02)
 number of electron       9.9999999 magnetization 
 augmentation part        9.9999999 magnetization 

 Free energy of the ion-electron system (eV)
  ---------------------------------------------------
  alpha Z        PSCENC =         5.26383816
  Ewald energy   TEWEN  =       378.22030483
  -Hartree energ DENC   =      -670.07988326
  -exchange      EXHF   =         0.00000000
  -V(xc)+E(xc)   XCENC  =       -23.49315673
  PAW double counting   =       332.29420147     -289.56758992
  entropy T*S    EENTRO =        -0.00000000
  eigenvalues    EBANDS =       -82.33362595
  atomic energy  EATOM  =       340.36393574
  Solvation  Ediel_sol  =         0.00000000
  ---------------------------------------------------
  free energy    TOTEN  =        -9.33197566 eV

  energy without entropy =       -9.33197566  energy(sigma->0) =       -9.33197566


--------------------------------------------------------------------------------------------------------




--------------------------------------- Iteration      1(   6)  ---------------------------------------


     EDDAV:  cpu time      1.7962: real time      1.7980
       DOS:  cpu time      0.0034: real time      0.0034
    --------------------------------------------
      LOOP:  cpu time      1.7996: real time      1.8014

 eigenvalue-minimisations  :  7616
 total energy-change (2. order) :-0.7745302E-04  (-0.7745304E-04)
 number of electron       9.9999999 magnetization 
 augmentation part        9.9999999 magnetization 

 Free energy of the ion-electron system (eV)
  ---------------------------------------------------
  alpha Z        PSCENC =         5.26383816
  Ewald energy   TEWEN  =       378.22030483
  -Hartree energ DENC   =      -670.07988326
  -exchange      EXHF   =         0.00000000
  -V(xc)+E(xc)   XCENC  =       -23.49315673
  PAW double counting   =       332.29420147     -289.56758992
  entropy T*S    EENTRO =        -0.00000000
  eigenvalues    EBANDS =       -82.33370341
  atomic energy  EATOM  =       340.36393574
  Solvation  Ediel_sol  =         0.00000000
  ---------------------------------------------------
  free energy    TOTEN  =        -9.33205311 eV

  energy without entropy =       -9.33205311  energy(sigma->0) =       -9.33205311


--------------------------------------------------------------------------------------------------------




--------------------------------------- Iteration      1(   7)  ---------------------------------------


     EDDAV:  cpu time      1.5444: real time      1.5464
       DOS:  cpu time      0.0037: real time      0.0037
    --------------------------------------------
      LOOP:  cpu time      1.5481: real time      1.5501

 eigenvalue-minimisations  :  6520
 total energy-change (2. order) :-0.6328385E-06  (-0.6326921E-06)
 number of electron       9.9999999 magnetization 
 augmentation part        9.9999999 magnetization 

 Free energy of the ion-electron system (eV)
  ---------------------------------------------------
  alpha Z        PSCENC =         5.26383816
  Ewald energy   TEWEN  =       378.22030483
  -Hartree energ DENC   =      -670.07988326
  -exchange      EXHF   =         0.00000000
  -V(xc)+E(xc)   XCENC  =       -23.49315673
  PAW double counting   =       332.29420147     -289.56758992
  entropy T*S    EENTRO =        -0.00000000
  eigenvalues    EBANDS =       -82.33370404
  atomic energy  EATOM  =       340.36393574
  Solvation  Ediel_sol  =         0.00000000
  ---------------------------------------------------
  free energy    TOTEN  =        -9.33205375 eV

  energy without entropy =       -9.33205375  energy(sigma->0) =       -9.33205375


--------------------------------------------------------------------------------------------------------




--------------------------------------- Iteration      1(   8)  ---------------------------------------


     EDDAV:  cpu time      1.4913: real time      1.4930
       DOS:  cpu time      0.0037: real time      0.0037
    --------------------------------------------
      LOOP:  cpu time      1.4950: real time      1.4967

 eigenvalue-minimisations  :  5456
 total energy-change (2. order) :-0.2063075E-07  (-0.2059031E-07)
 number of electron       9.9999999 magnetization 
 augmentation part        9.9999999 magnetization 

 Free energy of the ion-electron system (eV)
  ---------------------------------------------------
  alpha Z        PSCENC =         5.26383816
  Ewald energy   TEWEN  =       378.22030483
  -Hartree energ DENC   =      -670.07988326
  -exchange      EXHF   =         0.00000000
  -V(xc)+E(xc)   XCENC  =       -23.49315673
  PAW double counting   =       332.29420147     -289.56758992
  entropy T*S    EENTRO =        -0.00000000
  eigenvalues    EBANDS =       -82.33370406
  atomic energy  EATOM  =       340.36393574
  Solvation  Ediel_sol  =         0.00000000
  ---------------------------------------------------
  free energy    TOTEN  =        -9.33205377 eV

  energy without entropy =       -9.33205377  energy(sigma->0) =       -9.33205377


--------------------------------------------------------------------------------------------------------




--------------------------------------- Iteration      1(   9)  ---------------------------------------


     EDDAV:  cpu time      1.4783: real time      1.4803
       DOS:  cpu time      0.0037: real time      0.0037
    --------------------------------------------
      LOOP:  cpu time      1.4820: real time      1.4840

 eigenvalue-minimisations  :  5024
 total energy-change (2. order) :-0.2068305E-08  (-0.2152025E-08)
 number of electron       9.9999999 magnetization 
 augmentation part        9.9999999 magnetization 

 Free energy of the ion-electron system (eV)
  ---------------------------------------------------
  alpha Z        PSCENC =         5.26383816
  Ewald energy   TEWEN  =       378.22030483
  -Hartree energ DENC   =      -670.07988326
  -exchange      EXHF   =         0.00000000
  -V(xc)+E(xc)   XCENC  =       -23.49315673
  PAW double counting   =       332.29420147     -289.56758992
  entropy T*S    EENTRO =        -0.00000000
  eigenvalues    EBANDS =       -82.33370406
  atomic energy  EATOM  =       340.36393574
  Solvation  Ediel_sol  =         0.00000000
  ---------------------------------------------------
  free energy    TOTEN  =        -9.33205377 eV

  energy without entropy =       -9.33205377  energy(sigma->0) =       -9.33205377


--------------------------------------------------------------------------------------------------------




--------------------------------------- Iteration      1(  10)  ---------------------------------------


     EDDAV:  cpu time      1.2251: real time      1.2271
       DOS:  cpu time      0.0036: real time      0.0036
    --------------------------------------------
      LOOP:  cpu time      1.2286: real time      1.2307

 eigenvalue-minimisations  :  4488
 total energy-change (2. order) :-0.7918288E-09  (-0.8373868E-09)
 number of electron       9.9999999 magnetization 
 augmentation part        9.9999999 magnetization 

 Free energy of the ion-electron system (eV)
  ---------------------------------------------------
  alpha Z        PSCENC =         5.26383816
  Ewald energy   TEWEN  =       378.22030483
  -Hartree energ DENC   =      -670.07988326
  -exchange      EXHF   =         0.00000000
  -V(xc)+E(xc)   XCENC  =       -23.49315673
  PAW double counting   =       332.29420147     -289.56758992
  entropy T*S    EENTRO =        -0.00000000
  eigenvalues    EBANDS =       -82.33370406
  atomic energy  EATOM  =       340.36393574
  Solvation  Ediel_sol  =         0.00000000
  ---------------------------------------------------
  free energy    TOTEN  =        -9.33205377 eV

  energy without entropy =       -9.33205377  energy(sigma->0) =       -9.33205377


--------------------------------------------------------------------------------------------------------




--------------------------------------- Iteration      1(  11)  ---------------------------------------


     EDDAV:  cpu time      1.1898: real time      1.1911
       DOS:  cpu time      0.0036: real time      0.0036
    --------------------------------------------
      LOOP:  cpu time      1.1934: real time      1.1946

 eigenvalue-minimisations  :  4240
 total energy-change (2. order) :-0.3819309E-09  (-0.3833243E-09)
 number of electron       9.9999999 magnetization 
 augmentation part        9.9999999 magnetization 

 Free energy of the ion-electron system (eV)
  ---------------------------------------------------
  alpha Z        PSCENC =         5.26383816
  Ewald energy   TEWEN  =       378.22030483
  -Hartree energ DENC   =      -670.07988326
  -exchange      EXHF   =         0.00000000
  -V(xc)+E(xc)   XCENC  =       -23.49315673
  PAW double counting   =       332.29420147     -289.56758992
  entropy T*S    EENTRO =        -0.00000000
  eigenvalues    EBANDS =       -82.33370406
  atomic energy  EATOM  =       340.36393574
  Solvation  Ediel_sol  =         0.00000000
  ---------------------------------------------------
  free energy    TOTEN  =        -9.33205377 eV

  energy without entropy =       -9.33205377  energy(sigma->0) =       -9.33205377


--------------------------------------------------------------------------------------------------------




--------------------------------------- Iteration      1(  12)  ---------------------------------------


     EDDAV:  cpu time      1.1202: real time      1.1214
       DOS:  cpu time      0.0034: real time      0.0034
    --------------------------------------------
      LOOP:  cpu time      1.1236: real time      1.1248

 eigenvalue-minimisations  :  4152
 total energy-change (2. order) :-0.1762146E-09  (-0.1793629E-09)
 number of electron       9.9999999 magnetization 
 augmentation part        9.9999999 magnetization 

 Free energy of the ion-electron system (eV)
  ---------------------------------------------------
  alpha Z        PSCENC =         5.26383816
  Ewald energy   TEWEN  =       378.22030483
  -Hartree energ DENC   =      -670.07988326
  -exchange      EXHF   =         0.00000000
  -V(xc)+E(xc)   XCENC  =       -23.49315673
  PAW double counting   =       332.29420147     -289.56758992
  entropy T*S    EENTRO =        -0.00000000
  eigenvalues    EBANDS =       -82.33370406
  atomic energy  EATOM  =       340.36393574
  Solvation  Ediel_sol  =         0.00000000
  ---------------------------------------------------
  free energy    TOTEN  =        -9.33205377 eV

  energy without entropy =       -9.33205377  energy(sigma->0) =       -9.33205377


--------------------------------------------------------------------------------------------------------




--------------------------------------- Iteration      1(  13)  ---------------------------------------


     EDDAV:  cpu time      1.0343: real time      1.0354
       DOS:  cpu time      0.0036: real time      0.0036
    --------------------------------------------
      LOOP:  cpu time      1.0379: real time      1.0390

 eigenvalue-minimisations  :  3888
 total energy-change (2. order) :-0.5655920E-10  (-0.8401891E-10)
 number of electron       9.9999999 magnetization 
 augmentation part        9.9999999 magnetization 

 Free energy of the ion-electron system (eV)
  ---------------------------------------------------
  alpha Z        PSCENC =         5.26383816
  Ewald energy   TEWEN  =       378.22030483
  -Hartree energ DENC   =      -670.07988326
  -exchange      EXHF   =         0.00000000
  -V(xc)+E(xc)   XCENC  =       -23.49315673
  PAW double counting   =       332.29420147     -289.56758992
  entropy T*S    EENTRO =        -0.00000000
  eigenvalues    EBANDS =       -82.33370406
  atomic energy  EATOM  =       340.36393574
  Solvation  Ediel_sol  =         0.00000000
  ---------------------------------------------------
  free energy    TOTEN  =        -9.33205377 eV

  energy without entropy =       -9.33205377  energy(sigma->0) =       -9.33205377


--------------------------------------------------------------------------------------------------------




 average (electrostatic) potential at core
  the test charge radii are     1.0621
  (the norm of the test charge is              1.0000)
       1 -57.2649       2 -57.2649
 
 
 
 E-fermi :  -2.9705     XC(G=0):  -3.2504     alpha+bet : -2.4472

 Fermi energy:        -2.9704732932

 k-point     1 :       0.0000    0.0000    0.0000
  band No.  band energies     occupation 
      1     -16.4747      2.00000
      2     -10.1870      2.00000
      3      -3.5626      2.00000
      4      -3.0130      2.00000
      5      -3.0130      2.00000
      6      -1.0922      0.00000
      7       0.4764      0.00000
      8       0.4764      0.00000
      9       1.9033      0.00000
     10       1.9965      0.00000
     11       3.3760      0.00000
     12       4.3040      0.00000
     13       5.8644      0.00000
     14       6.8851      0.00000
     15       7.0694      0.00000
     16       7.0694      0.00000

 k-point     2 :       0.0136   -0.0068    0.0000
  band No.  band energies     occupation 
      1     -16.4729      2.00000
      2     -10.1867      2.00000
      3      -3.5617      2.00000
      4      -3.0392      2.00000
      5      -3.0175      2.00000
      6      -1.0689      0.00000
      7       0.4710      0.00000
      8       0.4811      0.00000
      9       1.9059      0.00000
     10       1.9988      0.00000
     11       3.3782      0.00000
     12       4.3062      0.00000
     13       5.8731      0.00000
     14       6.8292      0.00000
     15       7.0668      0.00000
     16       7.1160      0.00000

 k-point     3 :       0.0272   -0.0136    0.0000
  band No.  band energies     occupation 
      1     -16.4674      2.00000
      2     -10.1858      2.00000
      3      -3.5589      2.00000
      4      -3.1137      2.00000
      5      -3.0310      2.00000
      6      -1.0032      0.00000
      7       0.4551      0.00000
      8       0.4954      0.00000
      9       1.9138      0.00000
     10       2.0057      0.00000
     11       3.3847      0.00000
     12       4.3129      0.00000
     13       5.8987      0.00000
     14       6.7205      0.00000
     15       7.0585      0.00000
     16       7.1978      0.00000

 k-point     4 :       0.0408   -0.0204    0.0000
  band No.  band energies     occupation 
      1     -16.4582      2.00000
      2     -10.1844      2.00000
      3      -3.5543      2.00000
      4      -3.2271      2.00000
      5      -3.0536      2.00000
      6      -0.9057      0.00000
      7       0.4294      0.00000
      8       0.5197      0.00000
      9       1.9271      0.00000
     10       2.0172      0.00000
     11       3.3953      0.00000
     12       4.3239      0.00000
     13       5.9399      0.00000
     14       6.5954      0.00000
     15       7.0441      0.00000
     16       7.2826      0.00000

 k-point     5 :       0.0544   -0.0272    0.0000
  band No.  band energies     occupation 
      1     -16.4453      2.00000
      2     -10.1825      2.00000
      3      -3.5479      2.00000
      4      -3.3685      2.00000
      5      -3.0852      2.00000
      6      -0.7881      0.00000
      7       0.3951      0.00000
      8       0.5548      0.00000
      9       1.9456      0.00000
     10       2.0330      0.00000
     11       3.4098      0.00000
     12       4.3393      0.00000
     13       5.9937      0.00000
     14       6.4636      0.00000
     15       7.0225      0.00000
     16       7.3671      0.00000

 k-point     6 :       0.0680   -0.0340    0.0000
  band No.  band energies     occupation 
      1     -16.4287      2.00000
      2     -10.1802      2.00000
      3      -3.5399      2.00000
      4      -3.5286      2.00000
      5      -3.1258      2.00000
      6      -0.6613      0.00000
      7       0.3540      0.00000
      8       0.6015      0.00000
      9       1.9697      0.00000
     10       2.0530      0.00000
     11       3.4279      0.00000
     12       4.3591      0.00000
     13       6.0523      0.00000
     14       6.3349      0.00000
     15       6.9926      0.00000
     16       7.4530      0.00000

 k-point     7 :       0.0816   -0.0408    0.0000
  band No.  band energies     occupation 
      1     -16.4085      2.00000
      2     -10.1778      2.00000
      3      -3.7007      2.00000
      4      -3.5303      2.00000
      5      -3.1754      2.00000
      6      -0.5337      0.00000
      7       0.3075      0.00000
      8       0.6607      0.00000
      9       1.9991      0.00000
     10       2.0771      0.00000
     11       3.4492      0.00000
     12       4.3832      0.00000
     13       6.0766      0.00000
     14       6.2487      0.00000
     15       6.9535      0.00000
     16       7.5143      0.00000

 k-point     8 :       0.0952   -0.0476    0.0000
  band No.  band energies     occupation 
      1     -16.3846      2.00000
      2     -10.1754      2.00000
      3      -3.8798      2.00000
      4      -3.5196      2.00000
      5      -3.2338      2.00000
      6      -0.4116      0.00000
      7       0.2572      0.00000
      8       0.7325      0.00000
      9       2.0341      0.00000
     10       2.1051      0.00000
     11       3.4735      0.00000
     12       4.4114      0.00000
     13       5.9901      0.00000
     14       6.2813      0.00000
     15       6.9054      0.00000
     16       7.4810      0.00000

 k-point     9 :       0.1088   -0.0544    0.0000
  band No.  band energies     occupation 
      1     -16.3571      2.00000
      2     -10.1732      2.00000
      3      -4.0623      2.00000
      4      -3.5077      2.00000
      5      -3.3007      2.00000
      6      -0.2991      0.00000
      7       0.2048      0.00000
      8       0.8162      0.00000
      9       2.0744      0.00000
     10       2.1369      0.00000
     11       3.5002      0.00000
     12       4.4438      0.00000
     13       5.8620      0.00000
     14       6.3630      0.00000
     15       6.8499      0.00000
     16       7.4563      0.00000

 k-point    10 :       0.1224   -0.0612    0.0000
  band No.  band energies     occupation 
      1     -16.3260      2.00000
      2     -10.1716      2.00000
      3      -4.2455      2.00000
      4      -3.4957      2.00000
      5      -3.3752      2.00000
      6      -0.1980      0.00000
      7       0.1517      0.00000
      8       0.9097      0.00000
      9       2.1200      0.00000
     10       2.1724      0.00000
     11       3.5292      0.00000
     12       4.4800      0.00000
     13       5.7304      0.00000
     14       6.4549      0.00000
     15       6.7901      0.00000
     16       7.4315      0.00000

 k-point    11 :       0.1361   -0.0680    0.0000
  band No.  band energies     occupation 
      1     -16.2913      2.00000
      2     -10.1709      2.00000
      3      -4.4275      2.00000
      4      -3.4919      2.00000
      5      -3.4489      2.00000
      6      -0.1085      0.00000
      7       0.0992      0.00000
      8       1.0100      0.00000
      9       2.1703      0.00000
     10       2.2116      0.00000
     11       3.5600      0.00000
     12       4.5198      0.00000
     13       5.6028      0.00000
     14       6.5493      0.00000
     15       6.7305      0.00000
     16       7.4077      0.00000

 k-point    12 :       0.1497   -0.0748    0.0000
  band No.  band energies     occupation 
      1     -16.2530      2.00000
      2     -10.1714      2.00000
      3      -4.6067      2.00000
      4      -3.5594      2.00000
      5      -3.4587      2.00000
      6      -0.0295      0.00000
      7       0.0481      0.00000
      8       1.1130      0.00000
      9       2.2248      0.00000
     10       2.2544      0.00000
     11       3.5922      0.00000
     12       4.5632      0.00000
     13       5.4818      0.00000
     14       6.6431      0.00000
     15       6.6758      0.00000
     16       7.3851      0.00000

 k-point    13 :       0.1633   -0.0816    0.0000
  band No.  band energies     occupation 
      1     -16.2111      2.00000
[...]
      7       0.4652      0.00000
      8       1.6915      0.00000
      9       2.9740      0.00000
     10       3.0282      0.00000
     11       3.9713      0.00000
     12       5.0391      0.00000
     13       5.3529      0.00000
     14       6.3316      0.00000
     15       7.4816      0.00000
     16       7.9511      0.00000

 k-point   128 :       0.1497    0.1497    0.0000
  band No.  band energies     occupation 
      1     -15.6046      2.00000
      2     -10.3992      2.00000
      3      -6.0689      2.00000
      4      -4.9124      2.00000
      5      -3.3748      2.00000
      6      -0.2613      0.00000
      7       0.4580      0.00000
      8       1.6972      0.00000
      9       2.8958      0.00000
     10       2.9472      0.00000
     11       3.9369      0.00000
     12       4.9975      0.00000
     13       5.2628      0.00000
     14       6.4058      0.00000
     15       7.4456      0.00000
     16       7.8013      0.00000

 k-point   129 :       0.1429    0.1429    0.0000
  band No.  band energies     occupation 
      1     -15.6799      2.00000
      2     -10.3521      2.00000
      3      -5.9895      2.00000
      4      -4.7753      2.00000
      5      -3.3680      2.00000
      6      -0.2583      0.00000
      7       0.4412      0.00000
      8       1.6984      0.00000
      9       2.8237      0.00000
     10       2.8688      0.00000
     11       3.9059      0.00000
     12       4.9679      0.00000
     13       5.1778      0.00000
     14       6.4701      0.00000
     15       7.3985      0.00000
     16       7.6620      0.00000

 k-point   130 :       0.1361    0.1361    0.0000
  band No.  band energies     occupation 
      1     -15.7521      2.00000
      2     -10.3117      2.00000
      3      -5.8975      2.00000
      4      -4.6390      2.00000
      5      -3.3657      2.00000
      6      -0.2494      0.00000
      7       0.4166      0.00000
      8       1.6917      0.00000
      9       2.7571      0.00000
     10       2.7933      0.00000
     11       3.8769      0.00000
     12       4.9518      0.00000
     13       5.0979      0.00000
     14       6.5211      0.00000
     15       7.3429      0.00000
     16       7.5403      0.00000

 k-point   131 :       0.1293    0.1293    0.0000
  band No.  band energies     occupation 
      1     -15.8212      2.00000
      2     -10.2775      2.00000
      3      -5.7935      2.00000
      4      -4.5041      2.00000
      5      -3.3674      2.00000
      6      -0.2350      0.00000
      7       0.3855      0.00000
      8       1.6744      0.00000
      9       2.6950      0.00000
     10       2.7206      0.00000
     11       3.8486      0.00000
     12       4.9505      0.00000
     13       5.0229      0.00000
     14       6.5557      0.00000
     15       7.2808      0.00000
     16       7.4427      0.00000

 k-point   132 :       0.1224    0.1224    0.0000
  band No.  band energies     occupation 
      1     -15.8870      2.00000
      2     -10.2493      2.00000
      3      -5.6778      2.00000
      4      -4.3713      2.00000
      5      -3.3725      2.00000
      6      -0.2152      0.00000
      7       0.3490      0.00000
      8       1.6449      0.00000
      9       2.6360      0.00000
     10       2.6509      0.00000
     11       3.8198      0.00000
     12       4.9527      0.00000
     13       4.9647      0.00000
     14       6.5730      0.00000
     15       7.2137      0.00000
     16       7.3741      0.00000

 k-point   133 :       0.1156    0.1156    0.0000
  band No.  band energies     occupation 
      1     -15.9495      2.00000
      2     -10.2264      2.00000
      3      -5.5511      2.00000
      4      -4.2412      2.00000
      5      -3.3807      2.00000
      6      -0.1903      0.00000
      7       0.3081      0.00000
      8       1.6025      0.00000
      9       2.5784      0.00000
     10       2.5843      0.00000
     11       3.7900      0.00000
     12       4.8869      0.00000
     13       4.9950      0.00000
     14       6.5762      0.00000
     15       7.1425      0.00000
     16       7.3341      0.00000

 k-point   134 :       0.1088    0.1088    0.0000
  band No.  band energies     occupation 
      1     -16.0087      2.00000
      2     -10.2084      2.00000
      3      -5.4143      2.00000
      4      -4.1146      2.00000
      5      -3.3911      2.00000
      6      -0.1607      0.00000
      7       0.2630      0.00000
      8       1.5471      0.00000
      9       2.5208      0.00000
     10       2.5209      0.00000
     11       3.7588      0.00000
     12       4.8250      0.00000
     13       5.0412      0.00000
     14       6.5722      0.00000
     15       7.0677      0.00000
     16       7.3178      0.00000

 k-point   135 :       0.1020    0.1020    0.0000
  band No.  band energies     occupation 
      1     -16.0645      2.00000
      2     -10.1946      2.00000
      3      -5.2680      2.00000
      4      -3.9920      2.00000
      5      -3.4034      2.00000
      6      -0.1266      0.00000
      7       0.2142      0.00000
      8       1.4792      0.00000
      9       2.4608      0.00000
     10       2.4621      0.00000
     11       3.7264      0.00000
     12       4.7667      0.00000
     13       5.1029      0.00000
     14       6.5701      0.00000
     15       6.9895      0.00000
     16       7.3182      0.00000

 k-point   136 :       0.0952    0.0952    0.0000
  band No.  band energies     occupation 
      1     -16.1168      2.00000
      2     -10.1846      2.00000
      3      -5.1130      2.00000
      4      -3.8743      2.00000
      5      -3.4169      2.00000
      6      -0.0883      0.00000
      7       0.1614      0.00000
      8       1.4002      0.00000
      9       2.4024      0.00000
     10       2.4040      0.00000
     11       3.6931      0.00000
     12       4.7115      0.00000
     13       5.1790      0.00000
     14       6.5771      0.00000
     15       6.9079      0.00000
     16       7.3287      0.00000

 k-point   137 :       0.0884    0.0884    0.0000
  band No.  band energies     occupation 
      1     -16.1657      2.00000
      2     -10.1778      2.00000
      3      -4.9505      2.00000
      4      -3.7622      2.00000
      5      -3.4313      2.00000
      6      -0.0461      0.00000
      7       0.1039      0.00000
      8       1.3112      0.00000
      9       2.3422      0.00000
     10       2.3507      0.00000
     11       3.6592      0.00000
     12       4.6591      0.00000
     13       5.2685      0.00000
     14       6.5967      0.00000
     15       6.8229      0.00000
     16       7.3448      0.00000

 k-point   138 :       0.0816    0.0816    0.0000
  band No.  band energies     occupation 
      1     -16.2111      2.00000
      2     -10.1735      2.00000
      3      -4.7814      2.00000
      4      -3.6567      2.00000
      5      -3.4457      2.00000
      6      -0.0005      0.00000
      7       0.0407      0.00000
      8       1.2145      0.00000
      9       2.2825      0.00000
     10       2.3008      0.00000
     11       3.6255      0.00000
     12       4.6097      0.00000
     13       5.3699      0.00000
     14       6.6301      0.00000
     15       6.7345      0.00000
     16       7.3640      0.00000

 k-point   139 :       0.0748    0.0748    0.0000
  band No.  band energies     occupation 
      1     -16.2530      2.00000
      2     -10.1714      2.00000
      3      -4.6067      2.00000
      4      -3.5594      2.00000
      5      -3.4587      2.00000
      6      -0.0295      0.00000
      7       0.0481      0.00000
      8       1.1130      0.00000
      9       2.2248      0.00000
     10       2.2544      0.00000
     11       3.5922      0.00000
     12       4.5632      0.00000
     13       5.4818      0.00000
     14       6.6431      0.00000
     15       6.6758      0.00000
     16       7.3851      0.00000

 k-point   140 :       0.0680    0.0680    0.0000
  band No.  band energies     occupation 
      1     -16.2913      2.00000
      2     -10.1709      2.00000
      3      -4.4275      2.00000
      4      -3.4919      2.00000
      5      -3.4489      2.00000
      6      -0.1085      0.00000
      7       0.0992      0.00000
      8       1.0100      0.00000
      9       2.1703      0.00000
     10       2.2116      0.00000
     11       3.5600      0.00000
     12       4.5198      0.00000
     13       5.6028      0.00000
     14       6.5493      0.00000
     15       6.7305      0.00000
     16       7.4077      0.00000

 k-point   141 :       0.0612    0.0612    0.0000
  band No.  band energies     occupation 
      1     -16.3260      2.00000
      2     -10.1716      2.00000
      3      -4.2456      2.00000
      4      -3.4957      2.00000
      5      -3.3752      2.00000
      6      -0.1980      0.00000
      7       0.1517      0.00000
      8       0.9097      0.00000
      9       2.1200      0.00000
     10       2.1724      0.00000
     11       3.5292      0.00000
     12       4.4800      0.00000
     13       5.7304      0.00000
     14       6.4549      0.00000
     15       6.7901      0.00000
     16       7.4315      0.00000

 k-point   142 :       0.0544    0.0544    0.0000
  band No.  band energies     occupation 
      1     -16.3571      2.00000
      2     -10.1732      2.00000
      3      -4.0623      2.00000
      4      -3.5077      2.00000
      5      -3.3006      2.00000
      6      -0.2991      0.00000
      7       0.2048      0.00000
      8       0.8162      0.00000
      9       2.0744      0.00000
     10       2.1369      0.00000
     11       3.5002      0.00000
     12       4.4438      0.00000
     13       5.8620      0.00000
     14       6.3630      0.00000
     15       6.8499      0.00000
     16       7.4563      0.00000

 k-point   143 :       0.0476    0.0476    0.0000
  band No.  band energies     occupation 
      1     -16.3846      2.00000
      2     -10.1754      2.00000
      3      -3.8798      2.00000
      4      -3.5196      2.00000
      5      -3.2337      2.00000
      6      -0.4116      0.00000
      7       0.2572      0.00000
      8       0.7325      0.00000
      9       2.0341      0.00000
     10       2.1051      0.00000
     11       3.4735      0.00000
     12       4.4114      0.00000
     13       5.9901      0.00000
     14       6.2813      0.00000
     15       6.9054      0.00000
     16       7.4810      0.00000

 k-point   144 :       0.0408    0.0408    0.0000
  band No.  band energies     occupation 
      1     -16.4085      2.00000
      2     -10.1778      2.00000
      3      -3.7007      2.00000
      4      -3.5303      2.00000
      5      -3.1753      2.00000
      6      -0.5337      0.00000
      7       0.3075      0.00000
      8       0.6607      0.00000
      9       1.9991      0.00000
     10       2.0771      0.00000
     11       3.4492      0.00000
     12       4.3832      0.00000
     13       6.0766      0.00000
     14       6.2487      0.00000
     15       6.9535      0.00000
     16       7.5066      0.00000

 k-point   145 :       0.0340    0.0340    0.0000
  band No.  band energies     occupation 
      1     -16.4287      2.00000
      2     -10.1802      2.00000
      3      -3.5399      2.00000
      4      -3.5286      2.00000
      5      -3.1258      2.00000
      6      -0.6613      0.00000
      7       0.3540      0.00000
      8       0.6015      0.00000
      9       1.9697      0.00000
     10       2.0530      0.00000
     11       3.4279      0.00000
     12       4.3591      0.00000
     13       6.0523      0.00000
     14       6.3349      0.00000
     15       6.9926      0.00000
     16       7.4547      0.00000

 k-point   146 :       0.0272    0.0272    0.0000
  band No.  band energies     occupation 
      1     -16.4453      2.00000
      2     -10.1825      2.00000
      3      -3.5479      2.00000
      4      -3.3685      2.00000
      5      -3.0852      2.00000
      6      -0.7881      0.00000
      7       0.3951      0.00000
      8       0.5548      0.00000
      9       1.9456      0.00000
     10       2.0330      0.00000
     11       3.4098      0.00000
     12       4.3393      0.00000
     13       5.9937      0.00000
     14       6.4636      0.00000
     15       7.0225      0.00000
     16       7.3671      0.00000

 k-point   147 :       0.0204    0.0204    0.0000
  band No.  band energies     occupation 
      1     -16.4582      2.00000
      2     -10.1844      2.00000
      3      -3.5543      2.00000
      4      -3.2271      2.00000
      5      -3.0536      2.00000
      6      -0.9057      0.00000
      7       0.4294      0.00000
      8       0.5197      0.00000
      9       1.9271      0.00000
     10       2.0172      0.00000
     11       3.3953      0.00000
     12       4.3239      0.00000
     13       5.9399      0.00000
     14       6.5954      0.00000
     15       7.0441      0.00000
     16       7.2826      0.00000

 k-point   148 :       0.0136    0.0136    0.0000
  band No.  band energies     occupation 
      1     -16.4674      2.00000
      2     -10.1858      2.00000
      3      -3.5589      2.00000
      4      -3.1137      2.00000
      5      -3.0310      2.00000
      6      -1.0032      0.00000
      7       0.4551      0.00000
      8       0.4954      0.00000
      9       1.9138      0.00000
     10       2.0057      0.00000
     11       3.3847      0.00000
     12       4.3129      0.00000
     13       5.8987      0.00000
     14       6.7205      0.00000
     15       7.0586      0.00000
     16       7.1978      0.00000

 k-point   149 :       0.0068    0.0068    0.0000
  band No.  band energies     occupation 
      1     -16.4729      2.00000
      2     -10.1867      2.00000
      3      -3.5617      2.00000
      4      -3.0392      2.00000
      5      -3.0175      2.00000
      6      -1.0689      0.00000
      7       0.4710      0.00000
      8       0.4811      0.00000
      9       1.9059      0.00000
     10       1.9988      0.00000
     11       3.3782      0.00000
     12       4.3062      0.00000
     13       5.8731      0.00000
     14       6.8292      0.00000
     15       7.0668      0.00000
     16       7.1160      0.00000

 k-point   150 :       0.0000    0.0000    0.0000
  band No.  band energies     occupation 
      1     -16.4747      2.00000
      2     -10.1870      2.00000
      3      -3.5626      2.00000
      4      -3.0130      2.00000
      5      -3.0130      2.00000
      6      -1.0922      0.00000
      7       0.4764      0.00000
      8       0.4764      0.00000
      9       1.9033      0.00000
     10       1.9965      0.00000
     11       3.3760      0.00000
     12       4.3040      0.00000
     13       5.8644      0.00000
     14       6.8851      0.00000
     15       7.0694      0.00000
     16       7.0694      0.00000


--------------------------------------------------------------------------------------------------------


 soft charge-density along one line, spin component           1
         0         1         2         3         4         5         6         7         8         9
 total charge-density along one line
 
 pseudopotential strength for first ion, spin component:           1
 25.467 -40.482  -0.000   0.081   0.000   0.000  -0.178  -0.000
-40.482  41.318   0.000  -0.165  -0.000  -0.000   0.449   0.000
 -0.000   0.000   5.893  -0.000  -0.000  -7.418   0.000   0.000
  0.081  -0.165  -0.000   5.884   0.000   0.000  -7.405  -0.000
  0.000  -0.000  -0.000   0.000   5.893   0.000  -0.000  -7.418
  0.000  -0.000  -7.418   0.000   0.000  11.036  -0.000  -0.000
 -0.178   0.449   0.000  -7.405  -0.000  -0.000  11.007   0.000
 -0.000   0.000   0.000  -0.000  -7.418  -0.000   0.000  11.036
 -0.000   0.000   0.000   0.000  -0.002  -0.000  -0.000   0.002
 -0.000   0.000   0.019  -0.000   0.000  -0.038   0.000  -0.000
 -0.009   0.013   0.000   0.024  -0.000  -0.000  -0.046   0.000
  0.000  -0.000   0.000   0.000   0.019  -0.000  -0.000  -0.038
  0.000  -0.000  -0.002  -0.000   0.000   0.002   0.000  -0.000
 total augmentation occupancy for first ion, spin component:           1
  2.000   0.000   0.000   0.000   0.000   0.000   0.000   0.000   0.000   0.000   0.000   0.000   0.000
  0.000   0.000   0.000   0.000   0.000   0.000   0.000   0.000   0.000   0.000   0.000   0.000   0.000
  0.000   0.000   1.000   0.000   0.000   0.000   0.000   0.000   0.000   0.000   0.000   0.000   0.000
  0.000   0.000   0.000   1.000   0.000   0.000   0.000   0.000   0.000   0.000   0.000   0.000   0.000
  0.000   0.000   0.000   0.000   1.000   0.000   0.000   0.000   0.000   0.000   0.000   0.000   0.000
  0.000   0.000   0.000   0.000   0.000   0.000   0.000   0.000   0.000   0.000   0.000   0.000   0.000
  0.000   0.000   0.000   0.000   0.000   0.000   0.000   0.000   0.000   0.000   0.000   0.000   0.000
  0.000   0.000   0.000   0.000   0.000   0.000   0.000   0.000   0.000   0.000   0.000   0.000   0.000
  0.000   0.000   0.000   0.000   0.000   0.000   0.000   0.000   0.000   0.000   0.000   0.000   0.000
  0.000   0.000   0.000   0.000   0.000   0.000   0.000   0.000   0.000   0.000   0.000   0.000   0.000
  0.000   0.000   0.000   0.000   0.000   0.000   0.000   0.000   0.000   0.000   0.000   0.000   0.000
  0.000   0.000   0.000   0.000   0.000   0.000   0.000   0.000   0.000   0.000   0.000   0.000   0.000
  0.000   0.000   0.000   0.000   0.000   0.000   0.000   0.000   0.000   0.000   0.000   0.000   0.000


------------------------ aborting loop because EDIFF is reached ----------------------------------------





 total charge

# of ion       s       p       d       tot
------------------------------------------
    1        1.288   1.349   0.042   2.679
    2        1.288   1.349   0.042   2.679
--------------------------------------------------
tot          2.576   2.698   0.084   5.357
 


--------------------------------------------------------------------------------------------------------



  FREE ENERGIE OF THE ION-ELECTRON SYSTEM (eV)
  ---------------------------------------------------
  free  energy   TOTEN  =        -9.33205377 eV

  energy  without entropy=       -9.33205377  energy(sigma->0) =       -9.33205377
 


--------------------------------------------------------------------------------------------------------




--------------------------------------------------------------------------------------------------------


     LOOP+:  cpu time     19.5149: real time     19.9967
    4ORBIT:  cpu time      0.0000: real time      0.0000



 total charge

# of ion       s       p       d       tot
------------------------------------------
    1        1.288   1.349   0.042   2.679
    2        1.288   1.349   0.042   2.679
--------------------------------------------------
tot          2.576   2.698   0.084   5.357
 

 total amount of memory used by VASP MPI-rank0    43094. kBytes
=======================================================================

   base      :      30000. kBytes
   nonl-proj :       5877. kBytes
   fftplans  :       2321. kBytes
   grid      :       1125. kBytes
   one-center:          8. kBytes
   wavefun   :       3763. kBytes
 
  
  
 General timing and accounting informations for this job:
 ========================================================
  
                  Total CPU time used (sec):       20.801
                            User time (sec):       20.593
                          System time (sec):        0.208
                         Elapsed time (sec):       22.564
  
                   Maximum memory used (kb):      147728.
                   Average memory used (kb):          N/A
  
                          Minor page faults:        12960
                          Major page faults:         3463
                 Voluntary context switches:          277
