PROCAR new format
# of k-points:  150         # of bands:   16         # of ions:    2

 k-point     1 :    0.00000000 0.00000000 0.00000000     weight = 0.00666667

band     1 # energy  -16.47473537 # occ.  2.00000000
 
ion      s      p      d    tot
    1  0.268  0.011  0.000  0.279
    2  0.268  0.011  0.000  0.279
tot    0.536  0.021  0.000  0.557
 
band     2 # energy  -10.18701000 # occ.  2.00000000
 
ion      s      p      d    tot
    1  0.284  0.025  0.001  0.310
    2  0.284  0.025  0.001  0.310
tot    0.568  0.050  0.001  0.619
 
band     3 # energy   -3.56260568 # occ.  2.00000000
 
ion      s      p      d    tot
    1  0.006  0.194  0.002  0.201
    2  0.006  0.194  0.002  0.201
tot    0.011  0.387  0.003  0.401
 
band     4 # energy   -3.01297495 # occ.  2.00000000
 
ion      s      p      d    tot
    1  0.000  0.283  0.014  0.298
    2  0.000  0.283  0.014  0.298
tot    0.000  0.567  0.028  0.595
 
band     5 # energy   -3.01295873 # occ.  2.00000000
 
ion      s      p      d    tot
    1  0.000  0.283  0.014  0.298
    2  0.000  0.283  0.014  0.298
tot    0.000  0.567  0.028  0.595
 
band     6 # energy   -1.09217717 # occ.  0.00000000
 
ion      s      p      d    tot
    1  0.144  0.118  0.011  0.273
    2  0.144  0.118  0.011  0.273
tot    0.288  0.237  0.021  0.547
 
band     7 # energy    0.47642849 # occ.  0.00000000
 
ion      s      p      d    tot
    1  0.000  0.260  0.019  0.279
    2  0.000  0.260  0.019  0.279
tot    0.000  0.521  0.037  0.558
 
band     8 # energy    0.47643580 # occ.  0.00000000
 
ion      s      p      d    tot
    1  0.000  0.260  0.019  0.279
    2  0.000  0.260  0.019  0.279
tot    0.000  0.521  0.037  0.558
 
band     9 # energy    1.90325179 # occ.  0.00000000
 
ion      s      p      d    tot
    1  0.000  0.014  0.012  0.026
    2  0.000  0.014  0.012  0.026
tot    0.000  0.028  0.025  0.053
 
band    10 # energy    1.99648200 # occ.  0.00000000
 
ion      s      p      d    tot
    1  0.005  0.017  0.000  0.022
    2  0.005  0.017  0.000  0.022
tot    0.010  0.034  0.000  0.044
 
band    11 # energy    3.37598396 # occ.  0.00000000
 
ion      s      p      d    tot
    1  0.012  0.026  0.000  0.037
    2  0.012  0.026  0.000  0.037
tot    0.024  0.051  0.000  0.075
 
band    12 # energy    4.30399354 # occ.  0.00000000
 
ion      s      p      d    tot
    1  0.002  0.002  0.017  0.021
    2  0.002  0.002  0.017  0.021
tot    0.003  0.004  0.034  0.042
 
band    13 # energy    5.86440027 # occ.  0.00000000
 
ion      s      p      d    tot
    1  0.083  0.009  0.007  0.099
    2  0.083  0.009  0.007  0.099
tot    0.166  0.018  0.014  0.197
 
band    14 # energy    6.88514173 # occ.  0.00000000
 
ion      s      p      d    tot
    1  0.005  0.027  0.014  0.047
    2  0.005  0.027  0.014  0.047
tot    0.010  0.055  0.029  0.093
 
band    15 # energy    7.06943777 # occ.  0.00000000
 
ion      s      p      d    tot
    1  0.000  0.033  0.133  0.166
    2  0.000  0.033  0.133  0.166
tot    0.000  0.066  0.267  0.332
 
band    16 # energy    7.06944275 # occ.  0.00000000
 
ion      s      p      d    tot
    1  0.000  0.033  0.133  0.166
    2  0.000  0.033  0.133  0.166
tot    0.000  0.066  0.267  0.332
 

 k-point     2 :    0.01360544-0.00680272 0.00000000     weight = 0.00666667

band     1 # energy  -16.47289449 # occ.  2.00000000
 
ion      s      p      d    tot
    1  0.268  0.011  0.000  0.279
    2  0.268  0.011  0.000  0.279
tot    0.536  0.021  0.000  0.557
 
band     2 # energy  -10.18670370 # occ.  2.00000000
 
ion      s      p      d    tot
    1  0.284  0.025  0.001  0.310
    2  0.284  0.025  0.001  0.310
tot    0.568  0.050  0.001  0.619
 
band     3 # energy   -3.56166954 # occ.  2.00000000
 
ion      s      p      d    tot
    1  0.006  0.194  0.002  0.201
    2  0.006  0.194  0.002  0.201
tot    0.011  0.387  0.003  0.402
 
band     4 # energy   -3.03915666 # occ.  2.00000000
 
ion      s      p      d    tot
    1  0.001  0.281  0.014  0.297
    2  0.001  0.281  0.014  0.297
tot    0.003  0.562  0.028  0.593
 
band     5 # energy   -3.01748024 # occ.  2.00000000
 
ion      s      p      d    tot
    1  0.000  0.283  0.014  0.298
    2  0.000  0.283  0.014  0.298
tot    0.000  0.567  0.028  0.595
 
band     6 # energy   -1.06888282 # occ.  0.00000000
 
ion      s      p      d    tot
    1  0.143  0.121  0.011  0.274
    2  0.143  0.121  0.011  0.274
tot    0.285  0.241  0.021  0.548
 
band     7 # energy    0.47102514 # occ.  0.00000000
 
ion      s      p      d    tot
    1  0.000  0.260  0.019  0.279
    2  0.000  0.260  0.019  0.279
tot    0.001  0.520  0.037  0.558
 
band     8 # energy    0.48113460 # occ.  0.00000000
 
ion      s      p      d    tot
    1  0.000  0.261  0.019  0.279
    2  0.000  0.261  0.019  0.279
tot    0.000  0.521  0.037  0.559
 
band     9 # energy    1.90588985 # occ.  0.00000000
 
ion      s      p      d    tot
    1  0.000  0.014  0.012  0.026
    2  0.000  0.014  0.012  0.026
tot    0.000  0.028  0.025  0.053
 
band    10 # energy    1.99880605 # occ.  0.00000000
 
ion      s      p      d    tot
    1  0.005  0.017  0.000  0.022
    2  0.005  0.017  0.000  0.022
tot    0.010  0.034  0.000  0.044
 
band    11 # energy    3.37816742 # occ.  0.00000000
 
ion      s      p      d    tot
    1  0.012  0.026  0.000  0.037
    2  0.012  0.026  0.000  0.037
tot    0.024  0.051  0.000  0.075
 
band    12 # energy    4.30620999 # occ.  0.00000000
 
ion      s      p      d    tot
    1  0.002  0.002  0.017  0.021
    2  0.002  0.002  0.017  0.021
tot    0.003  0.004  0.034  0.042
 
band    13 # energy    5.87309571 # occ.  0.00000000
 
ion      s      p      d    tot
    1  0.082  0.010  0.007  0.099
    2  0.082  0.010  0.007  0.099
tot    0.165  0.019  0.014  0.198
 
band    14 # energy    6.82916573 # occ.  0.00000000
 
ion      s      p      d    tot
    1  0.004  0.030  0.039  0.072
    2  0.004  0.030  0.039  0.072
tot    0.007  0.059  0.078  0.145
 
band    15 # energy    7.06676576 # occ.  0.00000000
 
ion      s      p      d    tot
    1  0.000  0.033  0.133  0.166
    2  0.000  0.033  0.133  0.166
tot    0.000  0.065  0.267  0.332
 
band    16 # energy    7.11600311 # occ.  0.00000000
 
ion      s      p      d    tot
    1  0.002  0.030  0.108  0.140
    2  0.002  0.030  0.108  0.140
tot    0.003  0.060  0.216  0.279
 

 k-point     3 :    0.02721088-0.01360544 0.00000000     weight = 0.00666667

band     1 # energy  -16.46736818 # occ.  2.00000000
 
ion      s      p      d    tot
    1  0.268  0.011  0.000  0.279
    2  0.268  0.011  0.000  0.279
tot    0.536  0.022  0.000  0.557
 
band     2 # energy  -10.18580149 # occ.  2.00000000
 
ion      s      p      d    tot
    1  0.284  0.025  0.001  0.310
    2  0.284  0.025  0.001  0.310
tot    0.569  0.050  0.001  0.620
 
band     3 # energy   -3.55886934 # occ.  2.00000000
 
ion      s      p      d    tot
    1  0.006  0.194  0.002  0.201
    2  0.006  0.194  0.002  0.201
tot    0.012  0.388  0.003  0.402
 
band     4 # energy   -3.11369461 # occ.  2.00000000
 
ion      s      p      d    tot
    1  0.005  0.275  0.014  0.294
    2  0.005  0.275  0.014  0.294
tot    0.010  0.550  0.028  0.588
 
band     5 # energy   -3.03100898 # occ.  2.00000000
 
ion      s      p      d    tot
    1  0.000  0.283  0.014  0.297
    2  0.000  0.283  0.014  0.297
tot    0.000  0.566  0.028  0.594
 
band     6 # energy   -1.00323450 # occ.  0.00000000
 
ion      s      p      d    tot
    1  0.138  0.127  0.011  0.276
    2  0.138  0.127  0.011  0.276
tot    0.277  0.253  0.021  0.551
 
band     7 # energy    0.45512086 # occ.  0.00000000
 
ion      s      p      d    tot
    1  0.001  0.258  0.018  0.278
    2  0.001  0.258  0.018  0.278
tot    0.003  0.516  0.037  0.556
 
band     8 # energy    0.49541524 # occ.  0.00000000
 
ion      s      p      d    tot
    1  0.000  0.261  0.019  0.280
    2  0.000  0.261  0.019  0.280
tot    0.000  0.523  0.037  0.560
 
band     9 # energy    1.91381657 # occ.  0.00000000
 
ion      s      p      d    tot
    1  0.000  0.014  0.012  0.027
    2  0.000  0.014  0.012  0.027
tot    0.000  0.028  0.025  0.054
 
band    10 # energy    2.00574159 # occ.  0.00000000
 
ion      s      p      d    tot
    1  0.005  0.017  0.000  0.022
    2  0.005  0.017  0.000  0.022
tot    0.009  0.035  0.000  0.044
 
band    11 # energy    3.38466107 # occ.  0.00000000
 
ion      s      p      d    tot
    1  0.012  0.026  0.000  0.037
    2  0.012  0.026  0.000  0.037
tot    0.023  0.051  0.000  0.075
 
band    12 # energy    4.31285518 # occ.  0.00000000
 
ion      s      p      d    tot
    1  0.002  0.002  0.017  0.021
    2  0.002  0.002  0.017  0.021
tot    0.003  0.004  0.034  0.042
 
band    13 # energy    5.89874818 # occ.  0.00000000
 
ion      s      p      d    tot
    1  0.081  0.011  0.007  0.099
    2  0.081  0.011  0.007  0.099
tot    0.163  0.023  0.013  0.198
 
band    14 # energy    6.72053348 # occ.  0.00000000
 
ion      s      p      d    tot
    1  0.003  0.032  0.058  0.093
    2  0.003  0.032  0.058  0.093
tot    0.006  0.064  0.117  0.186
 
band    15 # energy    7.05854858 # occ.  0.00000000
 
ion      s      p      d    tot
    1  0.000  0.032  0.133  0.165
    2  0.000  0.032  0.133  0.165
tot    0.000  0.063  0.267  0.330
 
band    16 # energy    7.19782344 # occ.  0.00000000
 
ion      s      p      d    tot
    1  0.003  0.026  0.087  0.117
    2  0.003  0.026  0.087  0.117
tot    0.007  0.052  0.175  0.234
 

 k-point     4 :    0.04081633-0.02040816 0.00000000     weight = 0.00666667

band     1 # energy  -16.45816317 # occ.  2.00000000
 
ion      s      p      d    tot
    1  0.268  0.011  0.000  0.279
    2  0.268  0.011  0.000  0.279
tot    0.536  0.022  0.000  0.558
 
band     2 # energy  -10.18435951 # occ.  2.00000000
 
ion      s      p      d    tot
    1  0.285  0.025  0.001  0.310
    2  0.285  0.025  0.001  0.310
tot    0.570  0.050  0.001  0.621
 
band     3 # energy   -3.55430660 # occ.  2.00000000
 
ion      s      p      d    tot
    1  0.006  0.194  0.002  0.201
    2  0.006  0.194  0.002  0.201
tot    0.012  0.388  0.003  0.403
 
band     4 # energy   -3.22709136 # occ.  2.00000000
 
ion      s      p      d    tot
    1  0.009  0.267  0.014  0.290
    2  0.009  0.267  0.014  0.290
tot    0.019  0.534  0.028  0.581
 
band     5 # energy   -3.05359217 # occ.  2.00000000
 
ion      s      p      d    tot
    1  0.000  0.282  0.014  0.296
    2  0.000  0.282  0.014  0.296
tot    0.000  0.564  0.028  0.593
 
band     6 # energy   -0.90569035 # occ.  0.00000000
 
ion      s      p      d    tot
    1  0.133  0.134  0.010  0.278
    2  0.133  0.134  0.010  0.278
tot    0.266  0.269  0.021  0.555
 
band     7 # energy    0.42936393 # occ.  0.00000000
 
ion      s      p      d    tot
    1  0.003  0.256  0.018  0.277
    2  0.003  0.256  0.018  0.277
tot    0.006  0.511  0.036  0.553
 
band     8 # energy    0.51969831 # occ.  0.00000000
 
ion      s      p      d    tot
    1  0.000  0.262  0.018  0.281
    2  0.000  0.262  0.018  0.281
tot    0.000  0.525  0.037  0.562
 
band     9 # energy    1.92705128 # occ.  0.00000000
 
ion      s      p      d    tot
    1  0.000  0.015  0.012  0.027
    2  0.000  0.015  0.012  0.027
tot    0.000  0.030  0.025  0.055
 
band    10 # energy    2.01718075 # occ.  0.00000000
 
ion      s      p      d    tot
    1  0.004  0.018  0.000  0.022
    2  0.004  0.018  0.000  0.022
tot    0.009  0.035  0.000  0.044
 
band    11 # energy    3.39528554 # occ.  0.00000000
 
ion      s      p      d    tot
    1  0.011  0.026  0.000  0.037
    2  0.011  0.026  0.000  0.037
tot    0.022  0.052  0.001  0.075
 
band    12 # energy    4.32390539 # occ.  0.00000000
 
ion      s      p      d    tot
    1  0.002  0.002  0.017  0.021
    2  0.002  0.002  0.017  0.021
tot    0.003  0.004  0.034  0.042
 
band    13 # energy    5.93992023 # occ.  0.00000000
 
ion      s      p      d    tot
    1  0.079  0.014  0.006  0.100
    2  0.079  0.014  0.006  0.100
tot    0.158  0.028  0.013  0.199
 
band    14 # energy    6.59543448 # occ.  0.00000000
 
ion      s      p      d    tot
    1  0.003  0.033  0.068  0.104
    2  0.003  0.033  0.068  0.104
tot    0.005  0.066  0.137  0.208
 
band    15 # energy    7.04408272 # occ.  0.00000000
 
ion      s      p      d    tot
    1  0.000  0.030  0.134  0.164
    2  0.000  0.030  0.134  0.164
tot    0.000  0.060  0.267  0.328
 
band    16 # energy    7.28257959 # occ.  0.00000000
 
ion      s      p      d    tot
    1  0.005  0.023  0.075  0.103
    2  0.005  0.023  0.075  0.103
tot    0.010  0.046  0.150  0.205
 

 k-point     5 :    0.05442177-0.02721088 0.00000000     weight = 0.00666667

band     1 # energy  -16.44527880 # occ.  2.00000000
 
ion      s      p      d    tot
    1  0.268  0.011  0.000  0.279
    2  0.268  0.011  0.000  0.279
tot    0.536  0.022  0.000  0.558
 
band     2 # energy  -10.18246158 # occ.  2.00000000
 
ion      s      p      d    tot
    1  0.286  0.025  0.001  0.311
    2  0.286  0.025  0.001  0.311
tot    0.572  0.049  0.001  0.622
 
band     3 # energy   -3.54793113 # occ.  2.00000000
 
ion      s      p      d    tot
    1  0.006  0.194  0.002  0.202
    2  0.006  0.194  0.002  0.202
tot    0.012  0.389  0.003  0.404
 
band     4 # energy   -3.36845833 # occ.  2.00000000
 
ion      s      p      d    tot
    1  0.014  0.259  0.014  0.286
    2  0.014  0.259  0.014  0.286
tot    0.027  0.517  0.028  0.572
 
band     5 # energy   -3.08517493 # occ.  2.00000000
 
ion      s      p      d    tot
    1  0.000  0.281  0.014  0.295
    2  0.000  0.281  0.014  0.295
tot    0.000  0.562  0.028  0.590
 
band     6 # energy   -0.78814662 # occ.  0.00000000
 
ion      s      p      d    tot
    1  0.127  0.142  0.010  0.279
    2  0.127  0.142  0.010  0.279
tot    0.254  0.284  0.021  0.559
 
band     7 # energy    0.39507916 # occ.  0.00000000
 
ion      s      p      d    tot
    1  0.005  0.252  0.018  0.275
    2  0.005  0.252  0.018  0.275
tot    0.010  0.505  0.036  0.550
 
band     8 # energy    0.55475782 # occ.  0.00000000
 
ion      s      p      d    tot
    1  0.001  0.264  0.018  0.282
    2  0.001  0.264  0.018  0.282
tot    0.001  0.527  0.036  0.564
 
band     9 # energy    1.94564777 # occ.  0.00000000
 
ion      s      p      d    tot
    1  0.000  0.016  0.013  0.028
    2  0.000  0.016  0.013  0.028
tot    0.000  0.031  0.025  0.057
 
band    10 # energy    2.03299331 # occ.  0.00000000
 
ion      s      p      d    tot
    1  0.004  0.018  0.000  0.022
    2  0.004  0.018  0.000  0.022
tot    0.008  0.036  0.001  0.045
 
band    11 # energy    3.40980782 # occ.  0.00000000
 
ion      s      p      d    tot
    1  0.011  0.026  0.001  0.037
    2  0.011  0.026  0.001  0.037
tot    0.021  0.053  0.001  0.075
 
band    12 # energy    4.33934797 # occ.  0.00000000
 
ion      s      p      d    tot
    1  0.002  0.002  0.017  0.021
    2  0.002  0.002  0.017  0.021
tot    0.003  0.004  0.035  0.042
 
band    13 # energy    5.99369926 # occ.  0.00000000
 
ion      s      p      d    tot
    1  0.076  0.017  0.006  0.099
    2  0.076  0.017  0.006  0.099
tot    0.151  0.035  0.013  0.199
 
band    14 # energy    6.46364760 # occ.  0.00000000
 
ion      s      p      d    tot
    1  0.003  0.034  0.074  0.111
    2  0.003  0.034  0.074  0.111
tot    0.007  0.067  0.148  0.223
 
band    15 # energy    7.02246057 # occ.  0.00000000
 
ion      s      p      d    tot
    1  0.000  0.028  0.133  0.162
    2  0.000  0.028  0.133  0.162
tot    0.000  0.057  0.267  0.324
 
band    16 # energy    7.36706068 # occ.  0.00000000
 
ion      s      p      d    tot
    1  0.007  0.020  0.066  0.092
    2  0.007  0.020  0.066  0.092
tot    0.013  0.039  0.132  0.185
 

 k-point     6 :    0.06802721-0.03401361 0.00000000     weight = 0.00666667

band     1 # energy  -16.42871984 # occ.  2.00000000
 
ion      s      p      d    tot
    1  0.268  0.011  0.000  0.279
    2  0.268  0.011  0.000  0.279
tot    0.536  0.022  0.000  0.558
 
band     2 # energy  -10.18021682 # occ.  2.00000000
 
ion      s      p      d    tot
    1  0.287  0.024  0.001  0.312
    2  0.287  0.024  0.001  0.312
tot    0.574  0.048  0.002  0.624
 
band     3 # energy   -3.53989270 # occ.  2.00000000
 
ion      s      p      d    tot
    1  0.006  0.195  0.002  0.203
    2  0.006  0.195  0.002  0.203
tot    0.012  0.390  0.003  0.405
 
band     4 # energy   -3.52855791 # occ.  2.00000000
 
ion      s      p      d    tot
    1  0.017  0.251  0.014  0.282
    2  0.017  0.251  0.014  0.282
tot    0.034  0.502  0.027  0.563
 
band     5 # energy   -3.12578738 # occ.  2.00000000
 
ion      s      p      d    tot
    1  0.000  0.280  0.014  0.294
    2  0.000  0.280  0.014  0.294
tot    0.000  0.559  0.028  0.588
 
band     6 # energy   -0.66129419 # occ.  0.00000000
 
ion      s      p      d    tot
    1  0.121  0.149  0.010  0.281
    2  0.121  0.149  0.010  0.281
tot    0.242  0.299  0.020  0.561
 
band     7 # energy    0.35398345 # occ.  0.00000000
 
ion      s      p      d    tot
    1  0.007  0.249  0.017  0.273
    2  0.007  0.249  0.017  0.273
tot    0.014  0.497  0.035  0.546
 
band     8 # energy    0.60151281 # occ.  0.00000000
 
ion      s      p      d    tot
    1  0.002  0.265  0.017  0.284
    2  0.002  0.265  0.017  0.284
tot    0.003  0.530  0.035  0.568
 
band     9 # energy    1.96966755 # occ.  0.00000000
 
ion      s      p      d    tot
    1  0.000  0.017  0.013  0.030
    2  0.000  0.017  0.013  0.030
tot    0.001  0.034  0.025  0.060
 
band    10 # energy    2.05301404 # occ.  0.00000000
 
ion      s      p      d    tot
    1  0.004  0.018  0.000  0.023
    2  0.004  0.018  0.000  0.023
tot    0.008  0.037  0.001  0.045
 
band    11 # energy    3.42790836 # occ.  0.00000000
 
ion      s      p      d    tot
    1  0.010  0.027  0.001  0.037
    2  0.010  0.027  0.001  0.037
tot    0.020  0.053  0.002  0.075
 
band    12 # energy    4.35913771 # occ.  0.00000000
 
ion      s      p      d    tot
    1  0.002  0.002  0.017  0.021
    2  0.002  0.002  0.017  0.021
tot    0.003  0.005  0.035  0.042
 
band    13 # energy    6.05234905 # occ.  0.00000000
 
ion      s      p      d    tot
    1  0.068  0.020  0.008  0.096
    2  0.068  0.020  0.008  0.096
tot    0.136  0.040  0.017  0.192
 
band    14 # energy    6.33487210 # occ.  0.00000000
 
ion      s      p      d    tot
    1  0.008  0.035  0.076  0.119
    2  0.008  0.035  0.076  0.119
tot    0.016  0.071  0.151  0.238
 
band    15 # energy    6.99256722 # occ.  0.00000000
 
ion      s      p      d    tot
    1  0.000  0.026  0.133  0.159
    2  0.000  0.026  0.133  0.159
tot    0.001  0.052  0.266  0.318
 
band    16 # energy    7.45298907 # occ.  0.00000000
 
ion      s      p      d    tot
    1  0.009  0.017  0.059  0.085
    2  0.009  0.017  0.060  0.085
tot    0.018  0.033  0.119  0.170
 

 k-point     7 :    0.08163265-0.04081633 0.00000000     weight = 0.00666667

band     1 # energy  -16.40849863 # occ.  2.00000000
 
ion      s      p      d    tot
    1  0.268  0.011  0.000  0.279
    2  0.268  0.011  0.000  0.279
tot    0.536  0.022  0.000  0.559
 
band     2 # energy  -10.17778649 # occ.  2.00000000
 
ion      s      p      d    tot
    1  0.288  0.024  0.001  0.313
    2  0.288  0.024  0.001  0.313
tot    0.577  0.048  0.002  0.626
 
band     3 # energy   -3.70067443 # occ.  2.00000000
 
ion      s      p      d    tot
    1  0.020  0.244  0.013  0.277
    2  0.020  0.244  0.013  0.277
tot    0.039  0.489  0.027  0.555
 
band     4 # energy   -3.53033431 # occ.  2.00000000
 
ion      s      p      d    tot
    1  0.006  0.196  0.002  0.204
    2  0.006  0.196  0.002  0.204
tot    0.013  0.391  0.003  0.407
 
band     5 # energy   -3.17536100 # occ.  2.00000000
 
ion      s      p      d    tot
    1  0.000  0.278  0.014  0.292
    2  0.000  0.278  0.014  0.292
tot    0.000  0.556  0.028  0.584
 
band     6 # energy   -0.53368203 # occ.  0.00000000
 
ion      s      p      d    tot
    1  0.115  0.156  0.010  0.281
    2  0.115  0.156  0.010  0.281
tot    0.230  0.312  0.020  0.562
 
band     7 # energy    0.30747475 # occ.  0.00000000
 
ion      s      p      d    tot
    1  0.010  0.245  0.017  0.271
    2  0.010  0.245  0.017  0.271
tot    0.019  0.489  0.034  0.542
 
band     8 # energy    0.66070828 # occ.  0.00000000
 
ion      s      p      d    tot
    1  0.003  0.266  0.017  0.286
    2  0.003  0.266  0.017  0.286
tot    0.006  0.532  0.033  0.572
 
band     9 # energy    1.99914499 # occ.  0.00000000
 
ion      s      p      d    tot
    1  0.000  0.019  0.013  0.032
    2  0.000  0.019  0.013  0.032
tot    0.001  0.037  0.025  0.063
 
band    10 # energy    2.07709049 # occ.  0.00000000
 
ion      s      p      d    tot
    1  0.003  0.019  0.001  0.023
    2  0.003  0.019  0.001  0.023
tot    0.007  0.037  0.001  0.045
 
band    11 # energy    3.44924868 # occ.  0.00000000
 
ion      s      p      d    tot
    1  0.009  0.027  0.001  0.037
    2  0.009  0.027  0.001  0.037
tot    0.018  0.054  0.002  0.075
 
band    12 # energy    4.38320800 # occ.  0.00000000
 
ion      s      p      d    tot
    1  0.001  0.003  0.017  0.021
    2  0.001  0.003  0.017  0.021
tot    0.003  0.005  0.035  0.043
 
band    13 # energy    6.07660856 # occ.  0.00000000
 
ion      s      p      d    tot
    1  0.036  0.020  0.032  0.088
    2  0.036  0.020  0.032  0.088
tot    0.073  0.039  0.065  0.177
 
band    14 # energy    6.24866331 # occ.  0.00000000
 
ion      s      p      d    tot
    1  0.036  0.040  0.054  0.130
    2  0.036  0.040  0.054  0.130
tot    0.072  0.080  0.107  0.259
 
band    15 # energy    6.95351687 # occ.  0.00000000
 
ion      s      p      d    tot
    1  0.001  0.024  0.132  0.156
    2  0.001  0.024  0.132  0.156
tot    0.001  0.048  0.263  0.312
 
band    16 # energy    7.51426421 # occ.  0.00000000
 
ion      s      p      d    tot
    1  0.001  0.031  0.081  0.112
    2  0.003  0.064  0.051  0.118
tot    0.003  0.095  0.131  0.230
 

 k-point     8 :    0.09523810-0.04761905 0.00000000     weight = 0.00666667

band     1 # energy  -16.38463567 # occ.  2.00000000
 
ion      s      p      d    tot
    1  0.268  0.011  0.000  0.280
    2  0.268  0.011  0.000  0.280
tot    0.536  0.023  0.000  0.559
 
band     2 # energy  -10.17538652 # occ.  2.00000000
 
ion      s      p      d    tot
    1  0.290  0.023  0.001  0.314
    2  0.290  0.023  0.001  0.314
tot    0.580  0.047  0.002  0.629
 
band     3 # energy   -3.87975798 # occ.  2.00000000
 
ion      s      p      d    tot
    1  0.021  0.239  0.013  0.273
    2  0.021  0.239  0.013  0.273
tot    0.042  0.477  0.027  0.546
 
band     4 # energy   -3.51955264 # occ.  2.00000000
 
ion      s      p      d    tot
    1  0.007  0.196  0.002  0.205
    2  0.007  0.196  0.002  0.205
tot    0.013  0.393  0.003  0.409
 
band     5 # energy   -3.23376182 # occ.  2.00000000
 
ion      s      p      d    tot
    1  0.000  0.276  0.014  0.290
    2  0.000  0.276  0.014  0.290
tot    0.000  0.552  0.028  0.580
 
band     6 # energy   -0.41161609 # occ.  0.00000000
 
ion      s      p      d    tot
    1  0.108  0.162  0.010  0.281
    2  0.108  0.162  0.010  0.281
tot    0.217  0.324  0.020  0.561
 
band     7 # energy    0.25722280 # occ.  0.00000000
 
ion      s      p      d    tot
    1  0.012  0.240  0.016  0.269
    2  0.012  0.240  0.016  0.269
tot    0.024  0.481  0.033  0.538
 
band     8 # energy    0.73248989 # occ.  0.00000000
 
ion      s      p      d    tot
    1  0.006  0.266  0.016  0.288
    2  0.006  0.266  0.016  0.288
tot    0.011  0.533  0.031  0.575
 
band     9 # energy    2.03407531 # occ.  0.00000000
 
ion      s      p      d    tot
    1  0.001  0.021  0.013  0.034
    2  0.001  0.021  0.013  0.034
tot    0.001  0.042  0.025  0.068
 
band    10 # energy    2.10507604 # occ.  0.00000000
 
ion      s      p      d    tot
    1  0.003  0.019  0.001  0.023
    2  0.003  0.019  0.001  0.023
tot    0.006  0.038  0.001  0.046
 
band    11 # energy    3.47346616 # occ.  0.00000000
 
ion      s      p      d    tot
    1  0.009  0.027  0.002  0.037
    2  0.009  0.027  0.002  0.037
tot    0.017  0.054  0.003  0.075
 
band    12 # energy    4.41144700 # occ.  0.00000000
 
ion      s      p      d    tot
    1  0.001  0.003  0.017  0.021
    2  0.001  0.003  0.017  0.021
tot    0.003  0.005  0.035  0.043
 
band    13 # energy    5.99009523 # occ.  0.00000000
 
ion      s      p      d    tot
    1  0.007  0.022  0.066  0.095
    2  0.007  0.022  0.066  0.095
tot    0.015  0.044  0.132  0.191
 
band    14 # energy    6.28131588 # occ.  0.00000000
 
ion      s      p      d    tot
    1  0.061  0.042  0.021  0.124
    2  0.061  0.042  0.021  0.124
tot    0.122  0.084  0.042  0.248
 
band    15 # energy    6.90541437 # occ.  0.00000000
 
ion      s      p      d    tot
    1  0.001  0.022  0.130  0.153
    2  0.001  0.022  0.130  0.153
tot    0.002  0.044  0.260  0.306
 
band    16 # energy    7.48104107 # occ.  0.00000000
 
ion      s      p      d    tot
    1  0.000  0.057  0.074  0.131
    2  0.000  0.057  0.074  0.131
tot    0.000  0.113  0.149  0.263
 

 k-point     9 :    0.10884354-0.05442177 0.00000000     weight = 0.00666667

band     1 # energy  -16.35713280 # occ.  2.00000000
 
ion      s      p      d    tot
    1  0.268  0.012  0.000  0.280
    2  0.268  0.012  0.000  0.280
tot    0.536  0.023  0.000  0.560
 
band     2 # energy  -10.17323900 # occ.  2.00000000
 
ion      s      p      d    tot
    1  0.292  0.023  0.001  0.316
    2  0.292  0.023  0.001  0.316
tot    0.584  0.046  0.002  0.632
 
band     3 # energy   -4.06227401 # occ.  2.00000000
 
ion      s      p      d    tot
    1  0.022  0.234  0.013  0.268
    2  0.022  0.234  0.013  0.268
tot    0.044  0.467  0.026  0.537
 
band     4 # energy   -3.50766171 # occ.  2.00000000
 
ion      s      p      d    tot
    1  0.007  0.197  0.002  0.206
    2  0.007  0.197  0.002  0.206
tot    0.014  0.395  0.003  0.412
 
band     5 # energy   -3.30066232 # occ.  2.00000000
 
ion      s      p      d    tot
    1  0.000  0.273  0.014  0.288
    2  0.000  0.273  0.014  0.288
tot    0.001  0.547  0.028  0.575
 
band     6 # energy   -0.29909005 # occ.  0.00000000
 
ion      s      p      d    tot
    1  0.101  0.168  0.010  0.280
    2  0.101  0.168  0.010  0.280
tot    0.203  0.336  0.021  0.559
 
band     7 # energy    0.20480813 # occ.  0.00000000
 
ion      s      p      d    tot
    1  0.015  0.236  0.016  0.267
    2  0.015  0.236  0.016  0.267
tot    0.030  0.473  0.031  0.534
 
band     8 # energy    0.81618696 # occ.  0.00000000
 
ion      s      p      d    tot
    1  0.009  0.266  0.014  0.289
    2  0.009  0.266  0.014  0.289
tot    0.018  0.532  0.029  0.578
 
band     9 # energy    2.07441179 # occ.  0.00000000
 
ion      s      p      d    tot
    1  0.001  0.024  0.013  0.037
    2  0.001  0.024  0.013  0.037
tot    0.002  0.048  0.026  0.075
 
band    10 # energy    2.13688559 # occ.  0.00000000
 
ion      s      p      d    tot
    1  0.003  0.019  0.001  0.023
    2  0.003  0.019  0.001  0.023
tot    0.006  0.039  0.002  0.046
 
band    11 # energy    3.50024392 # occ.  0.00000000
 
ion      s      p      d    tot
    1  0.008  0.027  0.002  0.037
    2  0.008  0.027  0.002  0.037
tot    0.016  0.054  0.005  0.075
 
band    12 # energy    4.44375761 # occ.  0.00000000
 
ion      s      p      d    tot
    1  0.001  0.003  0.017  0.022
    2  0.001  0.003  0.017  0.022
tot    0.003  0.006  0.034  0.043
 
band    13 # energy    5.86204291 # occ.  0.00000000
 
ion      s      p      d    tot
    1  0.003  0.023  0.074  0.099
    2  0.003  0.023  0.074  0.099
tot    0.005  0.045  0.148  0.199
 
band    14 # energy    6.36296542 # occ.  0.00000000
 
ion      s      p      d    tot
    1  0.061  0.045  0.013  0.120
    2  0.061  0.045  0.013  0.120
tot    0.122  0.091  0.027  0.240
 
band    15 # energy    6.84989900 # occ.  0.00000000
 
ion      s      p      d    tot
    1  0.002  0.020  0.127  0.150
    2  0.002  0.020  0.127  0.150
tot    0.004  0.041  0.255  0.299
 
band    16 # energy    7.45634687 # occ.  0.00000000
 
ion      s      p      d    tot
    1  0.000  0.061  0.080  0.140
    2  0.000  0.061  0.080  0.140
tot    0.000  0.121  0.160  0.281
 

 k-point    10 :    0.12244898-0.06122449 0.00000000     weight = 0.00666667

band     1 # energy  -16.32601304 # occ.  2.00000000
 
ion      s      p      d    tot
    1  0.268  0.012  0.000  0.280
    2  0.268  0.012  0.000  0.280
tot    0.536  0.024  0.000  0.560
 
band     2 # energy  -10.17163013 # occ.  2.00000000
 
ion      s      p      d    tot
    1  0.294  0.022  0.001  0.318
    2  0.294  0.022  0.001  0.318
tot    0.589  0.045  0.002  0.635
 
band     3 # energy   -4.24554208 # occ.  2.00000000
 
ion      s      p      d    tot
    1  0.022  0.229  0.013  0.264
    2  0.022  0.229  0.013  0.264
tot    0.044  0.459  0.026  0.528
 
band     4 # energy   -3.49565644 # occ.  2.00000000
 
ion      s      p      d    tot
    1  0.008  0.199  0.002  0.209
    2  0.008  0.199  0.002  0.209
tot    0.016  0.399  0.004  0.418
 
band     5 # energy   -3.37519923 # occ.  2.00000000
 
ion      s      p      d    tot
    1  0.000  0.270  0.014  0.284
    2  0.000  0.270  0.014  0.284
tot    0.000  0.540  0.027  0.567
 
band     6 # energy   -0.19802733 # occ.  0.00000000
 
ion      s      p      d    tot
    1  0.094  0.174  0.011  0.279
    2  0.094  0.174  0.011  0.279
tot    0.188  0.347  0.022  0.557
 
band     7 # energy    0.15170576 # occ.  0.00000000
 
ion      s      p      d    tot
    1  0.017  0.232  0.015  0.265
    2  0.017  0.232  0.015  0.265
tot    0.035  0.465  0.030  0.530
 
band     8 # energy    0.90973597 # occ.  0.00000000
 
ion      s      p      d    tot
    1  0.013  0.264  0.013  0.290
    2  0.013  0.264  0.013  0.290
tot    0.025  0.529  0.026  0.579
 
band     9 # energy    2.11995235 # occ.  0.00000000
 
ion      s      p      d    tot