<?xml version="1.0" encoding="ISO-8859-1"?>
<modeling>
 <generator>
  <i name="program" type="string">vasp </i>
  <i name="version" type="string">6.4.2  </i>
  <i name="subversion" type="string">20Jul23 (build Nov 14 2023 12:59:38) complex                          parallel </i>
  <i name="platform" type="string">LinuxIFC </i>
  <i name="date" type="string">2023 12 17 </i>
  <i name="time" type="string">08:41:42 </i>
 </generator>
 <incar>
  <i type="string" name="PREC">Accurate</i>
  <i type="string" name="ALGO">Normal</i>
  <i type="logical" name="ADDGRID"> T  </i>
  <i type="int" name="ISPIN">     1</i>
  <i name="AMIX">      0.10000000</i>
  <i name="BMIX">      0.00010000</i>
  <i type="int" name="ICHARG">    11</i>
  <i type="int" name="NELM">   200</i>
  <i type="int" name="NELMDL">   -12</i>
  <i type="int" name="NELMIN">     6</i>
  <i type="int" name="IBRION">     2</i>
  <i name="EDIFF">      0.00000100</i>
  <i name="EDIFFG">     -0.01000000</i>
  <i type="int" name="NSW">     0</i>
  <i type="int" name="ISIF">    -1</i>
  <i name="ENCUT">    234.78975000</i>
  <i type="int" name="NBANDS">    16</i>
  <i name="POTIM">      0.50000000</i>
  <i type="int" name="NEDOS">  6001</i>
  <i type="logical" name="LPLANE"> T  </i>
  <i type="int" name="ISMEAR">     0</i>
  <i name="SIGMA">      0.01000000</i>
  <i type="int" name="NWRITE">     1</i>
  <i type="logical" name="LWAVE"> F  </i>
  <i type="logical" name="LCHARG"> F  </i>
  <i type="int" name="LORBIT">    10</i>
  <i type="logical" name="LASPH"> T  </i>
  <i type="int" name="IVDW">     0</i>
 </incar>
 <primitive_cell>
  <structure name="primitive_cell" >
   <crystal>
    <varray name="basis" >
     <v>       3.60689254       0.00000000       0.00000000 </v>
     <v>      -1.80344627       3.12366057       0.00000000 </v>
     <v>       0.00000000       0.00000000      16.00000000 </v>
    </varray>
    <i name="volume">    180.26732792 </i>
    <varray name="rec_basis" >
     <v>       0.27724696       0.16006861       0.00000000 </v>
     <v>       0.00000000       0.32013722       0.00000000 </v>
     <v>       0.00000000       0.00000000       0.06250000 </v>
    </varray>
   </crystal>
   <varray name="positions" >
    <v>       0.66666667       0.33333333       0.45634314 </v>
    <v>       0.33333333       0.66666667       0.54365686 </v>
   </varray>
  </structure>
  <varray name="primitive_index" >
   <v type="int" >        1 </v>
   <v type="int" >        2 </v>
  </varray>
 </primitive_cell>
 <kpoints>
  <generation param="listgenerated">
   <i name="divisions" type="int">      50 </i>
   <v>       0.00000000       0.00000000       0.00000000 </v>
   <v>       0.66666667      -0.33333333       0.00000000 </v>
   <v>       0.33333333       0.33333333       0.00000000 </v>
   <v>       0.00000000       0.00000000       0.00000000 </v>
  </generation>
  <varray name="kpointlist" >
   <v>       0.00000000       0.00000000       0.00000000 </v>
   <v>       0.01360544      -0.00680272       0.00000000 </v>
   <v>       0.02721088      -0.01360544       0.00000000 </v>
   <v>       0.04081633      -0.02040816       0.00000000 </v>
   <v>       0.05442177      -0.02721088       0.00000000 </v>
   <v>       0.06802721      -0.03401361       0.00000000 </v>
   <v>       0.08163265      -0.04081633       0.00000000 </v>
   <v>       0.09523810      -0.04761905       0.00000000 </v>
   <v>       0.10884354      -0.05442177       0.00000000 </v>
   <v>       0.12244898      -0.06122449       0.00000000 </v>
   <v>       0.13605442      -0.06802721       0.00000000 </v>
   <v>       0.14965986      -0.07482993       0.00000000 </v>
   <v>       0.16326531      -0.08163265       0.00000000 </v>
   <v>       0.17687075      -0.08843537       0.00000000 </v>
   <v>       0.19047619      -0.09523810       0.00000000 </v>
   <v>       0.20408163      -0.10204082       0.00000000 </v>
   <v>       0.21768707      -0.10884354       0.00000000 </v>
   <v>       0.23129252      -0.11564626       0.00000000 </v>
   <v>       0.24489796      -0.12244898       0.00000000 </v>
   <v>       0.25850340      -0.12925170       0.00000000 </v>
   <v>       0.27210884      -0.13605442       0.00000000 </v>
   <v>       0.28571429      -0.14285714       0.00000000 </v>
   <v>       0.29931973      -0.14965986       0.00000000 </v>
   <v>       0.31292517      -0.15646259       0.00000000 </v>
   <v>       0.32653061      -0.16326531       0.00000000 </v>
   <v>       0.34013605      -0.17006803       0.00000000 </v>
   <v>       0.35374150      -0.17687075       0.00000000 </v>
   <v>       0.36734694      -0.18367347       0.00000000 </v>
   <v>       0.38095238      -0.19047619       0.00000000 </v>
   <v>       0.39455782      -0.19727891       0.00000000 </v>
   <v>       0.40816327      -0.20408163       0.00000000 </v>
   <v>       0.42176871      -0.21088435       0.00000000 </v>
   <v>       0.43537415      -0.21768707       0.00000000 </v>
   <v>       0.44897959      -0.22448980       0.00000000 </v>
   <v>       0.46258503      -0.23129252       0.00000000 </v>
   <v>       0.47619048      -0.23809524       0.00000000 </v>
   <v>       0.48979592      -0.24489796       0.00000000 </v>
   <v>       0.50340136      -0.25170068       0.00000000 </v>
   <v>       0.51700680      -0.25850340       0.00000000 </v>
   <v>       0.53061224      -0.26530612       0.00000000 </v>
   <v>       0.54421769      -0.27210884       0.00000000 </v>
   <v>       0.55782313      -0.27891156       0.00000000 </v>
   <v>       0.57142857      -0.28571429       0.00000000 </v>
   <v>       0.58503401      -0.29251701       0.00000000 </v>
   <v>       0.59863946      -0.29931973       0.00000000 </v>
   <v>       0.61224490      -0.30612245       0.00000000 </v>
   <v>       0.62585034      -0.31292517       0.00000000 </v>
   <v>       0.63945578      -0.31972789       0.00000000 </v>
   <v>       0.65306122      -0.32653061       0.00000000 </v>
   <v>       0.66666667      -0.33333333       0.00000000 </v>
   <v>       0.66666667      -0.33333333       0.00000000 </v>
   <v>       0.65986395      -0.31972789       0.00000000 </v>
   <v>       0.65306122      -0.30612245       0.00000000 </v>
   <v>       0.64625850      -0.29251701       0.00000000 </v>
   <v>       0.63945578      -0.27891156       0.00000000 </v>
   <v>       0.63265306      -0.26530612       0.00000000 </v>
   <v>       0.62585034      -0.25170068       0.00000000 </v>
   <v>       0.61904762      -0.23809524       0.00000000 </v>
   <v>       0.61224490      -0.22448980       0.00000000 </v>
   <v>       0.60544218      -0.21088435       0.00000000 </v>
   <v>       0.59863946      -0.19727891       0.00000000 </v>
   <v>       0.59183673      -0.18367347       0.00000000 </v>
   <v>       0.58503401      -0.17006803       0.00000000 </v>
   <v>       0.57823129      -0.15646259       0.00000000 </v>
   <v>       0.57142857      -0.14285714       0.00000000 </v>
   <v>       0.56462585      -0.12925170       0.00000000 </v>
   <v>       0.55782313      -0.11564626       0.00000000 </v>
   <v>       0.55102041      -0.10204082       0.00000000 </v>
   <v>       0.54421769      -0.08843537       0.00000000 </v>
   <v>       0.53741497      -0.07482993       0.00000000 </v>
   <v>       0.53061224      -0.06122449       0.00000000 </v>
   <v>       0.52380952      -0.04761905       0.00000000 </v>
   <v>       0.51700680      -0.03401361       0.00000000 </v>
   <v>       0.51020408      -0.02040816       0.00000000 </v>
   <v>       0.50340136      -0.00680272       0.00000000 </v>
   <v>       0.49659864       0.00680272       0.00000000 </v>
   <v>       0.48979592       0.02040816       0.00000000 </v>
   <v>       0.48299320       0.03401361       0.00000000 </v>
   <v>       0.47619048       0.04761905       0.00000000 </v>
   <v>       0.46938776       0.06122449       0.00000000 </v>
   <v>       0.46258503       0.07482993       0.00000000 </v>
   <v>       0.45578231       0.08843537       0.00000000 </v>
   <v>       0.44897959       0.10204082       0.00000000 </v>
   <v>       0.44217687       0.11564626       0.00000000 </v>
   <v>       0.43537415       0.12925170       0.00000000 </v>
   <v>       0.42857143       0.14285714       0.00000000 </v>
   <v>       0.42176871       0.15646259       0.00000000 </v>
   <v>       0.41496599       0.17006803       0.00000000 </v>
   <v>       0.40816327       0.18367347       0.00000000 </v>
   <v>       0.40136054       0.19727891       0.00000000 </v>
   <v>       0.39455782       0.21088435       0.00000000 </v>
   <v>       0.38775510       0.22448980       0.00000000 </v>
   <v>       0.38095238       0.23809524       0.00000000 </v>
   <v>       0.37414966       0.25170068       0.00000000 </v>
   <v>       0.36734694       0.26530612       0.00000000 </v>
   <v>       0.36054422       0.27891156       0.00000000 </v>
   <v>       0.35374150       0.29251701       0.00000000 </v>
   <v>       0.34693878       0.30612245       0.00000000 </v>
   <v>       0.34013605       0.31972789       0.00000000 </v>
   <v>       0.33333333       0.33333333       0.00000000 </v>
   <v>       0.33333333       0.33333333       0.00000000 </v>
   <v>       0.32653061       0.32653061       0.00000000 </v>
   <v>       0.31972789       0.31972789       0.00000000 </v>
   <v>       0.31292517       0.31292517       0.00000000 </v>
   <v>       0.30612245       0.30612245       0.00000000 </v>
   <v>       0.29931973       0.29931973       0.00000000 </v>
   <v>       0.29251701       0.29251701       0.00000000 </v>
   <v>       0.28571429       0.28571429       0.00000000 </v>
   <v>       0.27891156       0.27891156       0.00000000 </v>
   <v>       0.27210884       0.27210884       0.00000000 </v>
   <v>       0.26530612       0.26530612       0.00000000 </v>
   <v>       0.25850340       0.25850340       0.00000000 </v>
   <v>       0.25170068       0.25170068       0.00000000 </v>
   <v>       0.24489796       0.24489796       0.00000000 </v>
   <v>       0.23809524       0.23809524       0.00000000 </v>
   <v>       0.23129252       0.23129252       0.00000000 </v>
   <v>       0.22448980       0.22448980       0.00000000 </v>
   <v>       0.21768707       0.21768707       0.00000000 </v>
   <v>       0.21088435       0.21088435       0.00000000 </v>
   <v>       0.20408163       0.20408163       0.00000000 </v>
   <v>       0.19727891       0.19727891       0.00000000 </v>
   <v>       0.19047619       0.19047619       0.00000000 </v>
   <v>       0.18367347       0.18367347       0.00000000 </v>
   <v>       0.17687075       0.17687075       0.00000000 </v>
   <v>       0.17006803       0.17006803       0.00000000 </v>
   <v>       0.16326531       0.16326531       0.00000000 </v>
   <v>       0.15646259       0.15646259       0.00000000 </v>
   <v>       0.14965986       0.14965986       0.00000000 </v>
   <v>       0.14285714       0.14285714       0.00000000 </v>
   <v>       0.13605442       0.13605442       0.00000000 </v>
   <v>       0.12925170       0.12925170       0.00000000 </v>
   <v>       0.12244898       0.12244898       0.00000000 </v>
   <v>       0.11564626       0.11564626       0.00000000 </v>
   <v>       0.10884354       0.10884354       0.00000000 </v>
   <v>       0.10204082       0.10204082       0.00000000 </v>
   <v>       0.09523810       0.09523810       0.00000000 </v>
   <v>       0.08843537       0.08843537       0.00000000 </v>
   <v>       0.08163265       0.08163265       0.00000000 </v>
   <v>       0.07482993       0.07482993       0.00000000 </v>
   <v>       0.06802721       0.06802721       0.00000000 </v>
   <v>       0.06122449       0.06122449       0.00000000 </v>
   <v>       0.05442177       0.05442177       0.00000000 </v>
   <v>       0.04761905       0.04761905       0.00000000 </v>
   <v>       0.04081633       0.04081633       0.00000000 </v>
   <v>       0.03401361       0.03401361       0.00000000 </v>
   <v>       0.02721088       0.02721088       0.00000000 </v>
   <v>       0.02040816       0.02040816       0.00000000 </v>
   <v>       0.01360544       0.01360544       0.00000000 </v>
   <v>       0.00680272       0.00680272       0.00000000 </v>
   <v>       0.00000000       0.00000000       0.00000000 </v>
  </varray>
  <varray name="weights" >
   <v>       0.00666667 </v>
   <v>       0.00666667 </v>
   <v>       0.00666667 </v>
   <v>       0.00666667 </v>
   <v>       0.00666667 </v>
   <v>       0.00666667 </v>
   <v>       0.00666667 </v>
   <v>       0.00666667 </v>
   <v>       0.00666667 </v>
   <v>       0.00666667 </v>
   <v>       0.00666667 </v>
   <v>       0.00666667 </v>
   <v>       0.00666667 </v>
   <v>       0.00666667 </v>
   <v>       0.00666667 </v>
   <v>       0.00666667 </v>
   <v>       0.00666667 </v>
   <v>       0.00666667 </v>
   <v>       0.00666667 </v>
   <v>       0.00666667 </v>
   <v>       0.00666667 </v>
   <v>       0.00666667 </v>
   <v>       0.00666667 </v>
   <v>       0.00666667 </v>
   <v>       0.00666667 </v>
   <v>       0.00666667 </v>
   <v>       0.00666667 </v>
   <v>       0.00666667 </v>
   <v>       0.00666667 </v>
   <v>       0.00666667 </v>
   <v>       0.00666667 </v>
   <v>       0.00666667 </v>
   <v>       0.00666667 </v>
   <v>       0.00666667 </v>
   <v>       0.00666667 </v>
   <v>       0.00666667 </v>
   <v>       0.00666667 </v>
   <v>       0.00666667 </v>
   <v>       0.00666667 </v>
   <v>       0.00666667 </v>
   <v>       0.00666667 </v>
   <v>       0.00666667 </v>
   <v>       0.00666667 </v>
   <v>       0.00666667 </v>
   <v>       0.00666667 </v>
   <v>       0.00666667 </v>
   <v>       0.00666667 </v>
   <v>       0.00666667 </v>
   <v>       0.00666667 </v>
   <v>       0.00666667 </v>
   <v>       0.00666667 </v>
   <v>       0.00666667 </v>
   <v>       0.00666667 </v>
   <v>       0.00666667 </v>
   <v>       0.00666667 </v>
   <v>       0.00666667 </v>
   <v>       0.00666667 </v>
   <v>       0.00666667 </v>
   <v>       0.00666667 </v>
   <v>       0.00666667 </v>
   <v>       0.00666667 </v>
   <v>       0.00666667 </v>
   <v>       0.00666667 </v>
   <v>       0.00666667 </v>
   <v>       0.00666667 </v>
   <v>       0.00666667 </v>
   <v>       0.00666667 </v>
   <v>       0.00666667 </v>
   <v>       0.00666667 </v>
   <v>       0.00666667 </v>
   <v>       0.00666667 </v>
   <v>       0.00666667 </v>
   <v>       0.00666667 </v>
   <v>       0.00666667 </v>
   <v>       0.00666667 </v>
   <v>       0.00666667 </v>
   <v>       0.00666667 </v>
   <v>       0.00666667 </v>
   <v>       0.00666667 </v>
   <v>       0.00666667 </v>
   <v>       0.00666667 </v>
   <v>       0.00666667 </v>
   <v>       0.00666667 </v>
   <v>       0.00666667 </v>
   <v>       0.00666667 </v>
   <v>       0.00666667 </v>
   <v>       0.00666667 </v>
   <v>       0.00666667 </v>
   <v>       0.00666667 </v>
   <v>       0.00666667 </v>
   <v>       0.00666667 </v>
   <v>       0.00666667 </v>
   <v>       0.00666667 </v>
   <v>       0.00666667 </v>
   <v>       0.00666667 </v>
   <v>       0.00666667 </v>
   <v>       0.00666667 </v>
   <v>       0.00666667 </v>
   <v>       0.00666667 </v>
   <v>       0.00666667 </v>
   <v>       0.00666667 </v>
   <v>       0.00666667 </v>
   <v>       0.00666667 </v>
   <v>       0.00666667 </v>
   <v>       0.00666667 </v>
   <v>       0.00666667 </v>
   <v>       0.00666667 </v>
   <v>       0.00666667 </v>
   <v>       0.00666667 </v>
   <v>       0.00666667 </v>
   <v>       0.00666667 </v>
   <v>       0.00666667 </v>
   <v>       0.00666667 </v>
   <v>       0.00666667 </v>
   <v>       0.00666667 </v>
   <v>       0.00666667 </v>
   <v>       0.00666667 </v>
   <v>       0.00666667 </v>
   <v>       0.00666667 </v>
   <v>       0.00666667 </v>
   <v>       0.00666667 </v>
   <v>       0.00666667 </v>
   <v>       0.00666667 </v>
   <v>       0.00666667 </v>
   <v>       0.00666667 </v>
   <v>       0.00666667 </v>
   <v>       0.00666667 </v>
   <v>       0.00666667 </v>
   <v>       0.00666667 </v>
   <v>       0.00666667 </v>
   <v>       0.00666667 </v>
   <v>       0.00666667 </v>
   <v>       0.00666667 </v>
   <v>       0.00666667 </v>
   <v>       0.00666667 </v>
   <v>       0.00666667 </v>
   <v>       0.00666667 </v>
   <v>       0.00666667 </v>
   <v>       0.00666667 </v>
   <v>       0.00666667 </v>
   <v>       0.00666667 </v>
   <v>       0.00666667 </v>
   <v>       0.00666667 </v>
   <v>       0.00666667 </v>
   <v>       0.00666667 </v>
   <v>       0.00666667 </v>
   <v>       0.00666667 </v>
   <v>       0.00666667 </v>
   <v>       0.00666667 </v>
   <v>       0.00666667 </v>
  </varray>
  <kpoints_labels>
   <i name="G" type="int">       1 </i>
   <i name="K" type="int">       2 </i>
   <i name="K" type="int">       3 </i>
   <i name="K'" type="int">       4 </i>
   <i name="K'" type="int">       5 </i>
   <i name="G" type="int">       6 </i>
  </kpoints_labels>
 </kpoints>
 <parameters>
  <separator name="general" >
   <i type="string" name="SYSTEM">unknown system</i>
   <i type="logical" name="LCOMPAT"> F  </i>
  </separator>
  <separator name="electronic" >
   <i type="string" name="PREC">accura</i>
   <i name="ENMAX">    234.78975000</i>
   <i name="ENAUG">    462.75800000</i>
   <i name="EDIFF">      0.00000100</i>
   <i type="int" name="IALGO">    38</i>
   <i type="int" name="IWAVPR">    10</i>
   <i type="int" name="NBANDS">    16</i>
   <i type="int" name="NBANDSLOW">    -1</i>
   <i type="int" name="NBANDSHIGH">    -1</i>
   <i name="NELECT">     10.00000000</i>
   <i type="int" name="TURBO">     0</i>
   <i type="int" name="IRESTART">     0</i>
   <i type="int" name="NREBOOT">     0</i>
   <i type="int" name="NMIN">     0</i>
   <i name="EREF">      0.00000000</i>
   <separator name="electronic smearing" >
    <i type="int" name="ISMEAR">     0</i>
    <i name="SIGMA">      0.01000000</i>
    <i name="KSPACING">      0.50000000</i>
    <i type="logical" name="KGAMMA"> T  </i>
    <i type="logical" name="KBLOWUP"> T  </i>
   </separator>
   <separator name="electronic projectors" >
    <i type="logical" name="LREAL"> F  </i>
    <v name="ROPT">      0.00000000</v>
    <i type="int" name="LMAXPAW">  -100</i>
    <i type="int" name="LMAXMIX">     2</i>
    <i type="logical" name="NLSPLINE"> F  </i>
   </separator>
   <separator name="electronic startup" >
    <i type="int" name="ISTART">     0</i>
    <i type="int" name="ICHARG">    11</i>
    <i type="int" name="INIWAV">     1</i>
   </separator>
   <separator name="electronic spin" >
    <i type="int" name="ISPIN">     1</i>
    <i type="logical" name="LNONCOLLINEAR"> F  </i>
    <v name="MAGMOM">      1.00000000      1.00000000</v>
    <i name="NUPDOWN">     -1.00000000</i>
    <i type="logical" name="LSORBIT"> F  </i>
    <v name="SAXIS">      0.00000000      0.00000000      1.00000000</v>
    <i type="logical" name="LSPIRAL"> F  </i>
    <v name="QSPIRAL">      0.00000000      0.00000000      0.00000000</v>
    <i type="logical" name="LZEROZ"> F  </i>
   </separator>
   <separator name="electronic exchange-correlation" >
    <i type="logical" name="LASPH"> T  </i>
    <i type="logical" name="LMETAGGA"> F  </i>
   </separator>
   <separator name="electronic convergence" >
    <i type="int" name="NELM">   200</i>
    <i type="int" name="NELMDL">   -12</i>
    <i type="int" name="NELMIN">     6</i>
    <i name="ENINI">    234.78975000</i>
    <separator name="electronic convergence detail" >
     <i type="logical" name="LDIAG"> T  </i>
     <i type="logical" name="LSUBROT"> F  </i>
     <i name="WEIMIN">      0.00000000</i>
     <i name="EBREAK">      0.00000002</i>
     <i name="DEPER">      0.30000000</i>
     <i type="int" name="NRMM">     4</i>
     <i name="TIME">      0.40000000</i>
    </separator>
   </separator>
   <separator name="electronic mixer" >
    <i name="AMIX">      0.10000000</i>
    <i name="BMIX">      0.00010000</i>
    <i name="AMIN">      0.10000000</i>
    <i name="AMIX_MAG">      0.40000000</i>
    <i name="BMIX_MAG">      0.00010000</i>
    <separator name="electronic mixer details" >
     <i type="int" name="IMIX">     4</i>
     <i type="logical" name="MIXFIRST"> F  </i>
     <i type="int" name="MAXMIX">   -45</i>
     <i name="WC">    100.00000000</i>
     <i type="int" name="INIMIX">     1</i>
     <i type="int" name="MIXPRE">     1</i>
     <i type="int" name="MREMOVE">     5</i>
    </separator>
   </separator>
   <separator name="electronic dipolcorrection" >
    <i type="logical" name="LDIPOL"> F  </i>
    <i type="logical" name="LMONO"> F  </i>
    <i type="int" name="IDIPOL">     0</i>
    <i name="EPSILON">      1.00000000</i>
    <v name="DIPOL">   -100.00000000   -100.00000000   -100.00000000</v>
    <i name="EFIELD">      0.00000000</i>
   </separator>
  </separator>
  <separator name="grids" >
   <i type="int" name="NGX">    18</i>
   <i type="int" name="NGY">    18</i>
   <i type="int" name="NGZ">    80</i>
   <i type="int" name="NGXF">    36</i>
   <i type="int" name="NGYF">    36</i>
   <i type="int" name="NGZF">   160</i>
   <i type="logical" name="ADDGRID"> T  </i>
  </separator>
  <separator name="ionic" >
   <i type="int" name="NSW">     0</i>
   <i type="int" name="IBRION">    -1</i>
   <i type="int" name="MDALGO">     0</i>
   <i type="int" name="ISIF">    -1</i>
   <i name="PSTRESS">      0.00000000</i>
   <i name="EDIFFG">     -0.01000000</i>
   <i type="int" name="NFREE">     1</i>
   <i name="POTIM">      0.50000000</i>
   <i name="SMASS">     -3.00000000</i>
   <i name="SCALEE">      1.00000000</i>
  </separator>
  <separator name="ionic md" >
   <i name="TEBEG">      0.00010000</i>
   <i name="TEEND">      0.00010000</i>
   <i type="int" name="NBLOCK">     1</i>
   <i type="int" name="KBLOCK">     1</i>
   <i type="int" name="NPACO">   256</i>
   <i name="APACO">     10.00000000</i>
  </separator>
  <separator name="symmetry" >
   <i type="int" name="ISYM">     2</i>
   <i name="SYMPREC">      0.00001000</i>
  </separator>
  <separator name="dos" >
   <i type="int" name="LORBIT">    10</i>
   <v name="RWIGS">     -1.00000000</v>
   <i type="int" name="NEDOS">  6001</i>
   <i name="EMIN">     10.00000000</i>
   <i name="EMAX">    -10.00000000</i>
   <i name="EFERMI">      0.00000000</i>
  </separator>
  <separator name="writing" >
   <i type="int" name="NWRITE">     1</i>
   <i type="logical" name="LWAVE"> F  </i>
   <i type="logical" name="LDOWNSAMPLE"> F  </i>
   <i type="logical" name="LCHARG"> F  </i>
   <i type="logical" name="LPARD"> F  </i>
   <i type="logical" name="LVTOT"> F  </i>
   <i type="logical" name="LVHAR"> F  </i>
   <i type="logical" name="LELF"> F  </i>
   <i type="logical" name="LOPTICS"> F  </i>
   <v name="STM">      0.00000000      0.00000000      0.00000000      0.00000000      0.00000000      0.00000000      0.00000000</v>
  </separator>
  <separator name="performance" >
   <i type="int" name="NPAR">     4</i>
   <i type="int" name="NSIM">     4</i>
   <i type="int" name="NBLK">    -1</i>
   <i type="logical" name="LPLANE"> T  </i>
   <i type="logical" name="LSCALAPACK"> T  </i>
   <i type="logical" name="LSCAAWARE"> F  </i>
   <i type="logical" name="LSCALU"> F  </i>
   <i type="logical" name="LASYNC"> F  </i>
   <i type="logical" name="LORBITALREAL"> F  </i>
  </separator>
  <separator name="miscellaneous" >
   <i type="int" name="IDIOT">     3</i>
   <i type="int" name="PHON_NSTRUCT">    -1</i>
   <i type="logical" name="LMUSIC"> F  </i>
   <v name="POMASS">     74.92200000</v>
   <v name="DARWINR">      0.00000000</v>
   <v name="DARWINV">      1.00000000</v>
   <i type="logical" name="LCORR"> T  </i>
  </separator>
  <i type="logical" name="GGA_COMPAT"> T  </i>
  <i type="logical" name="LBERRY"> F  </i>
  <i type="int" name="ICORELEVEL">     0</i>
  <i type="logical" name="LDAU"> F  </i>
  <i type="int" name="I_CONSTRAINED_M">     0</i>
  <separator name="electronic exchange-correlation" >
   <i type="string" name="GGA">--</i>
   <i type="int" name="VOSKOWN">     0</i>
   <i type="logical" name="LHFCALC"> F  </i>
   <i type="string" name="PRECFOCK"></i>
   <i type="logical" name="LSYMGRAD"> F  </i>
   <i type="logical" name="LHFONE"> F  </i>
   <i type="logical" name="LRHFCALC"> F  </i>
   <i type="logical" name="LTHOMAS"> F  </i>
   <i type="logical" name="LMODELHF"> F  </i>
   <i type="logical" name="LFOCKACE"> F  </i>
   <i name="ENCUT4O">     -1.00000000</i>
   <i type="int" name="EXXOEP">     0</i>
   <i type="int" name="FOURORBIT">     0</i>
   <i name="AEXX">      0.00000000</i>
   <i name="HFALPHA">      0.00000000</i>
   <i name="MCALPHA">      0.00000000</i>
   <i name="ALDAX">      1.00000000</i>
   <i name="AGGAX">      1.00000000</i>
   <i name="ALDAC">      1.00000000</i>
   <i name="AGGAC">      1.00000000</i>
   <i type="int" name="NKREDX">     1</i>
   <i type="int" name="NKREDY">     1</i>
   <i type="int" name="NKREDZ">     1</i>
   <i type="logical" name="SHIFTRED"> F  </i>
   <i type="logical" name="ODDONLY"> F  </i>
   <i type="logical" name="EVENONLY"> F  </i>
   <i type="int" name="LMAXFOCK">     0</i>
   <i type="int" name="NMAXFOCKAE">     0</i>
   <i type="logical" name="LFOCKAEDFT"> F  </i>
   <i name="HFSCREEN">      0.00000000</i>
   <i name="HFSCREENC">      0.00000000</i>
   <i type="int" name="NBANDSGWLOW">     0</i>
  </separator>
  <separator name="vdW DFT" >
   <i type="logical" name="LUSE_VDW"> F  </i>
   <i type="int" name="IVDW_NL">     1</i>
   <i type="logical" name="LSPIN_VDW"> F  </i>
   <i name="Zab_VDW">     -0.84910000</i>
   <i name="PARAM1">      0.12340000</i>
   <i name="PARAM2">      1.00000000</i>
   <i name="PARAM3">      0.00000000</i>
  </separator>
  <separator name="model GW" >
   <i type="int" name="MODEL_GW">     0</i>
   <i name="MODEL_EPS0">     54.08019838</i>
   <i name="MODEL_ALPHA">      1.00000000</i>
  </separator>
  <separator name="linear response parameters" >
   <i type="logical" name="LEPSILON"> F  </i>
   <i type="logical" name="LRPA"> F  </i>
   <i type="logical" name="LNABLA"> F  </i>
   <i type="logical" name="LVEL"> F  </i>
   <i name="CSHIFT">      0.10000000</i>
   <i name="OMEGAMAX">     -1.00000000</i>
   <i name="DEG_THRESHOLD">      0.00200000</i>
   <i name="RTIME">     -0.10000000</i>
   <i name="WPLASMAI">      0.00000000</i>
   <v name="DFIELD">      0.00000000      0.00000000      0.00000000</v>
   <v name="WPLASMA">      0.00000000      0.00000000      0.00000000      0.00000000      0.00000000      0.00000000      0.00000000      0.00000000      0.00000000</v>
  </separator>
  <separator name="orbital magnetization" >
   <i type="logical" name="NUCIND"> F  </i>
   <v name="MAGPOS">      0.00000000      0.00000000      0.00000000</v>
   <i type="logical" name="LNICSALL"> T  </i>
   <i type="logical" name="ORBITALMAG"> F  </i>
   <i type="logical" name="LMAGBLOCH"> F  </i>
   <i type="logical" name="LCHIMAG"> F  </i>
   <i type="logical" name="LGAUGE"> T  </i>
   <i type="int" name="MAGATOM">     0</i>
   <v name="MAGDIPOL">      0.00000000      0.00000000      0.00000000</v>
   <v name="AVECCONST">      0.00000000      0.00000000      0.00000000</v>
  </separator>
  <separator name="response functions" >
   <i type="logical" name="LALL_IN_ONE"> F  </i>
   <i type="int" name="IALL_IN_ONE">    -1</i>
   <i type="int" name="NBANDS_WAVE">    -1</i>
   <i type="logical" name="LFINITE_TEMPERATURE"> F  </i>
   <i type="logical" name="LADDER"> F  </i>
   <i type="logical" name="LRPAFORCE"> F  </i>
   <i type="logical" name="LFXC"> F  </i>
   <i type="logical" name="LHARTREE"> T  </i>
   <i type="int" name="IBSE">     0</i>
   <v type="int" name="KPOINT">    -1     0     0     0</v>
   <i type="logical" name="LTCTC"> F  </i>
   <i type="logical" name="LTCTE"> F  </i>
   <i type="logical" name="LTETE"> F  </i>
   <i type="logical" name="LTRIPLET"> F  </i>
   <i type="logical" name="LFXCEPS"> F  </i>
   <i type="logical" name="LFXHEG"> F  </i>
   <i type="int" name="NATURALO">     2</i>
   <i type="logical" name="LHOLEGF"> F  </i>
   <i type="logical" name="L2ORDER"> F  </i>
   <i type="logical" name="LDMP1"> F  </i>
   <i type="logical" name="LMP2LT"> F  </i>
   <i type="logical" name="LSMP2LT"> F  </i>
   <i type="logical" name="LGWLF"> F  </i>
   <i name="ENCUTGW">     -1.60000002</i>
   <i name="ENCUTGWSOFT">     -1.60000002</i>
   <i name="ENCUTLF">     -1.00000000</i>
   <i type="logical" name="LESF_SPLINES"> F  </i>
   <i type="int" name="LMAXMP2">    -1</i>
   <i name="SCISSOR">      0.00000000</i>
   <i type="int" name="NOMEGA">     0</i>
   <i type="int" name="NOMEGAR">     0</i>
   <i type="int" name="NBANDSGW">    -1</i>
   <i type="int" name="NBANDSO">    -1</i>
   <i type="int" name="NBANDSV">    -1</i>
   <i type="int" name="NELMGW">     1</i>
   <i type="int" name="NELMHF">     1</i>
   <i type="int" name="DIM">     3</i>
   <i type="int" name="IESPILON">     4</i>
   <i type="int" name="ANTIRES">     0</i>
   <i name="OMEGAMAX">    -30.00000000</i>
   <i name="OMEGAMIN">    -30.00000000</i>
   <i name="OMEGATL">   -200.00000000</i>
   <i type="int" name="OMEGAGRID">     0</i>
   <i name="CSHIFT">     -0.10000000</i>
   <i type="logical" name="LSELFENERGY"> F  </i>
   <i type="logical" name="LSPECTRAL"> F  </i>
   <i type="logical" name="LSPECTRALGW"> F  </i>
   <i type="logical" name="LSINGLES"> F  </i>
   <i type="logical" name="LFERMIGW"> F  </i>
   <i type="logical" name="ODDONLYGW"> F  </i>
   <i type="logical" name="EVENONLYGW"> F  </i>
   <i type="int" name="NKREDLFX">     1</i>
   <i type="int" name="NKREDLFY">     1</i>
   <i type="int" name="NKREDLFZ">     1</i>
   <i type="int" name="MAXMEM">  2800</i>
   <i type="int" name="TELESCOPE">     0</i>
   <i type="int" name="NTAUPAR">    -1</i>
   <i type="int" name="NOMEGAPAR">    -1</i>
   <i name="DAMP_NEWTON">      0.80000001</i>
   <i name="LAMBDA">      1.00000000</i>
  </separator>
  <separator name="External order field" >
   <i name="OFIELD_KAPPA">      0.00000000</i>
   <v name="OFIELD_K">      0.00000000      0.00000000      0.00000000</v>
   <i name="OFIELD_Q6_NEAR">      0.00000000</i>
   <i name="OFIELD_Q6_FAR">      0.00000000</i>
   <i name="OFIELD_A">      0.00000000</i>
  </separator>
  <separator name="optional k-points parameters" >
   <i type="int" name="KPOINTS_OPT_MODE">     1</i>
   <i type="logical" name="LKPOINTS_OPT"> F  </i>
  </separator>
 </parameters>
 <atominfo>
  <atoms>       2 </atoms>
  <types>       1 </types>
  <array name="atoms" >
   <dimension dim="1">ion</dimension>
   <field type="string">element</field>
   <field type="int">atomtype</field>
   <set>
    <rc><c>As</c><c>   1</c></rc>
    <rc><c>As</c><c>   1</c></rc>
   </set>
  </array>
  <array name="atomtypes" >
   <dimension dim="1">type</dimension>
   <field type="int">atomspertype</field>
   <field type="string">element</field>
   <field>mass</field>
   <field>valence</field>
   <field type="string">pseudopotential</field>
   <set>
    <rc><c>   2</c><c>As</c><c>     74.92200000</c><c>      5.00000000</c><c>  PAW_PBE As_GW 20Mar2012               </c></rc>
   </set>
  </array>
 </atominfo>
 <structure name="initialpos" >
  <crystal>
   <varray name="basis" >
    <v>       3.60689254       0.00000000       0.00000000 </v>
    <v>      -1.80344627       3.12366057       0.00000000 </v>
    <v>       0.00000000       0.00000000      16.00000000 </v>
   </varray>
   <i name="volume">    180.26732792 </i>
   <varray name="rec_basis" >
    <v>       0.27724696       0.16006861       0.00000000 </v>
    <v>       0.00000000       0.32013722       0.00000000 </v>
    <v>       0.00000000       0.00000000       0.06250000 </v>
   </varray>
  </crystal>
  <varray name="positions" >
   <v>       0.66666667       0.33333333       0.45634314 </v>
   <v>       0.33333333       0.66666667       0.54365686 </v>
  </varray>
 </structure>
 <calculation>
  <scstep>
   <time name="dav">    1.32    1.32</time>
   <time name="total">    1.60    1.70</time>
   <energy>
    <i name="alphaZ">      5.26383816 </i>
    <i name="ewald">    378.22030483 </i>
    <i name="hartreedc">   -670.07988326 </i>
    <i name="XCdc">    -23.49315673 </i>
    <i name="pawpsdc">    332.29420147 </i>
    <i name="pawaedc">   -289.56758992 </i>
    <i name="eentropy">     -0.00001130 </i>
    <i name="bandstr">    -43.32029253 </i>
    <i name="atom">    340.36393574 </i>
    <i name="e_fr_energy">     29.68134646 </i>
    <i name="e_wo_entrp">     29.68135776 </i>
    <i name="e_0_energy">     29.68135211 </i>
   </energy>
  </scstep>
  <scstep>
   <time name="dav">    1.74    1.74</time>
   <time name="total">    1.75    1.75</time>
   <energy>
    <i name="e_fr_energy">     -6.12154746 </i>
    <i name="e_wo_entrp">     -6.12154746 </i>
    <i name="e_0_energy">     -6.12154746 </i>
   </energy>
  </scstep>
  <scstep>
   <time name="dav">    1.59    1.60</time>
   <time name="total">    1.60    1.60</time>
   <energy>
    <i name="e_fr_energy">     -9.13544173 </i>
    <i name="e_wo_entrp">     -9.13544173 </i>
    <i name="e_0_energy">     -9.13544173 </i>
   </energy>
  </scstep>
  <scstep>
   <time name="dav">    1.95    1.96</time>
   <time name="total">    1.96    1.96</time>
   <energy>
    <i name="e_fr_energy">     -9.33014676 </i>
    <i name="e_wo_entrp">     -9.33014676 </i>
    <i name="e_0_energy">     -9.33014676 </i>
   </energy>
  </scstep>
  <scstep>
   <time name="dav">    1.68    1.68</time>
   <time name="total">    1.69    1.69</time>
   <energy>
    <i name="e_fr_energy">     -9.33197566 </i>
    <i name="e_wo_entrp">     -9.33197566 </i>
    <i name="e_0_energy">     -9.33197566 </i>
   </energy>
  </scstep>
  <scstep>
   <time name="dav">    1.80    1.80</time>
   <time name="total">    1.80    1.80</time>
   <energy>
    <i name="e_fr_energy">     -9.33205311 </i>
    <i name="e_wo_entrp">     -9.33205311 </i>
    <i name="e_0_energy">     -9.33205311 </i>
   </energy>
  </scstep>
  <scstep>
   <time name="dav">    1.54    1.55</time>
   <time name="total">    1.55    1.55</time>
   <energy>
    <i name="e_fr_energy">     -9.33205375 </i>
    <i name="e_wo_entrp">     -9.33205375 </i>
    <i name="e_0_energy">     -9.33205375 </i>
   </energy>
  </scstep>
  <scstep>
   <time name="dav">    1.49    1.49</time>
   <time name="total">    1.49    1.50</time>
   <energy>
    <i name="e_fr_energy">     -9.33205377 </i>
    <i name="e_wo_entrp">     -9.33205377 </i>
    <i name="e_0_energy">     -9.33205377 </i>
   </energy>
  </scstep>
  <scstep>
   <time name="dav">    1.48    1.48</time>
   <time name="total">    1.48    1.48</time>
   <energy>
    <i name="e_fr_energy">     -9.33205377 </i>
    <i name="e_wo_entrp">     -9.33205377 </i>
    <i name="e_0_energy">     -9.33205377 </i>
   </energy>
  </scstep>
  <scstep>
   <time name="dav">    1.23    1.23</time>
   <time name="total">    1.23    1.23</time>
   <energy>
    <i name="e_fr_energy">     -9.33205377 </i>
    <i name="e_wo_entrp">     -9.33205377 </i>
    <i name="e_0_energy">     -9.33205377 </i>
   </energy>
  </scstep>
  <scstep>
   <time name="dav">    1.19    1.19</time>
   <time name="total">    1.19    1.19</time>
   <energy>
    <i name="e_fr_energy">     -9.33205377 </i>
    <i name="e_wo_entrp">     -9.33205377 </i>
    <i name="e_0_energy">     -9.33205377 </i>
   </energy>
  </scstep>
  <scstep>
   <time name="dav">    1.12    1.12</time>
   <time name="total">    1.12    1.12</time>
   <energy>
    <i name="e_fr_energy">     -9.33205377 </i>
    <i name="e_wo_entrp">     -9.33205377 </i>
    <i name="e_0_energy">     -9.33205377 </i>
   </energy>
  </scstep>
  <scstep>
   <time name="dav">    1.03    1.04</time>
   <time name="total">    1.04    1.04</time>
   <energy>
    <i name="alphaZ">      5.26383816 </i>
    <i name="ewald">    378.22030483 </i>
    <i name="hartreedc">   -670.07988326 </i>
    <i name="XCdc">    -23.49315673 </i>
    <i name="pawpsdc">    332.29420147 </i>
    <i name="pawaedc">   -289.56758992 </i>
    <i name="eentropy">     -0.00000000 </i>
    <i name="bandstr">    -82.33370406 </i>
    <i name="atom">    340.36393574 </i>
    <i name="e_fr_energy">     -9.33205377 </i>
    <i name="e_wo_entrp">     -9.33205377 </i>
    <i name="e_0_energy">     -9.33205377 </i>
   </energy>
  </scstep>
  <structure>
   <crystal>
    <varray name="basis" >
     <v>       3.60689254       0.00000000       0.00000000 </v>
     <v>      -1.80344627       3.12366057       0.00000000 </v>
     <v>       0.00000000       0.00000000      16.00000000 </v>
    </varray>
    <i name="volume">    180.26732792 </i>
    <varray name="rec_basis" >
     <v>       0.27724696       0.16006861       0.00000000 </v>
     <v>       0.00000000       0.32013722       0.00000000 </v>
     <v>       0.00000000       0.00000000       0.06250000 </v>
    </varray>
   </crystal>
   <varray name="positions" >
    <v>       0.66666667       0.33333333       0.45634314 </v>
    <v>       0.33333333       0.66666667       0.54365686 </v>
   </varray>
  </structure>
  <varray name="forces" >
   <v>       0.00000000       0.00000000       0.00000000 </v>
   <v>       0.00000000       0.00000000       0.00000000 </v>
  </varray>
  <varray name="stress" >
   <v>       0.00000000       0.00000000       0.00000000 </v>
   <v>       0.00000000       0.00000000       0.00000000 </v>
   <v>       0.00000000       0.00000000       0.00000000 </v>
  </varray>
  <energy>
   <i name="e_fr_energy">     -9.33205377 </i>
   <i name="e_wo_entrp">     -9.33205377 </i>
   <i name="e_0_energy">     -9.33205377 </i>
  </energy>
  <time name="totalsc">   19.51   20.00</time>
  <eigenvalues>
   <array>
    <dimension dim="1">band</dimension>
    <dimension dim="2">kpoint</dimension>
    <dimension dim="3">spin</dimension>
    <field>eigene</field>
    <field>occ</field>
    <set>
     <set comment="spin 1">
      <set comment="kpoint 1">
       <r>  -16.4747    1.0000 </r>
       <r>  -10.1870    1.0000 </r>
       <r>   -3.5626    1.0000 </r>
       <r>   -3.0130    1.0000 </r>
       <r>   -3.0130    1.0000 </r>
       <r>   -1.0922    0.0000 </r>
       <r>    0.4764    0.0000 </r>
       <r>    0.4764    0.0000 </r>
       <r>    1.9033    0.0000 </r>
       <r>    1.9965    0.0000 </r>
       <r>    3.3760    0.0000 </r>
       <r>    4.3040    0.0000 </r>
       <r>    5.8644    0.0000 </r>
       <r>    6.8851    0.0000 </r>
       <r>    7.0694    0.0000 </r>
       <r>    7.0694    0.0000 </r>
      </set>
      <set comment="kpoint 2">
       <r>  -16.4729    1.0000 </r>
       <r>  -10.1867    1.0000 </r>
       <r>   -3.5617    1.0000 </r>
       <r>   -3.0392    1.0000 </r>
       <r>   -3.0175    1.0000 </r>
       <r>   -1.0689    0.0000 </r>
       <r>    0.4710    0.0000 </r>
       <r>    0.4811    0.0000 </r>
       <r>    1.9059    0.0000 </r>
       <r>    1.9988    0.0000 </r>
       <r>    3.3782    0.0000 </r>
       <r>    4.3062    0.0000 </r>
       <r>    5.8731    0.0000 </r>
       <r>    6.8292    0.0000 </r>
       <r>    7.0668    0.0000 </r>
       <r>    7.1160    0.0000 </r>
      </set>
      <set comment="kpoint 3">
       <r>  -16.4674    1.0000 </r>
       <r>  -10.1858    1.0000 </r>
       <r>   -3.5589    1.0000 </r>
       <r>   -3.1137    1.0000 </r>
       <r>   -3.0310    1.0000 </r>
       <r>   -1.0032    0.0000 </r>
       <r>    0.4551    0.0000 </r>
       <r>    0.4954    0.0000 </r>
       <r>    1.9138    0.0000 </r>
       <r>    2.0057    0.0000 </r>
       <r>    3.3847    0.0000 </r>
       <r>    4.3129    0.0000 </r>
       <r>    5.8987    0.0000 </r>
       <r>    6.7205    0.0000 </r>
       <r>    7.0585    0.0000 </r>
       <r>    7.1978    0.0000 </r>
      </set>
      <set comment="kpoint 4">
       <r>  -16.4582    1.0000 </r>
       <r>  -10.1844    1.0000 </r>
       <r>   -3.5543    1.0000 </r>
       <r>   -3.2271    1.0000 </r>
       <r>   -3.0536    1.0000 </r>
       <r>   -0.9057    0.0000 </r>
       <r>    0.4294    0.0000 </r>
       <r>    0.5197    0.0000 </r>
       <r>    1.9271    0.0000 </r>
       <r>    2.0172    0.0000 </r>
       <r>    3.3953    0.0000 </r>
       <r>    4.3239    0.0000 </r>
       <r>    5.9399    0.0000 </r>
       <r>    6.5954    0.0000 </r>
       <r>    7.0441    0.0000 </r>
       <r>    7.2826    0.0000 </r>
      </set>
      <set comment="kpoint 5">
       <r>  -16.4453    1.0000 </r>
       <r>  -10.1825    1.0000 </r>
       <r>   -3.5479    1.0000 </r>
       <r>   -3.3685    1.0000 </r>
       <r>   -3.0852    1.0000 </r>
       <r>   -0.7881    0.0000 </r>
       <r>    0.3951    0.0000 </r>
       <r>    0.5548    0.0000 </r>
       <r>    1.9456    0.0000 </r>
       <r>    2.0330    0.0000 </r>
       <r>    3.4098    0.0000 </r>
       <r>    4.3393    0.0000 </r>
       <r>    5.9937    0.0000 </r>
       <r>    6.4636    0.0000 </r>
       <r>    7.0225    0.0000 </r>
       <r>    7.3671    0.0000 </r>
      </set>
      <set comment="kpoint 6">
       <r>  -16.4287    1.0000 </r>
       <r>  -10.1802    1.0000 </r>
       <r>   -3.5399    1.0000 </r>
       <r>   -3.5286    1.0000 </r>
       <r>   -3.1258    1.0000 </r>
       <r>   -0.6613    0.0000 </r>
       <r>    0.3540    0.0000 </r>
       <r>    0.6015    0.0000 </r>
       <r>    1.9697    0.0000 </r>
       <r>    2.0530    0.0000 </r>
       <r>    3.4279    0.0000 </r>
       <r>    4.3591    0.0000 </r>
       <r>    6.0523    0.0000 </r>
       <r>    6.3349    0.0000 </r>
       <r>    6.9926    0.0000 </r>
       <r>    7.4530    0.0000 </r>
      </set>
      <set comment="kpoint 7">
       <r>  -16.4085    1.0000 </r>
       <r>  -10.1778    1.0000 </r>
       <r>   -3.7007    1.0000 </r>
       <r>   -3.5303    1.0000 </r>
       <r>   -3.1754    1.0000 </r>
       <r>   -0.5337    0.0000 </r>
       <r>    0.3075    0.0000 </r>
       <r>    0.6607    0.0000 </r>
       <r>    1.9991    0.0000 </r>
       <r>    2.0771    0.0000 </r>
       <r>    3.4492    0.0000 </r>
       <r>    4.3832    0.0000 </r>
       <r>    6.0766    0.0000 </r>
       <r>    6.2487    0.0000 </r>
       <r>    6.9535    0.0000 </r>
       <r>    7.5143    0.0000 </r>
      </set>
      <set comment="kpoint 8">
       <r>  -16.3846    1.0000 </r>
       <r>  -10.1754    1.0000 </r>
       <r>   -3.8798    1.0000 </r>
       <r>   -3.5196    1.0000 </r>
       <r>   -3.2338    1.0000 </r>
       <r>   -0.4116    0.0000 </r>
       <r>    0.2572    0.0000 </r>
       <r>    0.7325    0.0000 </r>
       <r>    2.0341    0.0000 </r>
       <r>    2.1051    0.0000 </r>
       <r>    3.4735    0.0000 </r>
       <r>    4.4114    0.0000 </r>
       <r>    5.9901    0.0000 </r>
       <r>    6.2813    0.0000 </r>
       <r>    6.9054    0.0000 </r>
       <r>    7.4810    0.0000 </r>
      </set>
      <set comment="kpoint 9">
       <r>  -16.3571    1.0000 </r>
       <r>  -10.1732    1.0000 </r>
       <r>   -4.0623    1.0000 </r>
       <r>   -3.5077    1.0000 </r>
       <r>   -3.3007    1.0000 </r>
       <r>   -0.2991    0.0000 </r>
       <r>    0.2048    0.0000 </r>
       <r>    0.8162    0.0000 </r>
       <r>    2.0744    0.0000 </r>
       <r>    2.1369    0.0000 </r>
       <r>    3.5002    0.0000 </r>
       <r>    4.4438    0.0000 </r>
       <r>    5.8620    0.0000 </r>
       <r>    6.3630    0.0000 </r>
       <r>    6.8499    0.0000 </r>
       <r>    7.4563    0.0000 </r>
      </set>
      <set comment="kpoint 10">
       <r>  -16.3260    1.0000 </r>
       <r>  -10.1716    1.0000 </r>
       <r>   -4.2455    1.0000 </r>
       <r>   -3.4957    1.0000 </r>
       <r>   -3.3752    1.0000 </r>
       <r>   -0.1980    0.0000 </r>
       <r>    0.1517    0.0000 </r>
       <r>    0.9097    0.0000 </r>
       <r>    2.1200    0.0000 </r>
       <r>    2.1724    0.0000 </r>
       <r>    3.5292    0.0000 </r>
       <r>    4.4800    0.0000 </r>
       <r>    5.7304    0.0000 </r>
       <r>    6.4549    0.0000 </r>
       <r>    6.7901    0.0000 </r>
       <r>    7.4315    0.0000 </r>
      </set>
      <set comment="kpoint 11">
       <r>  -16.2913    1.0000 </r>
       <r>  -10.1709    1.0000 </r>
       <r>   -4.4275    1.0000 </r>
       <r>   -3.4919    1.0000 </r>
       <r>   -3.4489    1.0000 </r>
       <r>   -0.1085    0.0000 </r>
       <r>    0.0992    0.0000 </r>
       <r>    1.0100    0.0000 </r>
       <r>    2.1703    0.0000 </r>
       <r>    2.2116    0.0000 </r>
       <r>    3.5600    0.0000 </r>
       <r>    4.5198    0.0000 </r>
       <r>    5.6028    0.0000 </r>
       <r>    6.5493    0.0000 </r>
       <r>    6.7305    0.0000 </r>
       <r>    7.4077    0.0000 </r>
      </set>
      <set comment="kpoint 12">
       <r>  -16.2530    1.0000 </r>
       <r>  -10.1714    1.0000 </r>
       <r>   -4.6067    1.0000 </r>
       <r>   -3.5594    1.0000 </r>
       <r>   -3.4587    1.0000 </r>
       <r>   -0.0295    0.0000 </r>
       <r>    0.0481    0.0000 </r>
       <r>    1.1130    0.0000 </r>
       <r>    2.2248    0.0000 </r>
       <r>    2.2544    0.0000 </r>
       <r>    3.5922    0.0000 </r>
       <r>    4.5632    0.0000 </r>
       <r>    5.4818    0.0000 </r>
       <r>    6.6431    0.0000 </r>
       <r>    6.6758    0.0000 </r>
       <r>    7.3851    0.0000 </r>
      </set>
      <set comment="kpoint 13">
       <r>  -16.2111    1.0000 </r>
       <r>  -10.1735    1.0000 </r>
       <r>   -4.7814    1.0000 </r>
       <r>   -3.6567    1.0000 </r>
       <r>   -3.4457    1.0000 </r>
       <r>   -0.0005    0.0000 </r>
       <r>    0.0407    0.0000 </r>
       <r>    1.2145    0.0000 </r>
       <r>    2.2825    0.0000 </r>
       <r>    2.3008    0.0000 </r>
       <r>    3.6255    0.0000 </r>
       <r>    4.6097    0.0000 </r>
       <r>    5.3699    0.0000 </r>
       <r>    6.6301    0.0000 </r>
       <r>    6.7345    0.0000 </r>
       <r>    7.3640    0.0000 </r>
      </set>
      <set comment="kpoint 14">
       <r>  -16.1657    1.0000 </r>
       <r>  -10.1778    1.0000 </r>
       <r>   -4.9505    1.0000 </r>
       <r>   -3.7622    1.0000 </r>
       <r>   -3.4313    1.0000 </r>
       <r>   -0.0461    0.0000 </r>
       <r>    0.1039    0.0000 </r>
       <r>    1.3112    0.0000 </r>
       <r>    2.3422    0.0000 </r>
       <r>    2.3507    0.0000 </r>
       <r>    3.6592    0.0000 </r>
       <r>    4.6591    0.0000 </r>
       <r>    5.2685    0.0000 </r>
       <r>    6.5967    0.0000 </r>
       <r>    6.8229    0.0000 </r>
       <r>    7.3448    0.0000 </r>
      </set>
      <set comment="kpoint 15">
       <r>  -16.1168    1.0000 </r>
       <r>  -10.1846    1.0000 </r>
       <r>   -5.1130    1.0000 </r>
       <r>   -3.8743    1.0000 </r>
       <r>   -3.4169    1.0000 </r>
       <r>   -0.0883    0.0000 </r>
       <r>    0.1614    0.0000 </r>
       <r>    1.4002    0.0000 </r>
       <r>    2.4024    0.0000 </r>
       <r>    2.4040    0.0000 </r>
       <r>    3.6931    0.0000 </r>
       <r>    4.7115    0.0000 </r>
       <r>    5.1790    0.0000 </r>
       <r>    6.5771    0.0000 </r>
       <r>    6.9079    0.0000 </r>
       <r>    7.3287    0.0000 </r>
      </set>
      <set comment="kpoint 16">
       <r>  -16.0645    1.0000 </r>
       <r>  -10.1946    1.0000 </r>
       <r>   -5.2680    1.0000 </r>
       <r>   -3.9921    1.0000 </r>
       <r>   -3.4034    1.0000 </r>
       <r>   -0.1266    0.0000 </r>
       <r>    0.2142    0.0000 </r>
       <r>    1.4792    0.0000 </r>
       <r>    2.4608    0.0000 </r>
       <r>    2.4621    0.0000 </r>
       <r>    3.7264    0.0000 </r>
       <r>    4.7667    0.0000 </r>
       <r>    5.1029    0.0000 </r>
       <r>    6.5701    0.0000 </r>
       <r>    6.9895    0.0000 </r>
       <r>    7.3182    0.0000 </r>
      </set>
      <set comment="kpoint 17">
       <r>  -16.0087    1.0000 </r>
       <r>  -10.2084    1.0000 </r>
       <r>   -5.4143    1.0000 </r>
       <r>   -4.1146    1.0000 </r>
       <r>   -3.3911    1.0000 </r>
       <r>   -0.1607    0.0000 </r>
       <r>    0.2630    0.0000 </r>
       <r>    1.5471    0.0000 </r>
       <r>    2.5208    0.0000 </r>
       <r>    2.5209    0.0000 </r>
       <r>    3.7588    0.0000 </r>
       <r>    4.8250    0.0000 </r>
       <r>    5.0412    0.0000 </r>
       <r>    6.5723    0.0000 </r>
       <r>    7.0677    0.0000 </r>
       <r>    7.3178    0.0000 </r>
      </set>
      <set comment="kpoint 18">
       <r>  -15.9495    1.0000 </r>
       <r>  -10.2264    1.0000 </r>
       <r>   -5.5511    1.0000 </r>
       <r>   -4.2412    1.0000 </r>
       <r>   -3.3807    1.0000 </r>
       <r>   -0.1903    0.0000 </r>
       <r>    0.3081    0.0000 </r>
       <r>    1.6025    0.0000 </r>
       <r>    2.5784    0.0000 </r>
       <r>    2.5843    0.0000 </r>
       <r>    3.7900    0.0000 </r>
       <r>    4.8869    0.0000 </r>
       <r>    4.9950    0.0000 </r>
       <r>    6.5762    0.0000 </r>
       <r>    7.1425    0.0000 </r>
       <r>    7.3341    0.0000 </r>
      </set>
      <set comment="kpoint 19">
       <r>  -15.8870    1.0000 </r>
       <r>  -10.2493    1.0000 </r>
       <r>   -5.6778    1.0000 </r>
       <r>   -4.3713    1.0000 </r>
       <r>   -3.3725    1.0000 </r>
       <r>   -0.2152    0.0000 </r>
       <r>    0.3490    0.0000 </r>
       <r>    1.6449    0.0000 </r>
       <r>    2.6360    0.0000 </r>
       <r>    2.6509    0.0000 </r>
       <r>    3.8198    0.0000 </r>
       <r>    4.9527    0.0000 </r>
       <r>    4.9647    0.0000 </r>
       <r>    6.5730    0.0000 </r>
       <r>    7.2137    0.0000 </r>
       <r>    7.3741    0.0000 </r>
      </set>
      <set comment="kpoint 20">
       <r>  -15.8212    1.0000 </r>
       <r>  -10.2775    1.0000 </r>
       <r>   -5.7935    1.0000 </r>
       <r>   -4.5041    1.0000 </r>
       <r>   -3.3674    1.0000 </r>
       <r>   -0.2350    0.0000 </r>
       <r>    0.3855    0.0000 </r>
       <r>    1.6744    0.0000 </r>
       <r>    2.6950    0.0000 </r>
       <r>    2.7206    0.0000 </r>
       <r>    3.8486    0.0000 </r>
       <r>    4.9505    0.0000 </r>
       <r>    5.0229    0.0000 </r>
       <r>    6.5557    0.0000 </r>
       <r>    7.2808    0.0000 </r>
       <r>    7.4427    0.0000 </r>
      </set>
      <set comment="kpoint 21">
       <r>  -15.7521    1.0000 </r>
       <r>  -10.3117    1.0000 </r>
       <r>   -5.8975    1.0000 </r>
       <r>   -4.6390    1.0000 </r>
       <r>   -3.3657    1.0000 </r>
       <r>   -0.2494    0.0000 </r>
       <r>    0.4166    0.0000 </r>
       <r>    1.6917    0.0000 </r>
       <r>    2.7571    0.0000 </r>
       <r>    2.7933    0.0000 </r>
       <r>    3.8769    0.0000 </r>
       <r>    4.9518    0.0000 </r>
       <r>    5.0979    0.0000 </r>
       <r>    6.5211    0.0000 </r>
       <r>    7.3429    0.0000 </r>
       <r>    7.5403    0.0000 </r>
      </set>
      <set comment="kpoint 22">
       <r>  -15.6799    1.0000 </r>
       <r>  -10.3521    1.0000 </r>
       <r>   -5.9895    1.0000 </r>
       <r>   -4.7753    1.0000 </r>
       <r>   -3.3680    1.0000 </r>
       <r>   -0.2583    0.0000 </r>
       <r>    0.4412    0.0000 </r>
       <r>    1.6984    0.0000 </r>
       <r>    2.8237    0.0000 </r>
       <r>    2.8688    0.0000 </r>
       <r>    3.9059    0.0000 </r>
       <r>    4.9679    0.0000 </r>
       <r>    5.1778    0.0000 </r>
       <r>    6.4701    0.0000 </r>
       <r>    7.3985    0.0000 </r>
       <r>    7.6620    0.0000 </r>
      </set>
      <set comment="kpoint 23">
       <r>  -15.6046    1.0000 </r>
       <r>  -10.3992    1.0000 </r>
       <r>   -6.0689    1.0000 </r>
       <r>   -4.9124    1.0000 </r>
       <r>   -3.3748    1.0000 </r>
       <r>   -0.2613    0.0000 </r>
       <r>    0.4579    0.0000 </r>
       <r>    1.6972    0.0000 </r>
       <r>    2.8958    0.0000 </r>
       <r>    2.9472    0.0000 </r>
       <r>    3.9369    0.0000 </r>
       <r>    4.9975    0.0000 </r>
       <r>    5.2628    0.0000 </r>
       <r>    6.4058    0.0000 </r>
       <r>    7.4456    0.0000 </r>
       <r>    7.8013    0.0000 </r>
      </set>
      <set comment="kpoint 24">
       <r>  -15.5262    1.0000 </r>
       <r>  -10.4530    1.0000 </r>
       <r>   -6.1355    1.0000 </r>
       <r>   -5.0497    1.0000 </r>
       <r>   -3.3866    1.0000 </r>
       <r>   -0.2578    0.0000 </r>
       <r>    0.4652    0.0000 </r>
       <r>    1.6915    0.0000 </r>
       <r>    2.9740    0.0000 </r>
       <r>    3.0282    0.0000 </r>
       <r>    3.9713    0.0000 </r>
       <r>    5.0391    0.0000 </r>
       <r>    5.3529    0.0000 </r>
       <r>    6.3316    0.0000 </r>
       <r>    7.4816    0.0000 </r>
       <r>    7.9511    0.0000 </r>
      </set>
      <set comment="kpoint 25">
       <r>  -15.4449    1.0000 </r>
       <r>  -10.5136    1.0000 </r>
       <r>   -6.1892    1.0000 </r>
       <r>   -5.1867    1.0000 </r>
       <r>   -3.4037    1.0000 </r>
       <r>   -0.2477    0.0000 </r>
       <r>    0.4615    0.0000 </r>
       <r>    1.6844    0.0000 </r>
       <r>    3.0582    0.0000 </r>
       <r>    3.1118    0.0000 </r>
       <r>    4.0105    0.0000 </r>
       <r>    5.0910    0.0000 </r>
       <r>    5.4478    0.0000 </r>
       <r>    6.2505    0.0000 </r>
       <r>    7.5032    0.0000 </r>
       <r>    8.1041    0.0000 </r>
      </set>
      <set comment="kpoint 26">
       <r>  -15.3607    1.0000 </r>
       <r>  -10.5809    1.0000 </r>
       <r>   -6.2302    1.0000 </r>
       <r>   -5.3230    1.0000 </r>
       <r>   -3.4264    1.0000 </r>
       <r>   -0.2308    0.0000 </r>
       <r>    0.4455    0.0000 </r>
       <r>    1.6792    0.0000 </r>
       <r>    3.1484    0.0000 </r>
       <r>    3.1980    0.0000 </r>
       <r>    4.0555    0.0000 </r>
       <r>    5.1517    0.0000 </r>
       <r>    5.5476    0.0000 </r>
       <r>    6.1654    0.0000 </r>
       <r>    7.5076    0.0000 </r>
       <r>    8.2545    0.0000 </r>
      </set>
      <set comment="kpoint 27">
       <r>  -15.2737    1.0000 </r>
       <r>  -10.6546    1.0000 </r>
       <r>   -6.2586    1.0000 </r>
       <r>   -5.4580    1.0000 </r>
       <r>   -3.4548    1.0000 </r>
       <r>   -0.2066    0.0000 </r>
       <r>    0.4168    0.0000 </r>
       <r>    1.6781    0.0000 </r>
       <r>    3.2443    0.0000 </r>
       <r>    3.2866    0.0000 </r>
       <r>    4.1073    0.0000 </r>
       <r>    5.2198    0.0000 </r>
       <r>    5.6518    0.0000 </r>
       <r>    6.0786    0.0000 </r>
       <r>    7.4925    0.0000 </r>
       <r>    8.3964    0.0000 </r>
      </set>
      <set comment="kpoint 28">
       <r>  -15.1841    1.0000 </r>
       <r>  -10.7343    1.0000 </r>
       <r>   -6.2750    1.0000 </r>
       <r>   -5.5913    1.0000 </r>
       <r>   -3.4891    1.0000 </r>
       <r>   -0.1754    0.0000 </r>
       <r>    0.3753    0.0000 </r>
       <r>    1.6824    0.0000 </r>
       <r>    3.3456    0.0000 </r>
       <r>    3.3778    0.0000 </r>
       <r>    4.1664    0.0000 </r>
       <r>    5.2936    0.0000 </r>
       <r>    5.7596    0.0000 </r>
       <r>    5.9929    0.0000 </r>
       <r>    7.4580    0.0000 </r>
       <r>    8.5237    0.0000 </r>
      </set>
      <set comment="kpoint 29">
       <r>  -15.0919    1.0000 </r>
       <r>  -10.8197    1.0000 </r>
       <r>   -6.2798    1.0000 </r>
       <r>   -5.7226    1.0000 </r>
       <r>   -3.5290    1.0000 </r>
       <r>   -0.1369    0.0000 </r>
       <r>    0.3221    0.0000 </r>
       <r>    1.6924    0.0000 </r>
       <r>    3.4521    0.0000 </r>
       <r>    3.4715    0.0000 </r>
       <r>    4.2332    0.0000 </r>
       <r>    5.3718    0.0000 </r>
       <r>    5.8579    0.0000 </r>
       <r>    5.9230    0.0000 </r>
       <r>    7.4064    0.0000 </r>
       <r>    8.6302    0.0000 </r>
      </set>
      <set comment="kpoint 30">
       <r>  -14.9973    1.0000 </r>
       <r>  -10.9100    1.0000 </r>
       <r>   -6.2735    1.0000 </r>
       <r>   -5.8513    1.0000 </r>
       <r>   -3.5745    1.0000 </r>
       <r>   -0.0911    0.0000 </r>
       <r>    0.2586    0.0000 </r>
       <r>    1.7076    0.0000 </r>
       <r>    3.5633    0.0000 </r>
       <r>    3.5680    0.0000 </r>
       <r>    4.3077    0.0000 </r>
       <r>    5.4526    0.0000 </r>
       <r>    5.8160    0.0000 </r>
       <r>    6.0014    0.0000 </r>
       <r>    7.3422    0.0000 </r>
       <r>    8.7091    0.0000 </r>
      </set>
      <set comment="kpoint 31">
       <r>  -14.9004    1.0000 </r>
       <r>  -11.0047    1.0000 </r>
       <r>   -6.2570    1.0000 </r>
       <r>   -5.9772    1.0000 </r>
       <r>   -3.6252    1.0000 </r>
       <r>   -0.0385    0.0000 </r>
       <r>    0.1867    0.0000 </r>
       <r>    1.7267    0.0000 </r>
       <r>    3.6674    0.0000 </r>
       <r>    3.6790    0.0000 </r>
       <r>    4.3896    0.0000 </r>
       <r>    5.5343    0.0000 </r>
       <r>    5.7411    0.0000 </r>
       <r>    6.1218    0.0000 </r>
       <r>    7.2710    0.0000 </r>
       <r>    8.7527    0.0000 </r>
      </set>
      <set comment="kpoint 32">
       <r>  -14.8014    1.0000 </r>
       <r>  -11.1032    1.0000 </r>
       <r>   -6.2309    1.0000 </r>
       <r>   -6.0999    1.0000 </r>
       <r>   -3.6809    1.0000 </r>
       <r>    0.0211    0.0000 </r>
       <r>    0.1082    0.0000 </r>
       <r>    1.7484    0.0000 </r>
       <r>    3.7700    0.0000 </r>
       <r>    3.7990    0.0000 </r>
       <r>    4.4786    0.0000 </r>
       <r>    5.6145    0.0000 </r>
       <r>    5.6709    0.0000 </r>
       <r>    6.2485    0.0000 </r>
       <r>    7.1986    0.0000 </r>
       <r>    8.7574    0.0000 </r>
      </set>
      <set comment="kpoint 33">
       <r>  -14.7004    1.0000 </r>
       <r>  -11.2049    1.0000 </r>
       <r>   -6.2189    1.0000 </r>
       <r>   -6.1960    1.0000 </r>
       <r>   -3.7409    1.0000 </r>
       <r>    0.0251    0.0000 </r>
       <r>    0.0870    0.0000 </r>
       <r>    1.7711    0.0000 </r>
       <r>    3.8760    0.0000 </r>
       <r>    3.9229    0.0000 </r>
       <r>    4.5737    0.0000 </r>
       <r>    5.6080    0.0000 </r>
       <r>    5.6904    0.0000 </r>
       <r>    6.3798    0.0000 </r>
       <r>    7.1313    0.0000 </r>
       <r>    8.7246    0.0000 </r>
      </set>
      <set comment="kpoint 34">
       <r>  -14.5977    1.0000 </r>
       <r>  -11.3090    1.0000 </r>
       <r>   -6.3340    1.0000 </r>
       <r>   -6.1531    1.0000 </r>
       <r>   -3.8050    1.0000 </r>
       <r>   -0.0611    0.0000 </r>
       <r>    0.1590    0.0000 </r>
       <r>    1.7932    0.0000 </r>
       <r>    3.9855    0.0000 </r>
       <r>    4.0505    0.0000 </r>
       <r>    4.6740    0.0000 </r>
       <r>    5.5540    0.0000 </r>
       <r>    5.7585    0.0000 </r>
       <r>    6.5156    0.0000 </r>
       <r>    7.0751    0.0000 </r>
       <r>    8.6608    0.0000 </r>
      </set>
      <set comment="kpoint 35">
       <r>  -14.4934    1.0000 </r>
       <r>  -11.4150    1.0000 </r>
       <r>   -6.4449    1.0000 </r>
       <r>   -6.1029    1.0000 </r>
       <r>   -3.8725    1.0000 </r>
       <r>   -0.1489    0.0000 </r>
       <r>    0.2365    0.0000 </r>
       <r>    1.8135    0.0000 </r>
       <r>    4.0989    0.0000 </r>
       <r>    4.1814    0.0000 </r>
       <r>    4.7782    0.0000 </r>
       <r>    5.5105    0.0000 </r>
       <r>    5.8153    0.0000 </r>
       <r>    6.6556    0.0000 </r>
       <r>    7.0366    0.0000 </r>
       <r>    8.5738    0.0000 </r>
      </set>
      <set comment="kpoint 36">
       <r>  -14.3877    1.0000 </r>
       <r>  -11.5224    1.0000 </r>
       <r>   -6.5511    1.0000 </r>
       <r>   -6.0462    1.0000 </r>
       <r>   -3.9430    1.0000 </r>
       <r>   -0.2370    0.0000 </r>
       <r>    0.3191    0.0000 </r>
       <r>    1.8306    0.0000 </r>
       <r>    4.2163    0.0000 </r>
       <r>    4.3151    0.0000 </r>
       <r>    4.8841    0.0000 </r>
       <r>    5.4787    0.0000 </r>
       <r>    5.8578    0.0000 </r>
       <r>    6.7999    0.0000 </r>
       <r>    7.0210    0.0000 </r>
       <r>    8.4678    0.0000 </r>
      </set>
      <set comment="kpoint 37">
       <r>  -14.2810    1.0000 </r>
       <r>  -11.6306    1.0000 </r>
       <r>   -6.6525    1.0000 </r>
       <r>   -5.9838    1.0000 </r>
       <r>   -4.0160    1.0000 </r>
       <r>   -0.3243    0.0000 </r>
       <r>    0.4062    0.0000 </r>
       <r>    1.8433    0.0000 </r>
       <r>    4.3378    0.0000 </r>
       <r>    4.4509    0.0000 </r>
       <r>    4.9884    0.0000 </r>
       <r>    5.4599    0.0000 </r>
       <r>    5.8862    0.0000 </r>
       <r>    6.9482    0.0000 </r>
       <r>    7.0318    0.0000 </r>
       <r>    8.3122    0.0000 </r>
      </set>
      <set comment="kpoint 38">
       <r>  -14.1734    1.0000 </r>
       <r>  -11.7391    1.0000 </r>
       <r>   -6.7485    1.0000 </r>
       <r>   -5.9165    1.0000 </r>
       <r>   -4.0909    1.0000 </r>
       <r>   -0.4096    0.0000 </r>
       <r>    0.4971    0.0000 </r>
       <r>    1.8510    0.0000 </r>
       <r>    4.4634    0.0000 </r>
       <r>    4.5879    0.0000 </r>
       <r>    5.0865    0.0000 </r>
       <r>    5.4556    0.0000 </r>
       <r>    5.9052    0.0000 </r>
       <r>    7.0686    0.0000 </r>
       <r>    7.1007    0.0000 </r>
       <r>    8.1605    0.0000 </r>
      </set>
      <set comment="kpoint 39">
       <r>  -14.0653    1.0000 </r>
       <r>  -11.8476    1.0000 </r>
       <r>   -6.8389    1.0000 </r>
       <r>   -5.8448    1.0000 </r>
       <r>   -4.1674    1.0000 </r>
       <r>   -0.4923    0.0000 </r>
       <r>    0.5913    0.0000 </r>
       <r>    1.8530    0.0000 </r>
       <r>    4.5932    0.0000 </r>
       <r>    4.7248    0.0000 </r>
       <r>    5.1708    0.0000 </r>
       <r>    5.4675    0.0000 </r>
       <r>    5.9253    0.0000 </r>
       <r>    7.1275    0.0000 </r>
       <r>    7.2571    0.0000 </r>
       <r>    8.0123    0.0000 </r>
      </set>
      <set comment="kpoint 40">
       <r>  -13.9569    1.0000 </r>
       <r>  -11.9555    1.0000 </r>
       <r>   -6.9233    1.0000 </r>
       <r>   -5.7697    1.0000 </r>
       <r>   -4.2448    1.0000 </r>
       <r>   -0.5713    0.0000 </r>
       <r>    0.6879    0.0000 </r>
       <r>    1.8489    0.0000 </r>
       <r>    4.7272    0.0000 </r>
       <r>    4.8596    0.0000 </r>
       <r>    5.2323    0.0000 </r>
       <r>    5.4975    0.0000 </r>
       <r>    5.9601    0.0000 </r>
       <r>    7.2018    0.0000 </r>
       <r>    7.4172    0.0000 </r>
       <r>    7.8679    0.0000 </r>
      </set>
      <set comment="kpoint 41">
       <r>  -13.8487    1.0000 </r>
       <r>  -12.0626    1.0000 </r>
       <r>   -7.0014    1.0000 </r>
       <r>   -5.6918    1.0000 </r>
       <r>   -4.3229    1.0000 </r>
       <r>   -0.6460    0.0000 </r>
       <r>    0.7860    0.0000 </r>
       <r>    1.8387    0.0000 </r>
       <r>    4.8650    0.0000 </r>
       <r>    4.9897    0.0000 </r>
       <r>    5.2641    0.0000 </r>
       <r>    5.5480    0.0000 </r>
       <r>    6.0211    0.0000 </r>
       <r>    7.2827    0.0000 </r>
       <r>    7.5805    0.0000 </r>
       <r>    7.7282    0.0000 </r>
      </set>
      <set comment="kpoint 42">
       <r>  -13.7409    1.0000 </r>
       <r>  -12.1685    1.0000 </r>
       <r>   -7.0728    1.0000 </r>
       <r>   -5.6119    1.0000 </r>
       <r>   -4.4011    1.0000 </r>
       <r>   -0.7155    0.0000 </r>
       <r>    0.8848    0.0000 </r>
       <r>    1.8224    0.0000 </r>
       <r>    5.0065    0.0000 </r>
       <r>    5.1123    0.0000 </r>
       <r>    5.2669    0.0000 </r>
       <r>    5.6213    0.0000 </r>
       <r>    6.1116    0.0000 </r>
       <r>    7.3563    0.0000 </r>
       <r>    7.5974    0.0000 </r>
       <r>    7.7204    0.0000 </r>
      </set>
      <set comment="kpoint 43">
       <r>  -13.6340    1.0000 </r>
       <r>  -12.2730    1.0000 </r>
       <r>   -7.1371    1.0000 </r>
       <r>   -5.5307    1.0000 </r>
       <r>   -4.4792    1.0000 </r>
       <r>   -0.7793    0.0000 </r>
       <r>    0.9831    0.0000 </r>
       <r>    1.8004    0.0000 </r>
       <r>    5.1503    0.0000 </r>
       <r>    5.2256    0.0000 </r>
       <r>    5.2487    0.0000 </r>
       <r>    5.7183    0.0000 </r>
       <r>    6.2270    0.0000 </r>
       <r>    7.3788    0.0000 </r>
       <r>    7.5049    0.0000 </r>
       <r>    7.6147    0.0000 </r>
      </set>
      <set comment="kpoint 44">
       <r>  -13.5283    1.0000 </r>
       <r>  -12.3757    1.0000 </r>
       <r>   -7.1939    1.0000 </r>
       <r>   -5.4491    1.0000 </r>
       <r>   -4.5568    1.0000 </r>
       <r>   -0.8365    0.0000 </r>
       <r>    1.0798    0.0000 </r>
       <r>    1.7731    0.0000 </r>
       <r>    5.2136    0.0000 </r>
       <r>    5.3004    0.0000 </r>
       <r>    5.3300    0.0000 </r>
       <r>    5.8376    0.0000 </r>
       <r>    6.3598    0.0000 </r>
       <r>    7.2878    0.0000 </r>
       <r>    7.4947    0.0000 </r>
       <r>    7.4950    0.0000 </r>
      </set>
      <set comment="kpoint 45">
       <r>  -13.4243    1.0000 </r>
       <r>  -12.4765    1.0000 </r>
       <r>   -7.2429    1.0000 </r>
       <r>   -5.3678    1.0000 </r>
       <r>   -4.6335    1.0000 </r>
       <r>   -0.8867    0.0000 </r>
       <r>    1.1734    0.0000 </r>
       <r>    1.7410    0.0000 </r>
       <r>    5.1775    0.0000 </r>
       <r>    5.4278    0.0000 </r>
       <r>    5.4469    0.0000 </r>
       <r>    5.9752    0.0000 </r>
       <r>    6.5032    0.0000 </r>
       <r>    7.1643    0.0000 </r>
       <r>    7.3773    0.0000 </r>
       <r>    7.4699    0.0000 </r>
      </set>
      <set comment="kpoint 46">
       <r>  -13.3224    1.0000 </r>
       <r>  -12.5752    1.0000 </r>
       <r>   -7.2836    1.0000 </r>
       <r>   -5.2876    1.0000 </r>
       <r>   -4.7090    1.0000 </r>
       <r>   -0.9289    0.0000 </r>
       <r>    1.2626    0.0000 </r>
       <r>    1.7052    0.0000 </r>
       <r>    5.1405    0.0000 </r>
       <r>    5.5220    0.0000 </r>
       <r>    5.5923    0.0000 </r>
       <r>    6.1265    0.0000 </r>
       <r>    6.6482    0.0000 </r>
       <r>    7.0384    0.0000 </r>
       <r>    7.2625    0.0000 </r>
       <r>    7.4021    0.0000 </r>
      </set>
      <set comment="kpoint 47">
       <r>  -13.2231    1.0000 </r>
       <r>  -12.6715    1.0000 </r>
       <r>   -7.3158    1.0000 </r>
       <r>   -5.2091    1.0000 </r>
       <r>   -4.7828    1.0000 </r>
       <r>   -0.9626    0.0000 </r>
       <r>    1.3455    0.0000 </r>
       <r>    1.6660    0.0000 </r>
       <r>    5.1072    0.0000 </r>
       <r>    5.6144    0.0000 </r>
       <r>    5.7298    0.0000 </r>
       <r>    6.2873    0.0000 </r>
       <r>    6.7728    0.0000 </r>
       <r>    6.9216    0.0000 </r>
       <r>    7.1511    0.0000 </r>
       <r>    7.3147    0.0000 </r>
      </set>
      <set comment="kpoint 48">
       <r>  -13.1268    1.0000 </r>
       <r>  -12.7653    1.0000 </r>
       <r>   -7.3391    1.0000 </r>
       <r>   -5.1333    1.0000 </r>
       <r>   -4.8549    1.0000 </r>
       <r>   -0.9873    0.0000 </r>
       <r>    1.4203    0.0000 </r>
       <r>    1.6244    0.0000 </r>
       <r>    5.0806    0.0000 </r>
       <r>    5.7056    0.0000 </r>
       <r>    5.8459    0.0000 </r>
       <r>    6.4535    0.0000 </r>
       <r>    6.7682    0.0000 </r>
       <r>    6.8841    0.0000 </r>
       <r>    7.0439    0.0000 </r>
       <r>    7.2722    0.0000 </r>
      </set>
      <set comment="kpoint 49">
       <r>  -13.0339    1.0000 </r>
       <r>  -12.8565    1.0000 </r>
       <r>   -7.3532    1.0000 </r>
       <r>   -5.0608    1.0000 </r>
       <r>   -4.9248    1.0000 </r>
       <r>   -1.0024    0.0000 </r>
       <r>    1.4847    0.0000 </r>
       <r>    1.5811    0.0000 </r>
       <r>    5.0633    0.0000 </r>
       <r>    5.7952    0.0000 </r>
       <r>    5.9106    0.0000 </r>
       <r>    6.6195    0.0000 </r>
       <r>    6.6936    0.0000 </r>
       <r>    6.8386    0.0000 </r>
       <r>    6.9435    0.0000 </r>
       <r>    7.3427    0.0000 </r>
      </set>
      <set comment="kpoint 50">
       <r>  -12.9449    1.0000 </r>
       <r>  -12.9448    1.0000 </r>
       <r>   -7.3580    1.0000 </r>
       <r>   -4.9923    1.0000 </r>
       <r>   -4.9923    1.0000 </r>
       <r>   -1.0075    0.0000 </r>
       <r>    1.5365    0.0000 </r>
       <r>    1.5365    0.0000 </r>
       <r>    5.0572    0.0000 </r>
       <r>    5.8811    0.0000 </r>
       <r>    5.8811    0.0000 </r>
       <r>    6.6763    0.0000 </r>
       <r>    6.7532    0.0000 </r>
       <r>    6.7532    0.0000 </r>
       <r>    6.8766    0.0000 </r>
       <r>    7.4527    0.0000 </r>
      </set>
      <set comment="kpoint 51">
       <r>  -12.9449    1.0000 </r>
       <r>  -12.9448    1.0000 </r>
       <r>   -7.3580    1.0000 </r>
       <r>   -4.9923    1.0000 </r>
       <r>   -4.9923    1.0000 </r>
       <r>   -1.0075    0.0000 </r>
       <r>    1.5365    0.0000 </r>
       <r>    1.5365    0.0000 </r>
       <r>    5.0572    0.0000 </r>
       <r>    5.8811    0.0000 </r>
       <r>    5.8811    0.0000 </r>
       <r>    6.6763    0.0000 </r>
       <r>    6.7532    0.0000 </r>
       <r>    6.7532    0.0000 </r>
       <r>    6.8766    0.0000 </r>
       <r>    7.4527    0.0000 </r>
      </set>
      <set comment="kpoint 52">
       <r>  -13.0304    1.0000 </r>
       <r>  -12.8601    1.0000 </r>
       <r>   -7.3532    1.0000 </r>
       <r>   -5.0572    1.0000 </r>
       <r>   -4.9285    1.0000 </r>
       <r>   -1.0023    0.0000 </r>
       <r>    1.4916    0.0000 </r>
       <r>    1.5735    0.0000 </r>
       <r>    5.0638    0.0000 </r>
       <r>    5.7537    0.0000 </r>
       <r>    5.9609    0.0000 </r>
       <r>    6.6162    0.0000 </r>
       <r>    6.7166    0.0000 </r>
       <r>    6.7872    0.0000 </r>
       <r>    6.9699    0.0000 </r>
       <r>    7.4098    0.0000 </r>
      </set>
      <set comment="kpoint 53">
       <r>  -13.1129    1.0000 </r>
       <r>  -12.7799    1.0000 </r>
       <r>   -7.3388    1.0000 </r>
       <r>   -5.1190    1.0000 </r>
       <r>   -4.8698    1.0000 </r>
       <r>   -0.9866    0.0000 </r>
       <r>    1.4469    0.0000 </r>
       <r>    1.5936    0.0000 </r>
       <r>    5.0843    0.0000 </r>
       <r>    5.5687    0.0000 </r>
       <r>    6.0315    0.0000 </r>
       <r>    6.5162    0.0000 </r>
       <r>    6.6292    0.0000 </r>
       <r>    6.9190    0.0000 </r>
       <r>    7.0757    0.0000 </r>
       <r>    7.3171    0.0000 </r>
      </set>
      <set comment="kpoint 54">
       <r>  -13.1923    1.0000 </r>
       <r>  -12.7046    1.0000 </r>
       <r>   -7.3149    1.0000 </r>
       <r>   -5.1774    1.0000 </r>
       <r>   -4.8167    1.0000 </r>
       <r>   -0.9605    0.0000 </r>
       <r>    1.4030    0.0000 </r>
       <r>    1.5947    0.0000 </r>
       <r>    5.1195    0.0000 </r>
       <r>    5.3590    0.0000 </r>
       <r>    6.0888    0.0000 </r>
       <r>    6.4189    0.0000 </r>
       <r>    6.5412    0.0000 </r>
       <r>    7.0819    0.0000 </r>
       <r>    7.1190    0.0000 </r>
       <r>    7.2264    0.0000 </r>
      </set>
      <set comment="kpoint 55">
       <r>  -13.2685    1.0000 </r>
       <r>  -12.6343    1.0000 </r>
       <r>   -7.2817    1.0000 </r>
       <r>   -5.2320    1.0000 </r>
       <r>   -4.7692    1.0000 </r>
       <r>   -0.9240    0.0000 </r>
       <r>    1.3606    0.0000 </r>
       <r>    1.5752    0.0000 </r>
       <r>    5.1427    0.0000 </r>
       <r>    5.1695    0.0000 </r>
       <r>    6.1292    0.0000 </r>
       <r>    6.3268    0.0000 </r>
       <r>    6.4568    0.0000 </r>
       <r>    7.1255    0.0000 </r>
       <r>    7.1410    0.0000 </r>
       <r>    7.2612    0.0000 </r>
      </set>
      <set comment="kpoint 56">
       <r>  -13.3415    1.0000 </r>
       <r>  -12.5694    1.0000 </r>
       <r>   -7.2395    1.0000 </r>
       <r>   -5.2825    1.0000 </r>
       <r>   -4.7276    1.0000 </r>
       <r>   -0.8778    0.0000 </r>
       <r>    1.3204    0.0000 </r>
       <r>    1.5338    0.0000 </r>
       <r>    4.9296    0.0000 </r>
       <r>    5.2334    0.0000 </r>
       <r>    6.1492    0.0000 </r>
       <r>    6.2403    0.0000 </r>
       <r>    6.3777    0.0000 </r>
       <r>    7.0621    0.0000 </r>
       <r>    7.1259    0.0000 </r>
       <r>    7.4499    0.0000 </r>
      </set>
      <set comment="kpoint 57">
       <r>  -13.4112    1.0000 </r>
       <r>  -12.5097    1.0000 </r>
       <r>   -7.1889    1.0000 </r>
       <r>   -5.3284    1.0000 </r>
       <r>   -4.6917    1.0000 </r>
       <r>   -0.8224    0.0000 </r>
       <r>    1.2828    0.0000 </r>
       <r>    1.4699    0.0000 </r>
       <r>    4.7252    0.0000 </r>
       <r>    5.3101    0.0000 </r>
       <r>    6.1466    0.0000 </r>
       <r>    6.1593    0.0000 </r>
       <r>    6.3065    0.0000 </r>
       <r>    6.9897    0.0000 </r>
       <r>    7.1297    0.0000 </r>
       <r>    7.6449    0.0000 </r>
      </set>
      <set comment="kpoint 58">
       <r>  -13.4774    1.0000 </r>
       <r>  -12.4554    1.0000 </r>
       <r>   -7.1308    1.0000 </r>
       <r>   -5.3689    1.0000 </r>
       <r>   -4.6613    1.0000 </r>
       <r>   -0.7589    0.0000 </r>
       <r>    1.2485    0.0000 </r>
       <r>    1.3836    0.0000 </r>
       <r>    4.5337    0.0000 </r>
       <r>    5.3974    0.0000 </r>
       <r>    6.0842    0.0000 </r>
       <r>    6.1200    0.0000 </r>
       <r>    6.2464    0.0000 </r>
       <r>    6.9247    0.0000 </r>
       <r>    7.1359    0.0000 </r>
       <r>    7.8426    0.0000 </r>
      </set>
      <set comment="kpoint 59">
       <r>  -13.5403    1.0000 </r>
       <r>  -12.4062    1.0000 </r>
       <r>   -7.0663    1.0000 </r>
       <r>   -5.4035    1.0000 </r>
       <r>   -4.6363    1.0000 </r>
       <r>   -0.6882    0.0000 </r>
       <r>    1.2182    0.0000 </r>
       <r>    1.2755    0.0000 </r>
       <r>    4.3573    0.0000 </r>
       <r>    5.4917    0.0000 </r>
       <r>    6.0157    0.0000 </r>
       <r>    6.0728    0.0000 </r>
       <r>    6.1974    0.0000 </r>
       <r>    6.8679    0.0000 </r>
       <r>    7.1405    0.0000 </r>
       <r>    8.0376    0.0000 </r>
      </set>
      <set comment="kpoint 60">
       <r>  -13.5997    1.0000 </r>
       <r>  -12.3622    1.0000 </r>
       <r>   -6.9966    1.0000 </r>
       <r>   -5.4312    1.0000 </r>
       <r>   -4.6160    1.0000 </r>
       <r>   -0.6121    0.0000 </r>
       <r>    1.1471    0.0000 </r>
       <r>    1.1926    0.0000 </r>
       <r>    4.1972    0.0000 </r>
       <r>    5.5872    0.0000 </r>
       <r>    5.9563    0.0000 </r>
       <r>    6.0141    0.0000 </r>
       <r>    6.1538    0.0000 </r>
       <r>    6.8210    0.0000 </r>
       <r>    7.1393    0.0000 </r>
       <r>    8.2151    0.0000 </r>
      </set>
      <set comment="kpoint 61">
       <r>  -13.6555    1.0000 </r>
       <r>  -12.3230    1.0000 </r>
       <r>   -6.9235    1.0000 </r>
       <r>   -5.4509    1.0000 </r>
       <r>   -4.6001    1.0000 </r>
       <r>   -0.5320    0.0000 </r>
       <r>    1.0009    0.0000 </r>
       <r>    1.1725    0.0000 </r>
       <r>    4.0539    0.0000 </r>
       <r>    5.6715    0.0000 </r>
       <r>    5.9139    0.0000 </r>
       <r>    5.9513    0.0000 </r>
       <r>    6.1111    0.0000 </r>
       <r>    6.7862    0.0000 </r>
       <r>    7.1293    0.0000 </r>
       <r>    8.2860    0.0000 </r>
      </set>
      <set comment="kpoint 62">
       <r>  -13.7078    1.0000 </r>
       <r>  -12.2884    1.0000 </r>
       <r>   -6.8492    1.0000 </r>
       <r>   -5.4615    1.0000 </r>
       <r>   -4.5880    1.0000 </r>
       <r>   -0.4499    0.0000 </r>
       <r>    0.8394    0.0000 </r>
       <r>    1.1587    0.0000 </r>
       <r>    3.9267    0.0000 </r>
       <r>    5.7152    0.0000 </r>
       <r>    5.8879    0.0000 </r>
       <r>    5.9120    0.0000 </r>
       <r>    6.0681    0.0000 </r>
       <r>    6.7670    0.0000 </r>
       <r>    7.1092    0.0000 </r>
       <r>    8.2913    0.0000 </r>
      </set>
      <set comment="kpoint 63">
       <r>  -13.7564    1.0000 </r>
       <r>  -12.2581    1.0000 </r>
       <r>   -6.7759    1.0000 </r>
       <r>   -5.4616    1.0000 </r>
       <r>   -4.5793    1.0000 </r>
       <r>   -0.3678    0.0000 </r>
       <r>    0.6657    0.0000 </r>
       <r>    1.1521    0.0000 </r>
       <r>    3.8148    0.0000 </r>
       <r>    5.7036    0.0000 </r>
       <r>    5.8251    0.0000 </r>
       <r>    5.9587    0.0000 </r>
       <r>    6.0251    0.0000 </r>
       <r>    6.7678    0.0000 </r>
       <r>    7.0793    0.0000 </r>
       <r>    8.2496    0.0000 </r>
      </set>
      <set comment="kpoint 64">
       <r>  -13.8015    1.0000 </r>
       <r>  -12.2318    1.0000 </r>
       <r>   -6.7060    1.0000 </r>
       <r>   -5.4498    1.0000 </r>
       <r>   -4.5734    1.0000 </r>
       <r>   -0.2878    0.0000 </r>
       <r>    0.4836    0.0000 </r>
       <r>    1.1535    0.0000 </r>
       <r>    3.7169    0.0000 </r>
       <r>    5.6685    0.0000 </r>
       <r>    5.7635    0.0000 </r>
       <r>    5.9828    0.0000 </r>
       <r>    6.0152    0.0000 </r>
       <r>    6.7924    0.0000 </r>
       <r>    7.0407    0.0000 </r>
       <r>    8.2050    0.0000 </r>
      </set>
      <set comment="kpoint 65">
       <r>  -13.8428    1.0000 </r>
       <r>  -12.2092    1.0000 </r>
       <r>   -6.6421    1.0000 </r>
       <r>   -5.4252    1.0000 </r>
       <r>   -4.5698    1.0000 </r>
       <r>   -0.2122    0.0000 </r>
       <r>    0.2963    0.0000 </r>
       <r>    1.1637    0.0000 </r>
       <r>    3.6318    0.0000 </r>
       <r>    5.6290    0.0000 </r>
       <r>    5.7031    0.0000 </r>
       <r>    5.9419    0.0000 </r>
       <r>    6.0584    0.0000 </r>
       <r>    6.8416    0.0000 </r>
       <r>    6.9951    0.0000 </r>
       <r>    8.1575    0.0000 </r>
      </set>
      <set comment="kpoint 66">
       <r>  -13.8805    1.0000 </r>
       <r>  -12.1898    1.0000 </r>
       <r>   -6.5861    1.0000 </r>
       <r>   -5.3872    1.0000 </r>
       <r>   -4.5679    1.0000 </r>
       <r>   -0.1428    0.0000 </r>
       <r>    0.1076    0.0000 </r>
       <r>    1.1828    0.0000 </r>
       <r>    3.5581    0.0000 </r>
       <r>    5.5904    0.0000 </r>
       <r>    5.6440    0.0000 </r>
       <r>    5.9029    0.0000 </r>
       <r>    6.0837    0.0000 </r>
       <r>    6.9110    0.0000 </r>
       <r>    6.9443    0.0000 </r>
       <r>    8.1086    0.0000 </r>
      </set>
      <set comment="kpoint 67">
       <r>  -13.9145    1.0000 </r>
       <r>  -12.1734    1.0000 </r>
       <r>   -6.5391    1.0000 </r>
       <r>   -5.3365    1.0000 </r>
       <r>   -4.5675    1.0000 </r>
       <r>   -0.0813    0.0000 </r>
       <r>   -0.0789    0.0000 </r>
       <r>    1.2107    0.0000 </r>
       <r>    3.4947    0.0000 </r>
       <r>    5.5546    0.0000 </r>
       <r>    5.5862    0.0000 </r>
       <r>    5.8666    0.0000 </r>
       <r>    6.0942    0.0000 </r>
       <r>    6.8906    0.0000 </r>
       <r>    6.9916    0.0000 </r>
       <r>    8.0541    0.0000 </r>
      </set>
      <set comment="kpoint 68">
       <r>  -13.9447    1.0000 </r>
       <r>  -12.1597    1.0000 </r>
       <r>   -6.5014    1.0000 </r>
       <r>   -5.2753    1.0000 </r>
       <r>   -4.5681    1.0000 </r>
       <r>   -0.2599    0.0000 </r>
       <r>   -0.0286    0.0000 </r>
       <r>    1.2462    0.0000 </r>
       <r>    3.4405    0.0000 </r>
       <r>    5.5222    0.0000 </r>
[...]
       </set>
       <set comment="band 13">
        <r>  0.0013  0.0221  0.0765 </r>
        <r>  0.0013  0.0221  0.0765 </r>
       </set>
       <set comment="band 14">
        <r>  0.0572  0.0495  0.0112 </r>
        <r>  0.0572  0.0495  0.0112 </r>
       </set>
       <set comment="band 15">
        <r>  0.0028  0.0196  0.1246 </r>
        <r>  0.0028  0.0196  0.1246 </r>
       </set>
       <set comment="band 16">
        <r>  0.0000  0.0627  0.0849 </r>
        <r>  0.0000  0.0627  0.0849 </r>
       </set>
      </set>
      <set comment="kpoint 142">
       <set comment="band 1">
        <r>  0.2680  0.0116  0.0002 </r>
        <r>  0.2680  0.0116  0.0002 </r>
       </set>
       <set comment="band 2">
        <r>  0.2921  0.0229  0.0009 </r>
        <r>  0.2921  0.0229  0.0009 </r>
       </set>
       <set comment="band 3">
        <r>  0.0219  0.2336  0.0130 </r>
        <r>  0.0219  0.2336  0.0130 </r>
       </set>
       <set comment="band 4">
        <r>  0.0072  0.1974  0.0016 </r>
        <r>  0.0072  0.1974  0.0016 </r>
       </set>
       <set comment="band 5">
        <r>  0.0003  0.2735  0.0138 </r>
        <r>  0.0003  0.2735  0.0138 </r>
       </set>
       <set comment="band 6">
        <r>  0.1013  0.1679  0.0105 </r>
        <r>  0.1013  0.1679  0.0105 </r>
       </set>
       <set comment="band 7">
        <r>  0.0148  0.2363  0.0157 </r>
        <r>  0.0148  0.2363  0.0157 </r>
       </set>
       <set comment="band 8">
        <r>  0.0089  0.2660  0.0143 </r>
        <r>  0.0089  0.2660  0.0143 </r>
       </set>
       <set comment="band 9">
        <r>  0.0008  0.0238  0.0128 </r>
        <r>  0.0008  0.0238  0.0128 </r>
       </set>
       <set comment="band 10">
        <r>  0.0028  0.0194  0.0008 </r>
        <r>  0.0028  0.0194  0.0008 </r>
       </set>
       <set comment="band 11">
        <r>  0.0079  0.0272  0.0023 </r>
        <r>  0.0079  0.0272  0.0023 </r>
       </set>
       <set comment="band 12">
        <r>  0.0015  0.0030  0.0172 </r>
        <r>  0.0015  0.0030  0.0172 </r>
       </set>
       <set comment="band 13">
        <r>  0.0025  0.0227  0.0741 </r>
        <r>  0.0025  0.0227  0.0741 </r>
       </set>
       <set comment="band 14">
        <r>  0.0610  0.0454  0.0135 </r>
        <r>  0.0610  0.0454  0.0135 </r>
       </set>
       <set comment="band 15">
        <r>  0.0018  0.0205  0.1274 </r>
        <r>  0.0018  0.0205  0.1274 </r>
       </set>
       <set comment="band 16">
        <r>  0.0001  0.0606  0.0798 </r>
        <r>  0.0001  0.0606  0.0798 </r>
       </set>
      </set>
      <set comment="kpoint 143">
       <set comment="band 1">
        <r>  0.2680  0.0114  0.0002 </r>
        <r>  0.2680  0.0114  0.0002 </r>
       </set>
       <set comment="band 2">
        <r>  0.2902  0.0234  0.0008 </r>
        <r>  0.2902  0.0234  0.0008 </r>
       </set>
       <set comment="band 3">
        <r>  0.0211  0.2385  0.0133 </r>
        <r>  0.0211  0.2385  0.0133 </r>
       </set>
       <set comment="band 4">
        <r>  0.0067  0.1963  0.0016 </r>
        <r>  0.0067  0.1963  0.0016 </r>
       </set>
       <set comment="band 5">
        <r>  0.0002  0.2760  0.0139 </r>
        <r>  0.0002  0.2760  0.0139 </r>
       </set>
       <set comment="band 6">
        <r>  0.1083  0.1621  0.0102 </r>
        <r>  0.1083  0.1621  0.0102 </r>
       </set>
       <set comment="band 7">
        <r>  0.0122  0.2405  0.0163 </r>
        <r>  0.0122  0.2405  0.0163 </r>
       </set>
       <set comment="band 8">
        <r>  0.0057  0.2665  0.0156 </r>
        <r>  0.0057  0.2665  0.0156 </r>
       </set>
       <set comment="band 9">
        <r>  0.0006  0.0209  0.0127 </r>
        <r>  0.0006  0.0209  0.0127 </r>
       </set>
       <set comment="band 10">
        <r>  0.0031  0.0191  0.0007 </r>
        <r>  0.0031  0.0191  0.0007 </r>
       </set>
       <set comment="band 11">
        <r>  0.0086  0.0271  0.0017 </r>
        <r>  0.0086  0.0271  0.0017 </r>
       </set>
       <set comment="band 12">
        <r>  0.0015  0.0027  0.0173 </r>
        <r>  0.0015  0.0027  0.0173 </r>
       </set>
       <set comment="band 13">
        <r>  0.0074  0.0221  0.0660 </r>
        <r>  0.0074  0.0221  0.0660 </r>
       </set>
       <set comment="band 14">
        <r>  0.0608  0.0420  0.0210 </r>
        <r>  0.0608  0.0420  0.0210 </r>
       </set>
       <set comment="band 15">
        <r>  0.0011  0.0219  0.1298 </r>
        <r>  0.0011  0.0219  0.1298 </r>
       </set>
       <set comment="band 16">
        <r>  0.0002  0.0568  0.0744 </r>
        <r>  0.0002  0.0567  0.0744 </r>
       </set>
      </set>
      <set comment="kpoint 144">
       <set comment="band 1">
        <r>  0.2679  0.0112  0.0002 </r>
        <r>  0.2679  0.0112  0.0002 </r>
       </set>
       <set comment="band 2">
        <r>  0.2885  0.0239  0.0008 </r>
        <r>  0.2885  0.0239  0.0008 </r>
       </set>
       <set comment="band 3">
        <r>  0.0195  0.2443  0.0135 </r>
        <r>  0.0195  0.2443  0.0135 </r>
       </set>
       <set comment="band 4">
        <r>  0.0064  0.1956  0.0016 </r>
        <r>  0.0064  0.1956  0.0016 </r>
       </set>
       <set comment="band 5">
        <r>  0.0001  0.2780  0.0140 </r>
        <r>  0.0001  0.2780  0.0140 </r>
       </set>
       <set comment="band 6">
        <r>  0.1148  0.1560  0.0101 </r>
        <r>  0.1148  0.1560  0.0101 </r>
       </set>
       <set comment="band 7">
        <r>  0.0096  0.2446  0.0168 </r>
        <r>  0.0096  0.2446  0.0168 </r>
       </set>
       <set comment="band 8">
        <r>  0.0032  0.2661  0.0166 </r>
        <r>  0.0032  0.2661  0.0166 </r>
       </set>
       <set comment="band 9">
        <r>  0.0004  0.0187  0.0126 </r>
        <r>  0.0004  0.0187  0.0126 </r>
       </set>
       <set comment="band 10">
        <r>  0.0035  0.0187  0.0005 </r>
        <r>  0.0035  0.0187  0.0005 </r>
       </set>
       <set comment="band 11">
        <r>  0.0092  0.0269  0.0012 </r>
        <r>  0.0092  0.0269  0.0012 </r>
       </set>
       <set comment="band 12">
        <r>  0.0015  0.0025  0.0173 </r>
        <r>  0.0015  0.0025  0.0173 </r>
       </set>
       <set comment="band 13">
        <r>  0.0364  0.0197  0.0324 </r>
        <r>  0.0364  0.0197  0.0324 </r>
       </set>
       <set comment="band 14">
        <r>  0.0359  0.0400  0.0536 </r>
        <r>  0.0359  0.0400  0.0536 </r>
       </set>
       <set comment="band 15">
        <r>  0.0006  0.0239  0.1316 </r>
        <r>  0.0006  0.0239  0.1316 </r>
       </set>
       <set comment="band 16">
        <r>  0.0010  0.0500  0.0678 </r>
        <r>  0.0009  0.0488  0.0689 </r>
       </set>
      </set>
      <set comment="kpoint 145">
       <set comment="band 1">
        <r>  0.2679  0.0111  0.0001 </r>
        <r>  0.2679  0.0111  0.0001 </r>
       </set>
       <set comment="band 2">
        <r>  0.2870  0.0242  0.0008 </r>
        <r>  0.2870  0.0242  0.0008 </r>
       </set>
       <set comment="band 3">
        <r>  0.0062  0.1949  0.0016 </r>
        <r>  0.0062  0.1949  0.0016 </r>
       </set>
       <set comment="band 4">
        <r>  0.0171  0.2510  0.0137 </r>
        <r>  0.0171  0.2510  0.0137 </r>
       </set>
       <set comment="band 5">
        <r>  0.0001  0.2797  0.0140 </r>
        <r>  0.0001  0.2797  0.0140 </r>
       </set>
       <set comment="band 6">
        <r>  0.1210  0.1494  0.0102 </r>
        <r>  0.1210  0.1494  0.0102 </r>
       </set>
       <set comment="band 7">
        <r>  0.0071  0.2487  0.0173 </r>
        <r>  0.0071  0.2487  0.0173 </r>
       </set>
       <set comment="band 8">
        <r>  0.0016  0.2650  0.0174 </r>
        <r>  0.0016  0.2650  0.0174 </r>
       </set>
       <set comment="band 9">
        <r>  0.0003  0.0170  0.0126 </r>
        <r>  0.0003  0.0170  0.0126 </r>
       </set>
       <set comment="band 10">
        <r>  0.0038  0.0184  0.0004 </r>
        <r>  0.0038  0.0184  0.0004 </r>
       </set>
       <set comment="band 11">
        <r>  0.0099  0.0266  0.0008 </r>
        <r>  0.0099  0.0266  0.0008 </r>
       </set>
       <set comment="band 12">
        <r>  0.0015  0.0023  0.0173 </r>
        <r>  0.0015  0.0023  0.0173 </r>
       </set>
       <set comment="band 13">
        <r>  0.0679  0.0200  0.0083 </r>
        <r>  0.0679  0.0200  0.0083 </r>
       </set>
       <set comment="band 14">
        <r>  0.0081  0.0354  0.0756 </r>
        <r>  0.0081  0.0354  0.0756 </r>
       </set>
       <set comment="band 15">
        <r>  0.0003  0.0261  0.1328 </r>
        <r>  0.0003  0.0261  0.1328 </r>
       </set>
       <set comment="band 16">
        <r>  0.0084  0.0116  0.0632 </r>
        <r>  0.0092  0.0218  0.0550 </r>
       </set>
      </set>
      <set comment="kpoint 146">
       <set comment="band 1">
        <r>  0.2679  0.0109  0.0001 </r>
        <r>  0.2679  0.0109  0.0001 </r>
       </set>
       <set comment="band 2">
        <r>  0.2859  0.0246  0.0007 </r>
        <r>  0.2859  0.0246  0.0007 </r>
       </set>
       <set comment="band 3">
        <r>  0.0060  0.1944  0.0015 </r>
        <r>  0.0060  0.1944  0.0015 </r>
       </set>
       <set comment="band 4">
        <r>  0.0137  0.2586  0.0138 </r>
        <r>  0.0137  0.2586  0.0138 </r>
       </set>
       <set comment="band 5">
        <r>  0.0000  0.2811  0.0141 </r>
        <r>  0.0000  0.2811  0.0141 </r>
       </set>
       <set comment="band 6">
        <r>  0.1269  0.1422  0.0103 </r>
        <r>  0.1269  0.1422  0.0103 </r>
       </set>
       <set comment="band 7">
        <r>  0.0048  0.2524  0.0178 </r>
        <r>  0.0048  0.2524  0.0178 </r>
       </set>
       <set comment="band 8">
        <r>  0.0006  0.2636  0.0180 </r>
        <r>  0.0006  0.2636  0.0180 </r>
       </set>
       <set comment="band 9">
        <r>  0.0002  0.0157  0.0125 </r>
        <r>  0.0002  0.0157  0.0125 </r>
       </set>
       <set comment="band 10">
        <r>  0.0041  0.0180  0.0003 </r>
        <r>  0.0041  0.0180  0.0003 </r>
       </set>
       <set comment="band 11">
        <r>  0.0105  0.0263  0.0005 </r>
        <r>  0.0105  0.0263  0.0005 </r>
       </set>
       <set comment="band 12">
        <r>  0.0015  0.0022  0.0173 </r>
        <r>  0.0015  0.0022  0.0173 </r>
       </set>
       <set comment="band 13">
        <r>  0.0757  0.0174  0.0063 </r>
        <r>  0.0757  0.0174  0.0063 </r>
       </set>
       <set comment="band 14">
        <r>  0.0035  0.0337  0.0741 </r>
        <r>  0.0035  0.0337  0.0741 </r>
       </set>
       <set comment="band 15">
        <r>  0.0001  0.0283  0.1333 </r>
        <r>  0.0001  0.0283  0.1333 </r>
       </set>
       <set comment="band 16">
        <r>  0.0067  0.0195  0.0662 </r>
        <r>  0.0067  0.0195  0.0662 </r>
       </set>
      </set>
      <set comment="kpoint 147">
       <set comment="band 1">
        <r>  0.2679  0.0108  0.0001 </r>
        <r>  0.2679  0.0108  0.0001 </r>
       </set>
       <set comment="band 2">
        <r>  0.2850  0.0248  0.0007 </r>
        <r>  0.2850  0.0248  0.0007 </r>
       </set>
       <set comment="band 3">
        <r>  0.0059  0.1940  0.0015 </r>
        <r>  0.0059  0.1940  0.0015 </r>
       </set>
       <set comment="band 4">
        <r>  0.0095  0.2669  0.0140 </r>
        <r>  0.0095  0.2669  0.0140 </r>
       </set>
       <set comment="band 5">
        <r>  0.0000  0.2822  0.0141 </r>
        <r>  0.0000  0.2822  0.0141 </r>
       </set>
       <set comment="band 6">
        <r>  0.1328  0.1344  0.0104 </r>
        <r>  0.1328  0.1344  0.0104 </r>
       </set>
       <set comment="band 7">
        <r>  0.0028  0.2557  0.0182 </r>
        <r>  0.0028  0.2557  0.0182 </r>
       </set>
       <set comment="band 8">
        <r>  0.0002  0.2623  0.0183 </r>
        <r>  0.0002  0.2623  0.0183 </r>
       </set>
       <set comment="band 9">
        <r>  0.0002  0.0148  0.0125 </r>
        <r>  0.0002  0.0148  0.0125 </r>
       </set>
       <set comment="band 10">
        <r>  0.0044  0.0177  0.0001 </r>
        <r>  0.0044  0.0177  0.0001 </r>
       </set>
       <set comment="band 11">
        <r>  0.0111  0.0260  0.0003 </r>
        <r>  0.0111  0.0260  0.0003 </r>
       </set>
       <set comment="band 12">
        <r>  0.0015  0.0021  0.0172 </r>
        <r>  0.0015  0.0021  0.0172 </r>
       </set>
       <set comment="band 13">
        <r>  0.0792  0.0141  0.0064 </r>
        <r>  0.0792  0.0141  0.0064 </r>
       </set>
       <set comment="band 14">
        <r>  0.0026  0.0329  0.0684 </r>
        <r>  0.0026  0.0329  0.0684 </r>
       </set>
       <set comment="band 15">
        <r>  0.0000  0.0302  0.1335 </r>
        <r>  0.0000  0.0302  0.1335 </r>
       </set>
       <set comment="band 16">
        <r>  0.0049  0.0228  0.0749 </r>
        <r>  0.0049  0.0227  0.0749 </r>
       </set>
      </set>
      <set comment="kpoint 148">
       <set comment="band 1">
        <r>  0.2678  0.0108  0.0001 </r>
        <r>  0.2678  0.0108  0.0001 </r>
       </set>
       <set comment="band 2">
        <r>  0.2843  0.0250  0.0007 </r>
        <r>  0.2843  0.0250  0.0007 </r>
       </set>
       <set comment="band 3">
        <r>  0.0058  0.1938  0.0015 </r>
        <r>  0.0058  0.1938  0.0015 </r>
       </set>
       <set comment="band 4">
        <r>  0.0051  0.2749  0.0141 </r>
        <r>  0.0051  0.2749  0.0141 </r>
       </set>
       <set comment="band 5">
        <r>  0.0000  0.2829  0.0141 </r>
        <r>  0.0000  0.2829  0.0141 </r>
       </set>
       <set comment="band 6">
        <r>  0.1383  0.1267  0.0106 </r>
        <r>  0.1383  0.1267  0.0106 </r>
       </set>
       <set comment="band 7">
        <r>  0.0013  0.2582  0.0185 </r>
        <r>  0.0013  0.2582  0.0185 </r>
       </set>
       <set comment="band 8">
        <r>  0.0000  0.2613  0.0186 </r>
        <r>  0.0000  0.2613  0.0186 </r>
       </set>
       <set comment="band 9">
        <r>  0.0002  0.0142  0.0124 </r>
        <r>  0.0002  0.0142  0.0124 </r>
       </set>
       <set comment="band 10">
        <r>  0.0046  0.0174  0.0001 </r>
        <r>  0.0046  0.0174  0.0001 </r>
       </set>
       <set comment="band 11">
        <r>  0.0115  0.0257  0.0001 </r>
        <r>  0.0115  0.0257  0.0001 </r>
       </set>
       <set comment="band 12">
        <r>  0.0016  0.0020  0.0172 </r>
        <r>  0.0016  0.0020  0.0172 </r>
       </set>
       <set comment="band 13">
        <r>  0.0813  0.0113  0.0066 </r>
        <r>  0.0813  0.0113  0.0066 </r>
       </set>
       <set comment="band 14">
        <r>  0.0028  0.0318  0.0583 </r>
        <r>  0.0028  0.0318  0.0583 </r>
       </set>
       <set comment="band 15">
        <r>  0.0000  0.0316  0.1335 </r>
        <r>  0.0000  0.0316  0.1335 </r>
       </set>
       <set comment="band 16">
        <r>  0.0033  0.0262  0.0873 </r>
        <r>  0.0033  0.0262  0.0873 </r>
       </set>
      </set>
      <set comment="kpoint 149">
       <set comment="band 1">
        <r>  0.2678  0.0107  0.0001 </r>
        <r>  0.2678  0.0107  0.0001 </r>
       </set>
       <set comment="band 2">
        <r>  0.2839  0.0251  0.0007 </r>
        <r>  0.2839  0.0251  0.0007 </r>
       </set>
       <set comment="band 3">
        <r>  0.0057  0.1936  0.0015 </r>
        <r>  0.0057  0.1936  0.0015 </r>
       </set>
       <set comment="band 4">
        <r>  0.0014  0.2811  0.0141 </r>
        <r>  0.0014  0.2811  0.0141 </r>
       </set>
       <set comment="band 5">
        <r>  0.0000  0.2834  0.0141 </r>
        <r>  0.0000  0.2834  0.0141 </r>
       </set>
       <set comment="band 6">
        <r>  0.1425  0.1207  0.0107 </r>
        <r>  0.1425  0.1207  0.0107 </r>
       </set>
       <set comment="band 7">
        <r>  0.0003  0.2598  0.0187 </r>
        <r>  0.0003  0.2598  0.0187 </r>
       </set>
       <set comment="band 8">
        <r>  0.0000  0.2606  0.0187 </r>
        <r>  0.0000  0.2606  0.0187 </r>
       </set>
       <set comment="band 9">
        <r>  0.0001  0.0139  0.0124 </r>
        <r>  0.0001  0.0139  0.0124 </r>
       </set>
       <set comment="band 10">
        <r>  0.0048  0.0172  0.0000 </r>
        <r>  0.0048  0.0172  0.0000 </r>
       </set>
       <set comment="band 11">
        <r>  0.0118  0.0256  0.0000 </r>
        <r>  0.0118  0.0256  0.0000 </r>
       </set>
       <set comment="band 12">
        <r>  0.0016  0.0020  0.0172 </r>
        <r>  0.0016  0.0020  0.0172 </r>
       </set>
       <set comment="band 13">
        <r>  0.0825  0.0095  0.0068 </r>
        <r>  0.0825  0.0095  0.0068 </r>
       </set>
       <set comment="band 14">
        <r>  0.0037  0.0297  0.0390 </r>
        <r>  0.0037  0.0297  0.0390 </r>
       </set>
       <set comment="band 15">
        <r>  0.0000  0.0325  0.1334 </r>
        <r>  0.0000  0.0325  0.1334 </r>
       </set>
       <set comment="band 16">
        <r>  0.0015  0.0299  0.1082 </r>
        <r>  0.0015  0.0299  0.1082 </r>
       </set>
      </set>
      <set comment="kpoint 150">
       <set comment="band 1">
        <r>  0.2678  0.0107  0.0001 </r>
        <r>  0.2678  0.0107  0.0001 </r>
       </set>
       <set comment="band 2">
        <r>  0.2838  0.0251  0.0007 </r>
        <r>  0.2838  0.0251  0.0007 </r>
       </set>
       <set comment="band 3">
        <r>  0.0057  0.1935  0.0015 </r>
        <r>  0.0057  0.1935  0.0015 </r>
       </set>
       <set comment="band 4">
        <r>  0.0000  0.2835  0.0142 </r>
        <r>  0.0000  0.2835  0.0142 </r>
       </set>
       <set comment="band 5">
        <r>  0.0000  0.2835  0.0142 </r>
        <r>  0.0000  0.2835  0.0142 </r>
       </set>
       <set comment="band 6">
        <r>  0.1441  0.1184  0.0107 </r>
        <r>  0.1441  0.1184  0.0107 </r>
       </set>
       <set comment="band 7">
        <r>  0.0000  0.2604  0.0187 </r>
        <r>  0.0000  0.2604  0.0187 </r>
       </set>
       <set comment="band 8">
        <r>  0.0000  0.2604  0.0187 </r>
        <r>  0.0000  0.2604  0.0187 </r>
       </set>
       <set comment="band 9">
        <r>  0.0001  0.0138  0.0124 </r>
        <r>  0.0001  0.0138  0.0124 </r>
       </set>
       <set comment="band 10">
        <r>  0.0048  0.0171  0.0000 </r>
        <r>  0.0048  0.0171  0.0000 </r>
       </set>
       <set comment="band 11">
        <r>  0.0119  0.0255  0.0000 </r>
        <r>  0.0119  0.0255  0.0000 </r>
       </set>
       <set comment="band 12">
        <r>  0.0016  0.0020  0.0172 </r>
        <r>  0.0016  0.0020  0.0172 </r>
       </set>
       <set comment="band 13">
        <r>  0.0829  0.0089  0.0068 </r>
        <r>  0.0829  0.0089  0.0068 </r>
       </set>
       <set comment="band 14">
        <r>  0.0049  0.0274  0.0143 </r>
        <r>  0.0049  0.0274  0.0143 </r>
       </set>
       <set comment="band 15">
        <r>  0.0000  0.0328  0.1334 </r>
        <r>  0.0000  0.0328  0.1334 </r>
       </set>
       <set comment="band 16">
        <r>  0.0000  0.0328  0.1334 </r>
        <r>  0.0000  0.0328  0.1334 </r>
       </set>
      </set>
     </set>
    </set>
   </array>
  </projected>
 </calculation>
 <structure name="finalpos" >
  <crystal>
   <varray name="basis" >
    <v>       3.60689254       0.00000000       0.00000000 </v>
    <v>      -1.80344627       3.12366057       0.00000000 </v>
    <v>       0.00000000       0.00000000      16.00000000 </v>
   </varray>
   <i name="volume">    180.26732792 </i>
   <varray name="rec_basis" >
    <v>       0.27724696       0.16006861       0.00000000 </v>
    <v>       0.00000000       0.32013722       0.00000000 </v>
    <v>       0.00000000       0.00000000       0.06250000 </v>
   </varray>
  </crystal>
  <varray name="positions" >
   <v>       0.66666667       0.33333333       0.45634314 </v>
   <v>       0.33333333       0.66666667       0.54365686 </v>
  </varray>
 </structure>
</modeling>
