   2   2   1   0
  0.3647508E+02  0.2294499E-09  0.2294499E-09  0.1600000E-08  0.5000000E-15
  1.000000000000000E-004
  CAR 
 unknown system                          
     18.17317771    -32.33492336 6001     -5.12782715      1.00000000
    -32.335  0.0000E+00  0.0000E+00
    -32.327  0.0000E+00  0.0000E+00
    -32.318  0.0000E+00  0.0000E+00
    -32.310  0.0000E+00  0.0000E+00
    -32.301  0.0000E+00  0.0000E+00
    -32.293  0.0000E+00  0.0000E+00
    -32.284  0.0000E+00  0.0000E+00
    -32.276  0.0000E+00  0.0000E+00
    -32.268  0.0000E+00  0.0000E+00
    -32.259  0.0000E+00  0.0000E+00
    -32.251  0.0000E+00  0.0000E+00
    -32.242  0.0000E+00  0.0000E+00
    -32.234  0.0000E+00  0.0000E+00
    -32.225  0.0000E+00  0.0000E+00
    -32.217  0.0000E+00  0.0000E+00
    -32.209  0.0000E+00  0.0000E+00
    -32.200  0.0000E+00  0.0000E+00
    -32.192  0.0000E+00  0.0000E+00
    -32.183  0.0000E+00  0.0000E+00
    -32.175  0.0000E+00  0.0000E+00
    -32.167  0.0000E+00  0.0000E+00
    -32.158  0.0000E+00  0.0000E+00
    -32.150  0.0000E+00  0.0000E+00
    -32.141  0.0000E+00  0.0000E+00
    -32.133  0.0000E+00  0.0000E+00
    -32.124  0.0000E+00  0.0000E+00
    -32.116  0.0000E+00  0.0000E+00
    -32.108  0.0000E+00  0.0000E+00
    -32.099  0.0000E+00  0.0000E+00
    -32.091  0.0000E+00  0.0000E+00
    -32.082  0.0000E+00  0.0000E+00
    -32.074  0.0000E+00  0.0000E+00
    -32.066  0.0000E+00  0.0000E+00
    -32.057  0.0000E+00  0.0000E+00
    -32.049  0.0000E+00  0.0000E+00
    -32.040  0.0000E+00  0.0000E+00
    -32.032  0.0000E+00  0.0000E+00
    -32.023  0.0000E+00  0.0000E+00
    -32.015  0.0000E+00  0.0000E+00
    -32.007  0.0000E+00  0.0000E+00
    -31.998  0.0000E+00  0.0000E+00
    -31.990  0.0000E+00  0.0000E+00
    -31.981  0.0000E+00  0.0000E+00
    -31.973  0.0000E+00  0.0000E+00
    -31.965  0.0000E+00  0.0000E+00
    -31.956  0.0000E+00  0.0000E+00
    -31.948  0.0000E+00  0.0000E+00
    -31.939  0.0000E+00  0.0000E+00
    -31.931  0.0000E+00  0.0000E+00
    -31.922  0.0000E+00  0.0000E+00
    -31.914  0.0000E+00  0.0000E+00
    -31.906  0.0000E+00  0.0000E+00
    -31.897  0.0000E+00  0.0000E+00
    -31.889  0.0000E+00  0.0000E+00
    -31.880  0.0000E+00  0.0000E+00
    -31.872  0.0000E+00  0.0000E+00
    -31.864  0.0000E+00  0.0000E+00
    -31.855  0.0000E+00  0.0000E+00
    -31.847  0.0000E+00  0.0000E+00
    -31.838  0.0000E+00  0.0000E+00
    -31.830  0.0000E+00  0.0000E+00
    -31.821  0.0000E+00  0.0000E+00
    -31.813  0.0000E+00  0.0000E+00
    -31.805  0.0000E+00  0.0000E+00
    -31.796  0.0000E+00  0.0000E+00
    -31.788  0.0000E+00  0.0000E+00
    -31.779  0.0000E+00  0.0000E+00
    -31.771  0.0000E+00  0.0000E+00
    -31.762  0.0000E+00  0.0000E+00
    -31.754  0.0000E+00  0.0000E+00
    -31.746  0.0000E+00  0.0000E+00
    -31.737  0.0000E+00  0.0000E+00
    -31.729  0.0000E+00  0.0000E+00
    -31.720  0.0000E+00  0.0000E+00
    -31.712  0.0000E+00  0.0000E+00
    -31.704  0.0000E+00  0.0000E+00
    -31.695  0.0000E+00  0.0000E+00
    -31.687  0.0000E+00  0.0000E+00
    -31.678  0.0000E+00  0.0000E+00
    -31.670  0.0000E+00  0.0000E+00
    -31.661  0.0000E+00  0.0000E+00
    -31.653  0.0000E+00  0.0000E+00
    -31.645  0.0000E+00  0.0000E+00
    -31.636  0.0000E+00  0.0000E+00
    -31.628  0.0000E+00  0.0000E+00
    -31.619  0.0000E+00  0.0000E+00
    -31.611  0.0000E+00  0.0000E+00
    -31.603  0.0000E+00  0.0000E+00
    -31.594  0.0000E+00  0.0000E+00
    -31.586  0.0000E+00  0.0000E+00
    -31.577  0.0000E+00  0.0000E+00
    -31.569  0.0000E+00  0.0000E+00
    -31.560  0.0000E+00  0.0000E+00
    -31.552  0.0000E+00  0.0000E+00
    -31.544  0.0000E+00  0.0000E+00
    -31.535  0.0000E+00  0.0000E+00
    -31.527  0.0000E+00  0.0000E+00
    -31.518  0.0000E+00  0.0000E+00
    -31.510  0.0000E+00  0.0000E+00
    -31.502  0.0000E+00  0.0000E+00
    -31.493  0.0000E+00  0.0000E+00
    -31.485  0.0000E+00  0.0000E+00
    -31.476  0.0000E+00  0.0000E+00
    -31.468  0.0000E+00  0.0000E+00
    -31.459  0.0000E+00  0.0000E+00
    -31.451  0.0000E+00  0.0000E+00
    -31.443  0.0000E+00  0.0000E+00
    -31.434  0.0000E+00  0.0000E+00
    -31.426  0.0000E+00  0.0000E+00
    -31.417  0.0000E+00  0.0000E+00
    -31.409  0.0000E+00  0.0000E+00
    -31.401  0.0000E+00  0.0000E+00
    -31.392  0.0000E+00  0.0000E+00
    -31.384  0.0000E+00  0.0000E+00
    -31.375  0.0000E+00  0.0000E+00
    -31.367  0.0000E+00  0.0000E+00
    -31.358  0.0000E+00  0.0000E+00
    -31.350  0.0000E+00  0.0000E+00
    -31.342  0.0000E+00  0.0000E+00
    -31.333  0.0000E+00  0.0000E+00
    -31.325  0.0000E+00  0.0000E+00
    -31.316  0.0000E+00  0.0000E+00
    -31.308  0.0000E+00  0.0000E+00
    -31.300  0.0000E+00  0.0000E+00
    -31.291  0.0000E+00  0.0000E+00
    -31.283  0.0000E+00  0.0000E+00
    -31.274  0.0000E+00  0.0000E+00
    -31.266  0.0000E+00  0.0000E+00
    -31.257  0.0000E+00  0.0000E+00
    -31.249  0.0000E+00  0.0000E+00
    -31.241  0.0000E+00  0.0000E+00
    -31.232  0.0000E+00  0.0000E+00
    -31.224  0.0000E+00  0.0000E+00
    -31.215  0.0000E+00  0.0000E+00
    -31.207  0.0000E+00  0.0000E+00
    -31.198  0.0000E+00  0.0000E+00
    -31.190  0.0000E+00  0.0000E+00
    -31.182  0.0000E+00  0.0000E+00
    -31.173  0.0000E+00  0.0000E+00
    -31.165  0.0000E+00  0.0000E+00
    -31.156  0.0000E+00  0.0000E+00
    -31.148  0.0000E+00  0.0000E+00
    -31.140  0.0000E+00  0.0000E+00
    -31.131  0.0000E+00  0.0000E+00
    -31.123  0.0000E+00  0.0000E+00
    -31.114  0.0000E+00  0.0000E+00
    -31.106  0.0000E+00  0.0000E+00
    -31.097  0.0000E+00  0.0000E+00
    -31.089  0.0000E+00  0.0000E+00
    -31.081  0.0000E+00  0.0000E+00
    -31.072  0.0000E+00  0.0000E+00
    -31.064  0.0000E+00  0.0000E+00
    -31.055  0.0000E+00  0.0000E+00
    -31.047  0.0000E+00  0.0000E+00
    -31.039  0.0000E+00  0.0000E+00
    -31.030  0.0000E+00  0.0000E+00
    -31.022  0.0000E+00  0.0000E+00
    -31.013  0.0000E+00  0.0000E+00
    -31.005  0.0000E+00  0.0000E+00
    -30.996  0.0000E+00  0.0000E+00
    -30.988  0.0000E+00  0.0000E+00
    -30.980  0.0000E+00  0.0000E+00
    -30.971  0.0000E+00  0.0000E+00
    -30.963  0.0000E+00  0.0000E+00
    -30.954  0.0000E+00  0.0000E+00
    -30.946  0.0000E+00  0.0000E+00
    -30.938  0.0000E+00  0.0000E+00
    -30.929  0.0000E+00  0.0000E+00
    -30.921  0.0000E+00  0.0000E+00
    -30.912  0.0000E+00  0.0000E+00
    -30.904  0.0000E+00  0.0000E+00
    -30.895  0.0000E+00  0.0000E+00
    -30.887  0.0000E+00  0.0000E+00
    -30.879  0.0000E+00  0.0000E+00
    -30.870  0.0000E+00  0.0000E+00
    -30.862  0.0000E+00  0.0000E+00
    -30.853  0.0000E+00  0.0000E+00
    -30.845  0.0000E+00  0.0000E+00
    -30.837  0.0000E+00  0.0000E+00
    -30.828  0.0000E+00  0.0000E+00
    -30.820  0.0000E+00  0.0000E+00
    -30.811  0.0000E+00  0.0000E+00
    -30.803  0.0000E+00  0.0000E+00
    -30.794  0.0000E+00  0.0000E+00
    -30.786  0.0000E+00  0.0000E+00
    -30.778  0.0000E+00  0.0000E+00
    -30.769  0.0000E+00  0.0000E+00
    -30.761  0.0000E+00  0.0000E+00
    -30.752  0.0000E+00  0.0000E+00
    -30.744  0.0000E+00  0.0000E+00
    -30.736  0.0000E+00  0.0000E+00
    -30.727  0.0000E+00  0.0000E+00
    -30.719  0.0000E+00  0.0000E+00
    -30.710  0.0000E+00  0.0000E+00
    -30.702  0.0000E+00  0.0000E+00
    -30.693  0.0000E+00  0.0000E+00
    -30.685  0.0000E+00  0.0000E+00
    -30.677  0.0000E+00  0.0000E+00
    -30.668  0.0000E+00  0.0000E+00
    -30.660  0.0000E+00  0.0000E+00
    -30.651  0.0000E+00  0.0000E+00
    -30.643  0.0000E+00  0.0000E+00
    -30.634  0.0000E+00  0.0000E+00
    -30.626  0.0000E+00  0.0000E+00
    -30.618  0.0000E+00  0.0000E+00
    -30.609  0.0000E+00  0.0000E+00
    -30.601  0.0000E+00  0.0000E+00
    -30.592  0.0000E+00  0.0000E+00
    -30.584  0.0000E+00  0.0000E+00
    -30.576  0.0000E+00  0.0000E+00
    -30.567  0.0000E+00  0.0000E+00
    -30.559  0.0000E+00  0.0000E+00
    -30.550  0.0000E+00  0.0000E+00
    -30.542  0.0000E+00  0.0000E+00
    -30.533  0.0000E+00  0.0000E+00
    -30.525  0.0000E+00  0.0000E+00
    -30.517  0.0000E+00  0.0000E+00
    -30.508  0.0000E+00  0.0000E+00
    -30.500  0.0000E+00  0.0000E+00
    -30.491  0.0000E+00  0.0000E+00
    -30.483  0.0000E+00  0.0000E+00
    -30.475  0.0000E+00  0.0000E+00
    -30.466  0.0000E+00  0.0000E+00
    -30.458  0.0000E+00  0.0000E+00
    -30.449  0.0000E+00  0.0000E+00
    -30.441  0.0000E+00  0.0000E+00
    -30.432  0.0000E+00  0.0000E+00
    -30.424  0.0000E+00  0.0000E+00
    -30.416  0.0000E+00  0.0000E+00
    -30.407  0.0000E+00  0.0000E+00
    -30.399  0.0000E+00  0.0000E+00
    -30.390  0.0000E+00  0.0000E+00
    -30.382  0.0000E+00  0.0000E+00
    -30.374  0.0000E+00  0.0000E+00
    -30.365  0.0000E+00  0.0000E+00
    -30.357  0.0000E+00  0.0000E+00
    -30.348  0.0000E+00  0.0000E+00
    -30.340  0.0000E+00  0.0000E+00
    -30.331  0.0000E+00  0.0000E+00
    -30.323  0.0000E+00  0.0000E+00
    -30.315  0.0000E+00  0.0000E+00
    -30.306  0.0000E+00  0.0000E+00
    -30.298  0.0000E+00  0.0000E+00
    -30.289  0.0000E+00  0.0000E+00
    -30.281  0.0000E+00  0.0000E+00
    -30.273  0.0000E+00  0.0000E+00
    -30.264  0.0000E+00  0.0000E+00
    -30.256  0.0000E+00  0.0000E+00
    -30.247  0.0000E+00  0.0000E+00
    -30.239  0.0000E+00  0.0000E+00
    -30.230  0.0000E+00  0.0000E+00
    -30.222  0.0000E+00  0.0000E+00
    -30.214  0.0000E+00  0.0000E+00
    -30.205  0.0000E+00  0.0000E+00
    -30.197  0.0000E+00  0.0000E+00
    -30.188  0.0000E+00  0.0000E+00
    -30.180  0.0000E+00  0.0000E+00
    -30.171  0.0000E+00  0.0000E+00
    -30.163  0.0000E+00  0.0000E+00
    -30.155  0.0000E+00  0.0000E+00
    -30.146  0.0000E+00  0.0000E+00
    -30.138  0.0000E+00  0.0000E+00
    -30.129  0.0000E+00  0.0000E+00
    -30.121  0.0000E+00  0.0000E+00
    -30.113  0.0000E+00  0.0000E+00
    -30.104  0.0000E+00  0.0000E+00
    -30.096  0.8243E-16  0.6939E-18
    -30.087  0.6842E-12  0.5760E-14
    -30.079  0.1355E-08  0.1141E-10
    -30.070  0.6751E-06  0.5694E-08
    -30.062  0.8598E-04  0.7295E-06
    -30.054  0.2867E-02  0.2486E-04
    -30.045  0.2603E-01  0.2440E-03
    -30.037  0.7583E-01  0.8823E-03
    -30.028  0.1684E+00  0.2300E-02
    -30.020  0.3760E+00  0.5465E-02
    -30.012  0.3111E+00  0.8085E-02
    -30.003  0.7886E-01  0.8748E-02
    -29.995  0.7732E-01  0.9399E-02
    -29.986  0.3106E+00  0.1201E-01
    -29.978  0.4219E+00  0.1557E-01
    -29.969  0.3958E+00  0.1890E-01
    -29.961  0.3999E+00  0.2226E-01
    -29.953  0.1581E+00  0.2359E-01
    -29.944  0.1787E-01  0.2375E-01
    -29.936  0.1686E-02  0.2376E-01
    -29.927  0.3680E-01  0.2407E-01
    -29.919  0.3206E+00  0.2677E-01
    -29.911  0.7784E+00  0.3332E-01
    -29.902  0.5359E+00  0.3783E-01
    -29.894  0.1116E+00  0.3877E-01
    -29.885  0.1046E+00  0.3965E-01
    -29.877  0.3444E+00  0.4255E-01
    -29.868  0.3382E+00  0.4540E-01
    -29.860  0.9387E-01  0.4619E-01
    -29.852  0.7217E-02  0.4625E-01
    -29.843  0.2044E-02  0.4627E-01
    -29.835  0.4091E-01  0.4661E-01
    -29.826  0.2427E+00  0.4865E-01
    -29.818  0.4553E+00  0.5249E-01
    -29.810  0.5942E+00  0.5749E-01
    -29.801  0.8226E+00  0.6441E-01
    -29.793  0.4434E+00  0.6815E-01
    -29.784  0.6877E-01  0.6873E-01
    -29.776  0.3117E-02  0.6875E-01
    -29.767  0.9283E-02  0.6883E-01
    -29.759  0.1089E+00  0.6975E-01
    -29.751  0.3546E+00  0.7273E-01
    -29.742  0.3268E+00  0.7548E-01
    -29.734  0.8505E-01  0.7620E-01
    -29.725  0.6163E-02  0.7625E-01
    -29.717  0.4779E-02  0.7629E-01
    -29.709  0.9340E-01  0.7708E-01
    -29.700  0.5112E+00  0.8138E-01
    -29.692  0.7864E+00  0.8800E-01
    -29.683  0.3448E+00  0.9090E-01
    -29.675  0.9107E-01  0.9167E-01
    -29.666  0.3759E+00  0.9483E-01
    -29.658  0.7942E+00  0.1015E+00
    -29.650  0.4777E+00  0.1055E+00
    -29.641  0.8064E-01  0.1062E+00
    -29.633  0.3712E-02  0.1062E+00
    -29.624  0.4555E-04  0.1063E+00
    -29.616  0.9411E-04  0.1063E+00
    -29.607  0.5225E-02  0.1063E+00
    -29.599  0.7741E-01  0.1069E+00
    -29.591  0.3156E+00  0.1096E+00
    -29.582  0.3633E+00  0.1127E+00
    -29.574  0.1204E+00  0.1137E+00
    -29.565  0.5306E-01  0.1141E+00
    -29.557  0.2472E+00  0.1162E+00
    -29.549  0.4599E+00  0.1201E+00
    -29.540  0.6088E+00  0.1252E+00
    -29.532  0.8222E+00  0.1321E+00
    -29.523  0.4249E+00  0.1357E+00
    -29.515  0.6305E-01  0.1362E+00
    -29.506  0.3102E-02  0.1363E+00
    -29.498  0.2244E-01  0.1364E+00
    -29.490  0.2433E+00  0.1385E+00
    -29.481  0.7320E+00  0.1447E+00
    -29.473  0.6236E+00  0.1499E+00
    -29.464  0.1499E+00  0.1512E+00
    -29.456  0.9915E-02  0.1512E+00
    -29.448  0.1746E-03  0.1512E+00
    -29.439  0.7964E-06  0.1512E+00
    -29.431  0.4118E-07  0.1513E+00
    -29.422  0.1448E-04  0.1513E+00
    -29.414  0.1338E-02  0.1513E+00
    -29.405  0.3258E-01  0.1515E+00
    -29.397  0.2171E+00  0.1534E+00
    -29.389  0.4453E+00  0.1571E+00
    -29.380  0.5707E+00  0.1619E+00
    -29.372  0.8222E+00  0.1688E+00
    -29.363  0.4941E+00  0.1730E+00
    -29.355  0.1092E+00  0.1739E+00
    -29.347  0.2521E+00  0.1760E+00
    -29.338  0.7359E+00  0.1822E+00
    -29.330  0.6181E+00  0.1874E+00
    -29.321  0.1465E+00  0.1887E+00
    -29.313  0.9546E-02  0.1887E+00
    -29.304  0.1658E-03  0.1887E+00
    -29.296  0.6477E-04  0.1888E+00
    -29.288  0.4798E-02  0.1888E+00
    -29.279  0.9513E-01  0.1896E+00
    -29.271  0.5155E+00  0.1939E+00
    -29.262  0.7852E+00  0.2005E+00
    -29.254  0.3391E+00  0.2034E+00
    -29.246  0.4084E-01  0.2037E+00
    -29.237  0.1330E-02  0.2037E+00
    -29.229  0.1134E-04  0.2037E+00
    -29.220  0.2680E-07  0.2038E+00
    -29.212  0.1325E-05  0.2038E+00
    -29.203  0.2206E-03  0.2038E+00
    -29.195  0.9558E-02  0.2038E+00
    -29.187  0.1113E+00  0.2048E+00
    -29.178  0.3764E+00  0.2079E+00
    -29.170  0.5921E+00  0.2129E+00
    -29.161  0.1080E+01  0.2220E+00
    -29.153  0.1055E+01  0.2309E+00
    -29.144  0.3123E+00  0.2335E+00
    -29.136  0.2575E-01  0.2337E+00
    -29.128  0.4657E-02  0.2338E+00
    -29.119  0.8588E-01  0.2345E+00
    -29.111  0.4919E+00  0.2386E+00
    -29.102  0.7914E+00  0.2453E+00
    -29.094  0.3610E+00  0.2483E+00
    -29.086  0.4598E-01  0.2487E+00
    -29.077  0.1586E-02  0.2487E+00
    -29.069  0.1434E-04  0.2487E+00
    -29.060  0.3695E-07  0.2488E+00
    -29.052  0.2471E-05  0.2488E+00
    -29.043  0.4181E-03  0.2488E+00
    -29.035  0.1841E-01  0.2489E+00
    -29.027  0.2171E+00  0.2507E+00
    -29.018  0.7085E+00  0.2567E+00
    -29.010  0.6543E+00  0.2622E+00
    -29.001  0.1707E+00  0.2636E+00
    -28.993  0.1227E-01  0.2637E+00
    -28.985  0.2356E-03  0.2637E+00
    -28.976  0.4933E-04  0.2638E+00
    -28.968  0.3895E-02  0.2638E+00
    -28.959  0.8319E-01  0.2645E+00
    -28.951  0.4847E+00  0.2686E+00
    -28.942  0.7929E+00  0.2752E+00
    -28.934  0.3696E+00  0.2783E+00
    -28.926  0.9631E-01  0.2792E+00
    -28.917  0.3740E+00  0.2823E+00
    -28.909  0.8129E+00  0.2892E+00
    -28.900  0.6448E+00  0.2946E+00
    -28.892  0.4724E+00  0.2986E+00
    -28.884  0.2673E+00  0.3008E+00
    -28.875  0.5001E-01  0.3012E+00
    -28.867  0.2885E-02  0.3013E+00
    -28.858  0.1438E-01  0.3014E+00
    -28.850  0.1874E+00  0.3030E+00
    -28.841  0.6760E+00  0.3086E+00
    -28.833  0.6891E+00  0.3144E+00
    -28.825  0.1986E+00  0.3161E+00
    -28.816  0.1582E-01  0.3162E+00
    -28.808  0.3370E-03  0.3162E+00
    -28.799  0.1866E-05  0.3162E+00
    -28.791  0.2628E-08  0.3162E+00
    -28.783  0.2205E-10  0.3163E+00
    -28.774  0.3565E-07  0.3163E+00
    -28.766  0.1517E-04  0.3163E+00
    -28.757  0.1653E-02  0.3163E+00
    -28.749  0.4730E-01  0.3167E+00
    -28.740  0.3664E+00  0.3197E+00
    -28.732  0.7926E+00  0.3264E+00
    -28.724  0.4866E+00  0.3305E+00
    -28.715  0.9623E-01  0.3313E+00
    -28.707  0.1336E+00  0.3324E+00
    -28.698  0.3904E+00  0.3357E+00
    -28.690  0.5206E+00  0.3401E+00
    -28.682  0.7787E+00  0.3467E+00
    -28.673  0.6580E+00  0.3522E+00
    -28.665  0.1702E+00  0.3536E+00
    -28.656  0.1232E-01  0.3537E+00
    -28.648  0.7211E-02  0.3538E+00
    -28.639  0.1206E+00  0.3548E+00
    -28.631  0.5715E+00  0.3596E+00
    -28.623  0.7629E+00  0.3661E+00
    -28.614  0.2906E+00  0.3685E+00
    -28.606  0.7325E-01  0.3691E+00
    -28.597  0.2467E+00  0.3712E+00
    -28.589  0.3957E+00  0.3745E+00
    -28.580  0.1806E+00  0.3760E+00
    -28.572  0.2303E-01  0.3762E+00
    -28.564  0.2037E-02  0.3763E+00
    -28.555  0.3903E-01  0.3766E+00
    -28.547  0.3310E+00  0.3794E+00
    -28.538  0.7823E+00  0.3860E+00
    -28.530  0.5243E+00  0.3904E+00
    -28.522  0.9881E-01  0.3912E+00
    -28.513  0.5092E-02  0.3912E+00
    -28.505  0.6946E-04  0.3912E+00
    -28.496  0.2443E-06  0.3912E+00
    -28.488  0.2174E-09  0.3912E+00
    -28.479  0.4827E-13  0.3913E+00
    -28.471  0.9901E-13  0.3913E+00
    -28.463  0.4416E-09  0.3913E+00
    -28.454  0.4933E-06  0.3913E+00
    -28.446  0.1396E-03  0.3913E+00
    -28.437  0.1020E-01  0.3913E+00
    -28.429  0.1976E+00  0.3930E+00
    -28.421  0.1048E+01  0.4018E+00
    -28.412  0.1564E+01  0.4150E+00
    -28.404  0.6652E+00  0.4206E+00
    -28.395  0.1389E+00  0.4218E+00
    -28.387  0.4179E+00  0.4253E+00
    -28.378  0.7987E+00  0.4320E+00
    -28.370  0.4356E+00  0.4357E+00
    -28.362  0.6655E-01  0.4362E+00
    -28.353  0.2766E-02  0.4362E+00
    -28.345  0.3441E-04  0.4363E+00
    -28.336  0.6196E-03  0.4363E+00
    -28.328  0.2421E-01  0.4365E+00
    -28.320  0.2542E+00  0.4386E+00
    -28.311  0.7405E+00  0.4448E+00
    -28.303  0.6109E+00  0.4500E+00
    -28.294  0.1422E+00  0.4512E+00
    -28.286  0.9227E-02  0.4512E+00
    -28.277  0.6859E-02  0.4513E+00
    -28.269  0.9000E-01  0.4521E+00
    -28.261  0.3333E+00  0.4549E+00
    -28.252  0.3489E+00  0.4578E+00
    -28.244  0.1033E+00  0.4587E+00
    -28.235  0.8528E-02  0.4587E+00
    -28.227  0.5641E-02  0.4588E+00
    -28.219  0.1033E+00  0.4597E+00
    -28.210  0.5347E+00  0.4642E+00
    -28.202  0.7787E+00  0.4707E+00
    -28.193  0.3216E+00  0.4734E+00
    -28.185  0.3699E-01  0.4737E+00
    -28.176  0.1149E-02  0.4737E+00
    -28.168  0.9344E-05  0.4737E+00
    -28.160  0.2533E-07  0.4738E+00
    -28.151  0.3133E-05  0.4738E+00
    -28.143  0.4248E-03  0.4738E+00
    -28.134  0.1505E-01  0.4739E+00
    -28.126  0.1442E+00  0.4751E+00
    -28.117  0.4056E+00  0.4785E+00
    -28.109  0.5424E+00  0.4831E+00
    -28.101  0.8025E+00  0.4898E+00
    -28.092  0.6130E+00  0.4950E+00
    -28.084  0.1634E+00  0.4964E+00
    -28.075  0.2523E+00  0.4985E+00
    -28.067  0.7453E+00  0.5048E+00
    -28.059  0.8030E+00  0.5115E+00
    -28.050  0.8156E+00  0.5184E+00
    -28.042  0.7087E+00  0.5244E+00
    -28.033  0.2077E+00  0.5261E+00
    -28.025  0.1705E-01  0.5262E+00
    -28.016  0.3747E-03  0.5262E+00
    -28.008  0.2142E-05  0.5262E+00
    -28.000  0.1902E-06  0.5263E+00
    -27.991  0.5634E-04  0.5263E+00
    -27.983  0.4369E-02  0.5263E+00
    -27.974  0.8959E-01  0.5270E+00
    -27.966  0.5016E+00  0.5313E+00
    -27.958  0.7890E+00  0.5379E+00
    -27.949  0.3519E+00  0.5409E+00
    -27.941  0.4381E-01  0.5412E+00
    -27.932  0.1475E-02  0.5412E+00
    -27.924  0.2576E-04  0.5413E+00
    -27.915  0.1216E-02  0.5413E+00
    -27.907  0.3058E-01  0.5415E+00
    -27.899  0.2089E+00  0.5433E+00
    -27.890  0.3994E+00  0.5466E+00
    -27.882  0.2166E+00  0.5485E+00
    -27.873  0.3292E-01  0.5487E+00
    -27.865  0.2260E-02  0.5488E+00
    -27.857  0.3133E-01  0.5490E+00
    -27.848  0.2936E+00  0.5515E+00
    -27.840  0.7657E+00  0.5579E+00
    -27.831  0.5658E+00  0.5627E+00
    -27.823  0.1178E+00  0.5637E+00
    -27.814  0.6883E-02  0.5638E+00
    -27.806  0.9638E-02  0.5638E+00
    -27.798  0.1464E+00  0.5651E+00
    -27.789  0.6179E+00  0.5703E+00
    -27.781  0.7360E+00  0.5765E+00
    -27.772  0.2553E+00  0.5786E+00
    -27.764  0.1459E+00  0.5798E+00
    -27.756  0.5763E+00  0.5847E+00
    -27.747  0.7608E+00  0.5911E+00
    -27.739  0.2849E+00  0.5935E+00
    -27.730  0.2965E-01  0.5937E+00
    -27.722  0.8318E-03  0.5937E+00
    -27.713  0.1641E-03  0.5938E+00
    -27.705  0.1098E-01  0.5938E+00
    -27.697  0.2047E+00  0.5956E+00
    -27.688  0.1057E+01  0.6045E+00
    -27.680  0.1554E+01  0.6176E+00
    -27.671  0.6556E+00  0.6231E+00
    -27.663  0.7801E-01  0.6237E+00
    -27.655  0.2539E-02  0.6237E+00
    -27.646  0.2192E-04  0.6237E+00
    -27.638  0.4900E-07  0.6237E+00
    -27.629  0.4721E-10  0.6238E+00
    -27.621  0.3314E-07  0.6238E+00
    -27.612  0.1431E-04  0.6238E+00
    -27.604  0.1583E-02  0.6238E+00
    -27.596  0.4593E-01  0.6242E+00
    -27.587  0.3608E+00  0.6272E+00
    -27.579  0.7913E+00  0.6338E+00
    -27.570  0.4921E+00  0.6380E+00
    -27.562  0.8596E-01  0.6387E+00
    -27.553  0.4097E-02  0.6387E+00
    -27.545  0.5161E-04  0.6387E+00
    -27.537  0.1778E-06  0.6388E+00
    -27.528  0.4937E-05  0.6388E+00
    -27.520  0.5989E-03  0.6388E+00
    -27.511  0.1903E-01  0.6389E+00
    -27.503  0.1632E+00  0.6403E+00
    -27.495  0.3903E+00  0.6436E+00
    -27.486  0.2646E+00  0.6458E+00
    -27.478  0.5045E-01  0.6462E+00
    -27.469  0.3195E-02  0.6463E+00
    -27.461  0.2457E-01  0.6465E+00
    -27.452  0.2935E+00  0.6489E+00
    -27.444  0.1011E+01  0.6574E+00
    -27.436  0.1126E+01  0.6669E+00
    -27.427  0.8547E+00  0.6741E+00
    -27.419  0.7999E+00  0.6809E+00
    -27.410  0.3091E+00  0.6835E+00
    -27.402  0.3433E-01  0.6837E+00
    -27.394  0.6077E-02  0.6838E+00
    -27.385  0.9831E-01  0.6846E+00
    -27.377  0.5231E+00  0.6890E+00
    -27.368  0.7827E+00  0.6956E+00
    -27.360  0.3321E+00  0.6984E+00
    -27.351  0.3927E-01  0.6987E+00
    -27.343  0.1255E-02  0.6987E+00
    -27.335  0.1050E-04  0.6987E+00
    -27.326  0.1657E-06  0.6988E+00
    -27.318  0.4566E-04  0.6988E+00
    -27.309  0.3745E-02  0.6988E+00
    -27.301  0.8127E-01  0.6995E+00
    -27.293  0.4888E+00  0.7036E+00
    -27.284  0.9436E+00  0.7115E+00
    -27.276  0.9964E+00  0.7199E+00
    -27.267  0.7814E+00  0.7265E+00
    -27.259  0.2455E+00  0.7286E+00
    -27.250  0.2250E-01  0.7287E+00
    -27.242  0.5571E-03  0.7287E+00
    -27.234  0.3596E-05  0.7287E+00
    -27.225  0.5919E-08  0.7287E+00
    -27.217  0.7262E-10  0.7288E+00
    -27.208  0.9630E-07  0.7288E+00
    -27.200  0.3337E-04  0.7288E+00
    -27.192  0.2972E-02  0.7288E+00
    -27.183  0.6977E-01  0.7294E+00
    -27.175  0.4457E+00  0.7331E+00
    -27.166  0.7981E+00  0.7398E+00
    -27.158  0.4054E+00  0.7432E+00
    -27.149  0.5761E-01  0.7437E+00
    -27.141  0.2222E-02  0.7437E+00
    -27.133  0.2255E-04  0.7437E+00
    -27.124  0.5869E-07  0.7437E+00
    -27.116  0.1708E-09  0.7438E+00
    -27.107  0.1445E-06  0.7438E+00
    -27.099  0.4043E-04  0.7438E+00
    -27.090  0.3013E-02  0.7438E+00
    -27.082  0.6422E-01  0.7443E+00
    -27.074  0.4363E+00  0.7480E+00
    -27.065  0.1039E+01  0.7567E+00
    -27.057  0.8718E+00  0.7641E+00
    -27.048  0.2521E+00  0.7662E+00
    -27.040  0.1987E+00  0.7679E+00
    -27.032  0.7327E+00  0.7740E+00
    -27.023  0.1151E+01  0.7837E+00
    -27.015  0.1009E+01  0.7922E+00
    -27.006  0.4202E+00  0.7957E+00
    -26.998  0.5725E-01  0.7962E+00
    -26.989  0.2519E-02  0.7963E+00
    -26.981  0.1586E-01  0.7964E+00
    -26.973  0.1988E+00  0.7981E+00
    -26.964  0.6893E+00  0.8039E+00
    -26.956  0.6758E+00  0.8096E+00
    -26.947  0.1873E+00  0.8111E+00
    -26.939  0.1433E-01  0.8112E+00
    -26.931  0.2929E-03  0.8112E+00
    -26.922  0.1555E-05  0.8112E+00
    -26.914  0.2102E-08  0.8113E+00
    -26.905  0.7491E-08  0.8113E+00
    -26.897  0.4348E-05  0.8113E+00
    -26.888  0.6437E-03  0.8113E+00
    -26.880  0.2486E-01  0.8115E+00
    -26.872  0.2580E+00  0.8136E+00
    -26.863  0.7434E+00  0.8199E+00
    -26.855  0.6114E+00  0.8250E+00
    -26.846  0.2362E+00  0.8270E+00
    -26.838  0.5281E+00  0.8315E+00
    -26.830  0.7841E+00  0.8381E+00
    -26.821  0.3356E+00  0.8409E+00
    -26.813  0.4006E-01  0.8412E+00
    -26.804  0.1292E-02  0.8412E+00
    -26.796  0.1092E-04  0.8412E+00
    -26.787  0.2362E-07  0.8412E+00
    -26.779  0.4234E-10  0.8413E+00
    -26.771  0.4702E-07  0.8413E+00
    -26.762  0.1890E-04  0.8413E+00
    -26.754  0.1949E-02  0.8413E+00
    -26.745  0.5279E-01  0.8417E+00
    -26.737  0.3878E+00  0.8450E+00
    -26.729  0.7963E+00  0.8517E+00
    -26.720  0.4638E+00  0.8556E+00
    -26.712  0.7578E-01  0.8562E+00
    -26.703  0.3388E-02  0.8562E+00
    -26.695  0.1405E-02  0.8563E+00
    -26.686  0.3303E-01  0.8565E+00
    -26.678  0.2203E+00  0.8584E+00
    -26.670  0.4761E+00  0.8624E+00
    -26.661  0.6751E+00  0.8681E+00
    -26.653  0.8265E+00  0.8750E+00
    -26.644  0.3866E+00  0.8783E+00
    -26.636  0.5936E-01  0.8788E+00
    -26.628  0.1016E+00  0.8797E+00
    -26.619  0.4492E+00  0.8834E+00
    -26.611  0.8973E+00  0.8910E+00
    -26.602  0.8711E+00  0.8983E+00
    -26.594  0.3135E+00  0.9010E+00
    -26.585  0.4397E-01  0.9013E+00
    -26.577  0.1531E+00  0.9026E+00
    -26.569  0.6270E+00  0.9079E+00
    -26.560  0.7296E+00  0.9140E+00
    -26.552  0.2408E+00  0.9161E+00
    -26.543  0.4113E-01  0.9164E+00
    -26.535  0.2229E+00  0.9183E+00
    -26.526  0.7136E+00  0.9243E+00
    -26.518  0.6481E+00  0.9297E+00
    -26.510  0.1662E+00  0.9311E+00
    -26.501  0.1175E-01  0.9312E+00
    -26.493  0.2214E-03  0.9312E+00
    -26.484  0.1082E-05  0.9312E+00
    -26.476  0.1343E-08  0.9312E+00
    -26.468  0.4447E-12  0.9313E+00
    -26.459  0.1323E-09  0.9313E+00
    -26.451  0.1624E-06  0.9313E+00
    -26.442  0.5041E-04  0.9313E+00
    -26.434  0.4027E-02  0.9313E+00
    -26.425  0.8500E-01  0.9320E+00
    -26.417  0.4896E+00  0.9361E+00
    -26.409  0.7919E+00  0.9428E+00
    -26.400  0.3633E+00  0.9458E+00
    -26.392  0.5036E-01  0.9463E+00
    -26.383  0.8409E-01  0.9470E+00
    -26.375  0.4828E+00  0.9510E+00
    -26.367  0.7933E+00  0.9577E+00
    -26.358  0.3697E+00  0.9608E+00
    -26.350  0.4812E-01  0.9612E+00
    -26.341  0.1696E-02  0.9612E+00
    -26.333  0.1570E-04  0.9612E+00
    -26.324  0.3723E-07  0.9612E+00
    -26.316  0.5598E-10  0.9613E+00
    -26.308  0.5256E-07  0.9613E+00
    -26.299  0.2066E-04  0.9613E+00
    -26.291  0.2082E-02  0.9613E+00
    -26.282  0.5525E-01  0.9617E+00
    -26.274  0.4023E+00  0.9651E+00
    -26.266  0.9033E+00  0.9727E+00
    -26.257  0.9954E+00  0.9811E+00
    -26.249  0.8494E+00  0.9883E+00
    -26.240  0.3319E+00  0.9910E+00
    -26.232  0.2090E+00  0.9928E+00
    -26.223  0.6587E+00  0.9984E+00
    -26.215  0.7057E+00  0.1004E+01
    -26.207  0.2142E+00  0.1006E+01
    -26.198  0.1800E-01  0.1006E+01
    -26.190  0.4257E-03  0.1006E+01
    -26.181  0.2093E-02  0.1006E+01
    -26.173  0.5536E-01  0.1007E+01
    -26.165  0.4001E+00  0.1010E+01
    -26.156  0.8514E+00  0.1017E+01
    -26.148  0.7268E+00  0.1023E+01
    -26.139  0.4599E+00  0.1027E+01
    -26.131  0.1592E+00  0.1029E+01
    -26.122  0.1759E-01  0.1029E+01
    -26.114  0.5078E-02  0.1029E+01
    -26.106  0.9194E-01  0.1030E+01
    -26.097  0.5076E+00  0.1034E+01
    -26.089  0.7885E+00  0.1040E+01
    -26.080  0.3820E+00  0.1044E+01
    -26.072  0.3574E+00  0.1047E+01
    -26.064  0.7774E+00  0.1053E+01
    -26.055  0.5420E+00  0.1058E+01
    -26.047  0.1065E+00  0.1059E+01
    -26.038  0.5731E-02  0.1059E+01
    -26.030  0.8171E-04  0.1059E+01
    -26.021  0.3005E-06  0.1059E+01
    -26.013  0.2798E-09  0.1059E+01
    -26.005  0.6528E-13  0.1059E+01
    -25.996  0.1266E-13  0.1059E+01
    -25.988  0.6983E-10  0.1059E+01
    -25.979  0.9592E-07  0.1059E+01
    -25.971  0.3327E-04  0.1059E+01
    -25.962  0.2965E-02  0.1059E+01
    -25.954  0.6967E-01  0.1059E+01
    -25.946  0.4454E+00  0.1063E+01
    -25.937  0.7982E+00  0.1070E+01
    -25.929  0.4057E+00  0.1073E+01
    -25.920  0.5771E-01  0.1074E+01
    -25.912  0.3921E-02  0.1074E+01
    -25.904  0.4808E-01  0.1074E+01
    -25.895  0.3694E+00  0.1077E+01
    -25.887  0.7932E+00  0.1084E+01
    -25.878  0.4830E+00  0.1088E+01
    -25.870  0.8257E-01  0.1089E+01
    -25.861  0.3850E-02  0.1089E+01
    -25.853  0.7619E-04  0.1089E+01
    -25.845  0.2220E-02  0.1089E+01
    -25.836  0.4541E-01  0.1089E+01
    -25.828  0.2612E+00  0.1091E+01
    -25.819  0.5381E+00  0.1096E+01
    -25.811  0.7900E+00  0.1103E+01
    -25.803  0.8003E+00  0.1109E+01
    -25.794  0.5879E+00  0.1114E+01
    -25.786  0.8101E+00  0.1121E+01
    -25.777  0.5808E+00  0.1126E+01
    -25.769  0.5131E+00  0.1130E+01
    -25.760  0.8036E+00  0.1137E+01
    -25.752  0.4347E+00  0.1141E+01
    -25.744  0.6626E-01  0.1141E+01
    -25.735  0.2747E-02  0.1141E+01
    -25.727  0.3015E-04  0.1141E+01
    -25.718  0.4622E-04  0.1141E+01
    -25.710  0.3773E-02  0.1141E+01
    -25.702  0.8150E-01  0.1142E+01
    -25.693  0.4801E+00  0.1146E+01
    -25.685  0.7939E+00  0.1153E+01
    -25.676  0.3777E+00  0.1156E+01
    -25.668  0.1281E+00  0.1157E+01
    -25.659  0.3204E+00  0.1160E+01
    -25.651  0.3611E+00  0.1163E+01
    -25.643  0.1158E+00  0.1164E+01
    -25.634  0.1045E-01  0.1164E+01
    -25.626  0.9474E-02  0.1164E+01
    -25.617  0.1435E+00  0.1165E+01
    -25.609  0.6144E+00  0.1170E+01
    -25.601  0.7797E+00  0.1177E+01
    -25.592  0.5904E+00  0.1182E+01
    -25.584  0.8087E+00  0.1189E+01
    -25.575  0.5172E+00  0.1193E+01
    -25.567  0.9559E-01  0.1194E+01
    -25.558  0.4834E-02  0.1194E+01
    -25.550  0.6469E-04  0.1194E+01
    -25.542  0.2231E-06  0.1194E+01
    -25.533  0.1946E-09  0.1194E+01
    -25.525  0.4234E-13  0.1194E+01
    -25.516  0.0000E+00  0.1194E+01
    -25.508  0.1772E-12  0.1194E+01
    -25.499  0.6517E-09  0.1194E+01
    -25.491  0.6002E-06  0.1194E+01
    -25.483  0.1402E-03  0.1194E+01
    -25.474  0.8469E-02  0.1194E+01
    -25.466  0.1361E+00  0.1195E+01
    -25.457  0.6004E+00  0.1200E+01
    -25.449  0.7471E+00  0.1206E+01
    -25.441  0.2633E+00  0.1209E+01
    -25.432  0.2578E-01  0.1209E+01
    -25.424  0.2429E-02  0.1209E+01
    -25.415  0.4917E-01  0.1209E+01
    -25.407  0.3738E+00  0.1212E+01
    -25.398  0.7942E+00  0.1219E+01
    -25.390  0.4847E+00  0.1223E+01