    2    2    1    1
  0.3647508E+02  0.2294499E-09  0.2294499E-09  0.1600000E-08  0.5000000E-15
  1.000000000000000E-004
  CAR 
 unknown system                          
     10    154     16
 
  0.0000000E+00  0.0000000E+00  0.0000000E+00  0.6250000E-03
      1        -30.039101   1.000000
      2        -14.503423   1.000000
      3         -8.394862   1.000000
      4         -8.394859   1.000000
      5         -5.632560   1.000000
      6         -0.037295   0.000000
      7         -0.037290   0.000000
      8          0.312790   0.000000
      9          2.078107   0.000000
     10          2.232330   0.000000
     11          3.312347   0.000000
     12          4.301118   0.000000
     13          6.118613   0.000000
     14          7.730973   0.000000
     15         10.130595   0.000000
     16         12.519908   0.000000
 
  0.2500000E-01  0.0000000E+00  0.0000000E+00  0.3750000E-02
      1        -30.021083   1.000000
      2        -14.486798   1.000000
      3         -8.498939   1.000000
      4         -8.427446   1.000000
      5         -5.623683   1.000000
      6         -0.043444   0.000000
      7         -0.001655   0.000000
      8          0.377912   0.000000
      9          2.101446   0.000000
     10          2.255134   0.000000
     11          3.334628   0.000000
     12          4.324331   0.000000
     13          6.139010   0.000000
     14          7.753544   0.000000
     15         10.148275   0.000000
     16         12.541078   0.000000
 
  0.5000000E-01  0.0000000E+00  0.0000000E+00  0.3750000E-02
      1        -29.967051   1.000000
      2        -14.437161   1.000000
      3         -8.797688   1.000000
      4         -8.521879   1.000000
      5         -5.597387   1.000000
      6         -0.081035   0.000000
      7          0.102391   0.000000
      8          0.580368   0.000000
      9          2.171428   0.000000
     10          2.323514   0.000000
     11          3.401466   0.000000
     12          4.393944   0.000000
     13          6.200161   0.000000
     14          7.821214   0.000000
     15         10.201158   0.000000
     16         12.604442   0.000000
 
  0.7500000E-01 -0.6938894E-17  0.0000000E+00  0.3750000E-02
      1        -29.876983   1.000000
      2        -14.354935   1.000000
      3         -9.259641   1.000000
      4         -8.671362   1.000000
      5         -5.554870   1.000000
      6         -0.159976   0.000000
      7          0.266560   0.000000
      8          0.899408   0.000000
      9          2.287922   0.000000
     10          2.437483   0.000000
     11          3.512882   0.000000
     12          4.509884   0.000000
     13          6.301951   0.000000
     14          7.933853   0.000000
     15         10.288785   0.000000
     16         12.709536   0.000000
 
  0.1000000E+00  0.0000000E+00  0.0000000E+00  0.3750000E-02
      1        -29.751139   1.000000
      2        -14.240472   1.000000
      3         -9.848087   1.000000
      4         -8.865930   1.000000
      5         -5.498826   1.000000
      6         -0.272577   0.000000
      7          0.478941   0.000000
      8          1.290229   0.000000
      9          2.450610   0.000000
     10          2.597407   0.000000
     11          3.669046   0.000000
     12          4.672032   0.000000
     13          6.444273   0.000000
     14          8.091252   0.000000
     15         10.410485   0.000000
     16         12.855513   0.000000
 
  0.1250000E+00  0.0000000E+00  0.0000000E+00  0.3750000E-02
      1        -29.589710   1.000000
      2        -14.095818   1.000000
      3        -10.526731   1.000000
      4         -9.094418   1.000000
      5         -5.433203   1.000000
      6         -0.409320   0.000000
      7          0.726076   0.000000
      8          1.708879   0.000000
      9          2.658804   0.000000
     10          2.804507   0.000000
     11          3.870432   0.000000
     12          4.880237   0.000000
     13          6.627137   0.000000
     14          8.293117   0.000000
     15         10.565516   0.000000
     16         13.040997   0.000000
 
  0.1500000E+00  0.0000000E+00  0.0000000E+00  0.3750000E-02
      1        -29.392913   1.000000
      2        -13.924512   1.000000
      3        -11.265337   1.000000
      4         -9.345670   1.000000
      5         -5.362901   1.000000
      6         -0.561264   0.000000
      7          0.994387   0.000000
      8          2.116669   0.000000
      9          2.911525   0.000000
     10          3.061051   0.000000
     11          4.117872   0.000000
     12          5.134369   0.000000
     13          6.850773   0.000000
     14          8.539113   0.000000
     15         10.753256   0.000000
     16         13.263858   0.000000
 
  0.1750000E+00  0.0000000E+00  0.0000000E+00  0.3750000E-02
      1        -29.161044   1.000000
      2        -13.737616   1.000000
      3        -12.032434   1.000000
      4         -9.610133   1.000000
      5         -5.295200   1.000000
      6         -0.719197   0.000000
      7          1.271249   0.000000
      8          2.480593   0.000000
      9          3.208528   0.000000
     10          3.368516   0.000000
     11          4.412222   0.000000
     12          5.434383   0.000000
     13          7.115636   0.000000
     14          8.828891   0.000000
     15         10.973441   0.000000
     16         13.520789   0.000000
 
  0.2000000E+00  0.0000000E+00  0.0000000E+00  0.3750000E-02
      1        -28.894589   1.000000
      2        -13.600391   1.000000
      3        -12.748825   1.000000
      4         -9.879228   1.000000
      5         -5.239044   1.000000
      6         -0.873496   0.000000
      7          1.545787   0.000000
      8          2.776589   0.000000
      9          3.551376   0.000000
     10          3.724041   0.000000
     11          4.753570   0.000000
     12          5.780393   0.000000
     13          7.422239   0.000000
     14          9.162148   0.000000
     15         11.226348   0.000000
     16         13.806542   0.000000
 
  0.2250000E+00  0.0000000E+00  0.0000000E+00  0.3750000E-02
      1        -28.594143   1.000000
      2        -13.927987   1.000000
      3        -12.987024   1.000000
      4        -10.144769   1.000000
      5         -5.204585   1.000000
      6         -1.013929   0.000000
      7          1.809181   0.000000
      8          2.991950   0.000000
      9          3.941419   0.000000
     10          4.121512   0.000000
     11          5.140584   0.000000
     12          6.172662   0.000000
     13          7.770784   0.000000
     14          9.538669   0.000000
     15         11.512857   0.000000
     16         14.112519   0.000000
 
  0.2500000E+00  0.0000000E+00  0.0000000E+00  0.3750000E-02
      1        -28.260299   1.000000
      2        -14.685951   1.000000
      3        -12.774838   1.000000
      4        -10.402008   1.000000
      5         -5.203467   1.000000
      6         -1.130909   0.000000
      7          2.054486   0.000000
      8          3.123328   0.000000
      9          4.377823   0.000000
     10          4.557044   0.000000
     11          5.570968   0.000000
     12          6.611436   0.000000
     13          8.160677   0.000000
     14          9.958255   0.000000
     15         11.833997   0.000000
     16         14.424217   0.000000
 
  0.2750000E+00  0.2775558E-16  0.0000000E+00  0.3750000E-02
      1        -27.894298   1.000000
      2        -15.506652   1.000000
      3        -12.473562   1.000000
      4        -10.645351   1.000000
      5         -5.247056   1.000000
      6         -1.216266   0.000000
      7          2.277003   0.000000
      8          3.174598   0.000000
      9          4.858461   0.000000
     10          5.030390   0.000000
     11          6.042815   0.000000
     12          7.096741   0.000000
     13          8.590377   0.000000
     14         10.420516   0.000000
     15         12.190136   0.000000
     16         14.718137   0.000000
 
  0.3000000E+00  0.0000000E+00  0.0000000E+00  0.3750000E-02
      1        -27.497162   1.000000
      2        -16.333079   1.000000
      3        -12.135659   1.000000
      4        -10.871625   1.000000
      5         -5.343261   1.000000
      6         -1.265409   0.000000
      7          2.473831   0.000000
      8          3.156809   0.000000
      9          5.380320   0.000000
     10          5.543140   0.000000
     11          6.555408   0.000000
     12          7.628292   0.000000
     13          9.057641   0.000000
     14         10.924433   0.000000
     15         12.579712   0.000000
     16         14.962470   0.000000
 
  0.3250000E+00  0.0000000E+00  0.0000000E+00  0.3750000E-02
      1        -27.071199   1.000000
      2        -17.150748   1.000000
      3        -11.773927   1.000000
      4        -11.077264   1.000000
      5         -5.495630   1.000000
      6         -1.278825   0.000000
      7          2.643725   0.000000
      8          3.086992   0.000000
      9          5.938493   0.000000
     10          6.098090   0.000000
     11          7.109107   0.000000
     12          8.205487   0.000000
     13          9.559908   0.000000
     14         11.467506   0.000000
     15         12.997203   0.000000
     16         15.117710   0.000000
 
  0.3500000E+00 -0.2775558E-16  0.0000000E+00  0.3750000E-02
      1        -26.618953   1.000000
      2        -17.949372   1.000000
      3        -11.395436   1.000000
      4        -11.259801   1.000000
      5         -5.701486   1.000000
      6         -1.262134   0.000000
      7          2.786721   0.000000
      8          2.985104   0.000000
      9          6.525360   0.000000
     10          6.699432   0.000000
     11          7.704889   0.000000
     12          8.827403   0.000000
     13         10.094374   0.000000
     14         12.043588   0.000000
     15         13.427845   0.000000
     16         15.106547   0.000000
 
  0.3750000E+00 -0.2775558E-16  0.0000000E+00  0.3750000E-02
      1        -26.145333   1.000000
      2        -18.721194   1.000000
      3        -11.417146   1.000000
      4        -11.008295   1.000000
      5         -5.952365   1.000000
      6         -1.224694   0.000000
      7          2.870520   0.000000
      8          2.903732   0.000000
      9          7.132501   0.000000
     10          7.350563   0.000000
     11          8.343912   0.000000
     12          9.492551   0.000000
     13         10.656833   0.000000
     14         12.634064   0.000000
     15         13.823680   0.000000
     16         14.842669   0.000000
 
  0.4000000E+00  0.0000000E+00  0.0000000E+00  0.3750000E-02
      1        -25.658600   1.000000
      2        -19.455515   1.000000
      3        -11.548701   1.000000
      4        -10.623479   1.000000
      5         -6.234884   1.000000
      6         -1.177322   0.000000
      7          2.759456   0.000000
      8          2.996164   0.000000
      9          7.753134   0.000000
     10          8.051061   0.000000
     11          9.026953   0.000000
     12         10.197929   0.000000
     13         11.236586   0.000000
     14         13.146583   0.000000
     15         14.002525   0.000000
     16         14.518936   0.000000
 
  0.4250000E+00 -0.2775558E-16  0.0000000E+00  0.3750000E-02
      1        -25.173863   1.000000
      2        -20.134525   1.000000
      3        -11.651483   1.000000
      4        -10.256735   1.000000
      5         -6.527346   1.000000
      6         -1.129960   0.000000
      7          2.664152   0.000000
      8          3.065834   0.000000
      9          8.379116   0.000000
     10          8.797751   0.000000
     11          9.753004   0.000000
     12         10.934334   0.000000
     13         11.790702   0.000000
     14         13.157385   0.000000
     15         13.887093   0.000000
     16         14.381055   0.000000
 
  0.4500000E+00  0.0000000E+00  0.0000000E+00  0.3750000E-02
      1        -24.722196   1.000000
      2        -20.725229   1.000000
      3        -11.725304   1.000000
      4         -9.935039   1.000000
      5         -6.799231   1.000000
      6         -1.090675   0.000000
      7          2.592250   0.000000
      8          3.114310   0.000000
      9          8.991881   0.000000
     10          9.586331   0.000000
     11         10.512562   0.000000
     12         11.629952   0.000000
     13         12.123171   0.000000
     14         12.880640   0.000000
     15         13.291283   0.000000
     16         14.228418   0.000000
 
  0.4750000E+00  0.0000000E+00  0.0000000E+00  0.3750000E-02
      1        -24.370102   1.000000
      2        -21.161638   1.000000
      3        -11.770295   1.000000
      4         -9.702614   1.000000
      5         -7.003386   1.000000
      6         -1.065078   0.000000
      7          2.547930   0.000000
      8          3.142794   0.000000
      9          9.533097   0.000000
     10         10.409093   0.000000
     11         11.196458   0.000000
     12         11.735566   0.000000
     13         12.155826   0.000000
     14         12.657586   0.000000
     15         13.214872   0.000000
     16         13.612827   0.000000
 
  0.5000000E+00  0.0000000E+00  0.0000000E+00  0.1875000E-02
      1        -24.228795   1.000000
      2        -21.332077   1.000000
      3        -11.785251   1.000000
      4         -9.615431   1.000000
      5         -7.081634   1.000000
      6         -1.056250   0.000000
      7          2.532980   0.000000
      8          3.152192   0.000000
      9          9.795642   0.000000
     10         11.127900   0.000000
     11         11.275943   0.000000
     12         11.391676   0.000000
     13         12.226800   0.000000
     14         12.442401   0.000000
     15         13.428924   0.000000
     16         13.492018   0.000000
 
  0.2500000E-01  0.2500000E-01  0.0000000E+00  0.3750000E-02
      1        -29.985085   1.000000
      2        -14.453733   1.000000
      3         -8.698567   1.000000
      4         -8.492421   1.000000
      5         -5.606083   1.000000
      6         -0.045130   0.000000
      7          0.042557   0.000000
      8          0.517163   0.000000
      9          2.148107   0.000000
     10          2.300717   0.000000
     11          3.379184   0.000000
     12          4.370744   0.000000
     13          6.179783   0.000000
     14          7.798665   0.000000
     15         10.183556   0.000000
     16         12.583347   0.000000
 
  0.5000000E-01  0.2500000E-01  0.0000000E+00  0.7500000E-02
      1        -29.913032   1.000000
      2        -14.387781   1.000000
      3         -9.074432   1.000000
      4         -8.618904   1.000000
      5         -5.571702   1.000000
      6         -0.080978   0.000000
      7          0.141954   0.000000
      8          0.790144   0.000000
      9          2.241354   0.000000
     10          2.391820   0.000000
     11          3.468280   0.000000
     12          4.463521   0.000000
     13          6.261238   0.000000
     14          7.888821   0.000000
     15         10.253799   0.000000
     16         12.667590   0.000000
 
  0.7500000E-01  0.2500000E-01  0.0000000E+00  0.7500000E-02
      1        -29.805042   1.000000
      2        -14.289369   1.000000
      3         -9.593303   1.000000
      4         -8.796833   1.000000
      5         -5.522343   1.000000
      6         -0.168255   0.000000
      7          0.314641   0.000000
      8          1.152411   0.000000
      9          2.380980   0.000000
     10          2.528527   0.000000
     11          3.601972   0.000000
     12          4.602568   0.000000
     13          6.383244   0.000000
     14          8.023848   0.000000
     15         10.358425   0.000000
     16         12.793175   0.000000
 
  0.1000000E+00  0.2500000E-01  0.0000000E+00  0.7500000E-02
      1        -29.661392   1.000000
      2        -14.159691   1.000000
      3        -10.220411   1.000000
      4         -9.014934   1.000000
      5         -5.461304   1.000000
      6         -0.288908   0.000000
      7          0.539957   0.000000
      8          1.558436   0.000000
      9          2.566498   0.000000
     10          2.711483   0.000000
     11          3.780539   0.000000
     12          4.787752   0.000000
     13          6.545724   0.000000
     14          8.203500   0.000000
     15         10.496695   0.000000
     16         12.959037   0.000000
 
  0.1250000E+00  0.2500000E-01  0.0000000E+00  0.7500000E-02
      1        -29.482287   1.000000
      2        -14.001356   1.000000
      3        -10.922760   1.000000
      4         -9.261391   1.000000
      5         -5.393230   1.000000
      6         -0.430692   0.000000
      7          0.799256   0.000000
      8          1.969327   0.000000
      9          2.797015   0.000000
     10          2.942397   0.000000
     11          4.004610   0.000000
     12          5.018929   0.000000
     13          6.748772   0.000000
     14          8.427466   0.000000
     15         10.667892   0.000000
     16         13.163493   0.000000
 
  0.1500000E+00  0.2500000E-01  0.0000000E+00  0.7500000E-02
      1        -29.267953   1.000000
      2        -13.820511   1.000000
      3        -11.671859   1.000000
      4         -9.525640   1.000000
      5         -5.324159   1.000000
      6         -0.583706   0.000000
      7          1.076611   0.000000
      8          2.350958   0.000000
      9          3.071735   0.000000
     10          3.223558   0.000000
     11          4.275087   0.000000
     12          5.296013   0.000000
     13          6.992726   0.000000
     14          8.695405   0.000000
     15         10.871532   0.000000
     16         13.403941   0.000000
 
  0.1750000E+00  0.2500000E-01  0.0000000E+00  0.7500000E-02
      1        -29.018757   1.000000
      2        -13.642762   1.000000
      3        -12.424183   1.000000
      4         -9.797699   1.000000
      5         -5.261860   1.000000
      6         -0.738209   0.000000
      7          1.358674   0.000000
      8          2.675324   0.000000
      9          3.391429   0.000000
     10          3.554778   0.000000
     11          4.592600   0.000000
     12          5.619042   0.000000
     13          7.278111   0.000000
     14          9.006996   0.000000
     15         11.107600   0.000000
     16         13.676301   0.000000
 
  0.2000000E+00  0.2500000E-01  0.0000000E+00  0.7500000E-02
      1        -28.735277   1.000000
      2        -13.672177   1.000000
      3        -12.963055   1.000000
      4        -10.070065   1.000000
      5         -5.215894   1.000000
      6         -0.884254   0.000000
      7          1.634441   0.000000
      8          2.924328   0.000000
      9          3.758016   0.000000
     10          3.931277   0.000000
     11          4.956654   0.000000
     12          5.988209   0.000000
     13          7.605369   0.000000
     14          9.361978   0.000000
     15         11.376699   0.000000
     16         13.973938   0.000000
 
  0.2250000E+00  0.2500000E-01  0.0000000E+00  0.7500000E-02
      1        -28.418092   1.000000
      2        -14.298497   1.000000
      3        -12.889322   1.000000
      4        -10.335914   1.000000
      5         -5.197428   1.000000
      6         -1.011833   0.000000
      7          1.895538   0.000000
      8          3.090495   0.000000
      9          4.171667   0.000000
     10          4.347753   0.000000
     11          5.365431   0.000000
     12          6.403773   0.000000
     13          7.974407   0.000000
     14          9.760141   0.000000
     15         11.679893   0.000000
     16         14.285606   0.000000
 
  0.2500000E+00  0.2500000E-01  0.0000000E+00  0.7500000E-02
      1        -28.068056   1.000000
      2        -15.099054   1.000000
      3        -12.618077   1.000000
      4        -10.589976   1.000000
      5         -5.217814   1.000000
      6         -1.111791   0.000000
      7          2.135753   0.000000
      8          3.174431   0.000000
      9          4.630682   0.000000
     10          4.802282   0.000000
     11          5.816768   0.000000
     12          6.865868   0.000000
     13          8.384252   0.000000
     14         10.201200   0.000000
     15         12.018108   0.000000
     16         14.592048   0.000000
 
  0.2750000E+00  0.2500000E-01  0.0000000E+00  0.7500000E-02
      1        -27.686308   1.000000
      2        -15.922892   1.000000
      3        -12.296546   1.000000
      4        -10.827628   1.000000
      5         -5.287096   1.000000
      6         -1.177609   0.000000
      7          2.350783   0.000000
      8          3.184046   0.000000
      9          5.132545   0.000000
     10          5.295523   0.000000
     11          6.309298   0.000000
     12          7.374355   0.000000
     13          8.833033   0.000000
     14         10.684483   0.000000
     15         12.391044   0.000000
     16         14.863698   0.000000
 
  0.3000000E+00  0.2500000E-01  0.0000000E+00  0.7500000E-02
      1        -27.274615   1.000000
      2        -16.743881   1.000000
      3        -11.946830   1.000000
      4        -11.045377   1.000000
      5         -5.411181   1.000000
      6         -1.207002   0.000000
      7          2.537259   0.000000
      8          3.134905   0.000000
      9          5.673468   0.000000
     10          5.829454   0.000000
     11          6.842797   0.000000
     12          7.928785   0.000000
     13          9.318351   0.000000
     14         11.208344   0.000000
     15         12.795673   0.000000
     16         15.065128   0.000000
 
  0.3250000E+00  0.2500000E-01  0.0000000E+00  0.7500000E-02
      1        -26.835204   1.000000
      2        -17.551166   1.000000
      3        -11.580496   1.000000
      4        -11.237164   1.000000
      5         -5.590709   1.000000
      6         -1.202879   0.000000
      7          2.689868   0.000000
      8          3.050508   0.000000
      9          6.247143   0.000000
     10          6.407544   0.000000
     11          7.417875   0.000000
     12          8.528412   0.000000
     13          9.837547   0.000000
     14         11.768863   0.000000
     15         13.223196   0.000000
     16         15.145665   0.000000
 
  0.3500000E+00  0.2500000E-01  0.0000000E+00  0.7500000E-02
      1        -26.371648   1.000000
      2        -18.336018   1.000000
      3        -11.426805   1.000000
      4        -11.179038   1.000000
      5         -5.820074   1.000000
      6         -1.172818   0.000000
      7          2.781387   0.000000
      8          2.978430   0.000000
      9          6.845090   0.000000
     10          7.034038   0.000000
     11          8.035579   0.000000
     12          9.172089   0.000000
     13         10.387355   0.000000
     14         12.355686   0.000000
     15         13.648533   0.000000
     16         15.006260   0.000000
 
  0.3750000E+00  0.2500000E-01  0.0000000E+00  0.7500000E-02
      1        -25.890038   1.000000
      2        -19.089397   1.000000
      3        -11.565286   1.000000
      4        -10.798224   1.000000
      5         -6.088273   1.000000
      6         -1.127025   0.000000
      7          2.741921   0.000000
      8          3.007760   0.000000
      9          7.459725   0.000000
     10          7.710503   0.000000
     11          8.696938   0.000000
     12          9.857774   0.000000
     13         10.961468   0.000000
     14         12.930071   0.000000
     15         13.975244   0.000000
     16         14.663738   0.000000
 
  0.4000000E+00  0.2500000E-01  0.0000000E+00  0.7500000E-02
      1        -25.401864   1.000000
      2        -19.797707   1.000000
      3        -11.681897   1.000000
      4        -10.420908   1.000000
      5         -6.378550   1.000000
      6         -1.076212   0.000000
      7          2.647733   0.000000
      8          3.078045   0.000000
      9          8.084362   0.000000
     10          8.434770   0.000000
     11          9.402138   0.000000
     12         10.580534   0.000000
     13         11.539682   0.000000
     14         13.254362   0.000000
     15         14.012550   0.000000
     16         14.403439   0.000000
 
  0.4250000E+00  0.2500000E-01  0.0000000E+00  0.7500000E-02
      1        -24.928127   1.000000
      2        -20.437772   1.000000
      3        -11.770762   1.000000
      4        -10.072494   1.000000
      5         -6.665493   1.000000
      6         -1.029832   0.000000
      7          2.562499   0.000000
      8          3.137249   0.000000
      9          8.707328   0.000000
     10          9.203065   0.000000
     11         10.147723   0.000000
     12         11.318673   0.000000
     13         12.023364   0.000000
     14         13.017504   0.000000
     15         13.597621   0.000000
     16         14.524481   0.000000
 
  0.4500000E+00  0.2500000E-01  0.0000000E+00  0.7500000E-02
      1        -24.514804   1.000000
      2        -20.962573   1.000000
      3        -11.830601   1.000000
      4         -9.788533   1.000000
      5         -6.910912   1.000000
      6         -0.995064   0.000000
      7          2.501348   0.000000
      8          3.177677   0.000000
      9          9.296986   0.000000
     10         10.010070   0.000000
     11         10.905955   0.000000
     12         11.778137   0.000000
     13         12.288988   0.000000
     14         12.628369   0.000000
     15         13.294576   0.000000
     16         13.813954   0.000000
 
  0.4750000E+00  0.2500000E-01  0.0000000E+00  0.7500000E-02
      1        -24.252578   1.000000
      2        -21.281481   1.000000
      3        -11.860555   1.000000
      4         -9.621627   1.000000
      5         -7.059245   1.000000
      6         -0.976571   0.000000
      7          2.469771   0.000000
      8          3.198029   0.000000
      9          9.741061   0.000000
     10         10.838648   0.000000
     11         11.290534   0.000000
     12         11.720378   0.000000
     13         11.980901   0.000000
     14         12.755970   0.000000
     15         13.128958   0.000000
     16         13.708720   0.000000
 
  0.5000000E-01  0.5000000E-01  0.0000000E+00  0.3750000E-02
      1        -29.823005   1.000000
      2        -14.305546   1.000000
      3         -9.499430   1.000000
      4         -8.780739   1.000000
      5         -5.530209   1.000000
      6         -0.058912   0.000000
      7          0.173032   0.000000
      8          1.117147   0.000000
      9          2.357760   0.000000
     10          2.505486   0.000000
     11          3.579581   0.000000
     12          4.579410   0.000000
     13          6.362873   0.000000
     14          8.001373   0.000000
     15         10.341013   0.000000
     16         12.772362   0.000000
 
  0.7500000E-01  0.5000000E-01  0.0000000E+00  0.7500000E-02
      1        -29.697205   1.000000
      2        -14.191788   1.000000
      3        -10.045269   1.000000
      4         -8.994541   1.000000
      5         -5.475785   1.000000
      6         -0.109029   0.000000
      7          0.305956   0.000000
      8          1.502801   0.000000
      9          2.520306   0.000000
     10          2.664592   0.000000
     11          3.735435   0.000000
     12          4.741499   0.000000
     13          6.504910   0.000000
     14          8.158676   0.000000
     15         10.462105   0.000000
     16         12.917971   0.000000
 
  0.1000000E+00  0.5000000E-01  0.0000000E+00  0.7500000E-02
      1        -29.535954   1.000000
      2        -14.048263   1.000000
      3        -10.682708   1.000000
      4         -9.244866   1.000000
      5         -5.412498   1.000000
      6         -0.218341   0.000000
      7          0.526013   0.000000
      8          1.904424   0.000000
      9          2.728294   0.000000
     10          2.869981   0.000000
     11          3.936190   0.000000
     12          4.949665   0.000000
     13          6.687295   0.000000
     14          8.360470   0.000000
     15         10.616296   0.000000
     16         13.103150   0.000000
 
  0.1250000E+00  0.5000000E-01  0.0000000E+00  0.7500000E-02
      1        -29.339275   1.000000
      2        -13.878828   1.000000
      3        -11.383256   1.000000
      4         -9.517984   1.000000
      5         -5.345147   1.000000
      6         -0.353253   0.000000
      7          0.791314   0.000000
      8          2.288619   0.000000
      9          2.980763   0.000000
     10          3.123661   0.000000
     11          4.182586   0.000000
     12          5.203816   0.000000
     13          6.910205   0.000000
     14          8.606460   0.000000
     15         10.802931   0.000000
     16         13.325939   0.000000
 
  0.1500000E+00  0.5000000E-01  0.0000000E+00  0.7500000E-02
      1        -29.107645   1.000000
      2        -13.697319   1.000000
      3        -12.115568   1.000000
      4         -9.803235   1.000000
      5         -5.280896   1.000000
      6         -0.497911   0.000000
      7          1.077801   0.000000
      8          2.626527   0.000000
      9          3.277695   0.000000
     10          3.427397   0.000000
     11          4.475494   0.000000
     12          5.503940   0.000000
     13          7.174060   0.000000
     14          8.896333   0.000000
     15         11.021694   0.000000
     16         13.583269   0.000000
 
  0.1750000E+00  0.5000000E-01  0.0000000E+00  0.7500000E-02
      1        -28.841318   1.000000
      2        -13.584518   1.000000
      3        -12.782284   1.000000
      4        -10.090399   1.000000
      5         -5.227918   1.000000
      6         -0.640686   0.000000
      7          1.368844   0.000000