 running   16 mpi-ranks, on    1 nodes
 distrk:  each k-point on   16 cores,    1 groups
 distr:  one band on    4 cores,    4 groups
 vasp.6.4.2 20Jul23 (build Nov 14 2023 12:59:38) complex                        
  
 POSCAR found type information on POSCAR N 
 POSCAR found :  1 types and       2 ions
 Reading from existing POTCAR
 scaLAPACK will be used
 Reading from existing POTCAR
 LDA part: xc-table for Pade appr. of Perdew
 POSCAR, INCAR and KPOINTS ok, starting setup
 FFT: planning ... GRIDC
 FFT: planning ... GRID_SOFT
 FFT: planning ... GRID
 WAVECAR not read
 entering main loop
       N       E                     dE             d eps       ncg     rms          rms(c)
DAV:   1     0.717523216626E+02    0.71752E+02   -0.39985E+03  4984   0.457E+02
DAV:   2    -0.932944423036E+01   -0.81082E+02   -0.66845E+02  7256   0.156E+02
DAV:   3    -0.140105188484E+02   -0.46811E+01   -0.46515E+01  6048   0.423E+01
DAV:   4    -0.140441636853E+02   -0.33645E-01   -0.33642E-01  6584   0.440E+00
DAV:   5    -0.140445386906E+02   -0.37501E-03   -0.37501E-03  6600   0.331E-01
DAV:   6    -0.140445453524E+02   -0.66618E-05   -0.66614E-05  6832   0.281E-02
DAV:   7    -0.140445455447E+02   -0.19225E-06   -0.19226E-06  6696   0.276E-03
DAV:   8    -0.140445455536E+02   -0.88839E-08   -0.88658E-08  5040   0.424E-04
DAV:   9    -0.140445455539E+02   -0.39108E-09   -0.40614E-09  3824   0.111E-04
DAV:  10    -0.140445455540E+02   -0.92768E-10   -0.92196E-10  3416   0.623E-05
DAV:  11    -0.140445455541E+02   -0.50022E-10   -0.36286E-10  3008   0.386E-05
DAV:  12    -0.140445455541E+02   -0.10914E-10   -0.14662E-10  2760   0.237E-05    0.607E+00
DAV:  13    -0.138577152315E+02    0.18683E+00   -0.27021E-02  6152   0.112E+00    0.532E+00
DAV:  14    -0.134167757182E+02    0.44094E+00   -0.13697E+00  6744   0.740E+00    0.709E-01
DAV:  15    -0.134174648422E+02   -0.68912E-03   -0.70636E-02  5328   0.184E+00    0.523E-01
DAV:  16    -0.134202107524E+02   -0.27459E-02   -0.72289E-03  5936   0.635E-01    0.148E-01
DAV:  17    -0.134199009624E+02    0.30979E-03   -0.18029E-03  6504   0.275E-01    0.601E-02
DAV:  18    -0.134199165775E+02   -0.15615E-04   -0.83234E-05  7200   0.619E-02    0.364E-02
DAV:  19    -0.134199224563E+02   -0.58787E-05   -0.40940E-05  6728   0.474E-02    0.991E-03
DAV:  20    -0.134199231258E+02   -0.66954E-06   -0.13359E-05  5384   0.281E-02    0.100E-02
DAV:  21    -0.134199217761E+02    0.13497E-05   -0.48617E-06  5328   0.150E-02    0.948E-04
DAV:  22    -0.134199217830E+02   -0.68753E-08   -0.21074E-07  4912   0.306E-03
   1 F= -.13419922E+02 E0= -.13419922E+02  d E =-.730298E-14
