 vasp.6.4.2 20Jul23 (build Nov 14 2023 12:59:38) complex                        
  
 executed on             LinuxIFC date 2023.12.17  08:38:40
 running   16 mpi-ranks, on    1 nodes
 distrk:  each k-point on   16 cores,    1 groups
 distr:  one band on NCORE=   4 cores,    4 groups


--------------------------------------------------------------------------------------------------------


 INCAR:
   ENCUT = 473.514750
   ALGO = Normal
   NELM = 200
   NELMIN = 6
   NELMDL = -12
   EDIFF = 1.0E-6
   AMIX = 0.1
   BMIX = 0.0001
   NBANDS = 16
   PREC = Accurate
   IVDW = 0
   ISPIN = 1
   ADDGRID = .TRUE.
   LASPH = .TRUE.
   NSW = 0
   EDIFFG = -0.010
   IBRION = 2
   ISIF = -1
   POTIM = 0.5
   STRESSTYPE = 2
   ISMEAR = 0
   SIGMA = 0.01
   LORBIT = 10
   NEDOS = 6001
   NWRITE = 1
   LWAVE = .FALSE.
   LCHARG = .FALSE.
   NCORE = 4
   LPLANE = .TRUE.

 POTCAR:    PAW_PBE N_GW 10Apr2007                
 POTCAR:    PAW_PBE N_GW 10Apr2007                
  local pseudopotential read in
  kinetic energy density of atom read in
  atomic valenz-charges read in
  non local Contribution for L=           0  read in
    real space projection operators read in
  non local Contribution for L=           0  read in
    real space projection operators read in
  non local Contribution for L=           1  read in
    real space projection operators read in
  non local Contribution for L=           1  read in
    real space projection operators read in
    PAW grid and wavefunctions read in
 
   number of l-projection  operators is LMAX  =           4
   number of lm-projection operators is LMMAX =           8
 
  PAW_PBE N_GW 10Apr2007                :
 energy of atom  1       EATOM= -264.5486
 kinetic energy error for atom=    0.0147 (will be added to EATOM!!)
 
 
 POSCAR: pnictogen honeycomb monolayer
  positions in direct lattice
  velocities in cartesian coordinates
 exchange correlation table for  LEXCH =        8
   RHO(1)=    0.500       N(1)  =     2000
   RHO(2)=  100.500       N(2)  =     4000
 


--------------------------------------------------------------------------------------------------------


 ion  position               nearest neighbor table
   1  0.667  0.333  0.478-   2 1.50   2 1.50   2 1.50
   2  0.333  0.667  0.522-   1 1.50   1 1.50   1 1.50
 
  LATTYP: Found a hexagonal cell.
 ALAT       =     2.2944985944
 C/A-ratio  =     6.9732010465
  
  Lattice vectors:
  
 A1 = (   2.2944985944,   0.0000000000,   0.0000000000)
 A2 = (  -1.1472492972,   1.9870940717,   0.0000000000)
 A3 = (   0.0000000000,   0.0000000000,  16.0000000000)


Analysis of symmetry for initial positions (statically):
=====================================================================
 Subroutine PRICEL returns:
 Original cell was already a primitive cell.
 

 Routine SETGRP: Setting up the symmetry group for a 
 hexagonal supercell.


 Subroutine GETGRP returns: Found 12 space group operations
 (whereof 12 operations were pure point group operations)
 out of a pool of 24 trial point group operations.


The static configuration has the point symmetry D_3d.


Analysis of symmetry for dynamics (positions and initial velocities):
=====================================================================
 Subroutine PRICEL returns:
 Original cell was already a primitive cell.
 

 Routine SETGRP: Setting up the symmetry group for a 
 hexagonal supercell.


 Subroutine GETGRP returns: Found 12 space group operations
 (whereof 12 operations were pure point group operations)
 out of a pool of 24 trial point group operations.


The dynamic configuration has the point symmetry D_3d.


 Subroutine INISYM returns: Found 12 space group operations
 (whereof 12 operations are pure point group operations),
 and found     1 'primitive' translations


----------------------------------------------------------------------------------------

                                     Primitive cell                                     

  volume of cell :      72.9502

  direct lattice vectors                    reciprocal lattice vectors
     2.294498594  0.000000000  0.000000000     0.435825065  0.251623719  0.000000000
    -1.147249297  1.987094072  0.000000000     0.000000000  0.503247438  0.000000000
     0.000000000  0.000000000 16.000000000     0.000000000  0.000000000  0.062500000

  length of vectors
     2.294498594  2.294498594 16.000000000     0.503247438  0.503247438  0.062500000

  position of ions in fractional coordinates (direct lattice)
     0.666666667  0.333333333  0.478221854
     0.333333333  0.666666667  0.521778146

  ion indices of the primitive-cell ions
   primitive index   ion index
                 1           1
                 2           2

----------------------------------------------------------------------------------------

 
 
 KPOINTS: kpoints                                 

Automatic generation of k-mesh.
 Grid dimensions read from file:
 generate k-points for:   40   40    1

 Generating k-lattice:

  Cartesian coordinates                     Fractional coordinates (reciprocal lattice)
     0.010895627  0.006290593  0.000000000     0.025000000  0.000000000  0.000000000
     0.000000000  0.012581186  0.000000000     0.000000000  0.025000000  0.000000000
     0.000000000  0.000000000  0.062500000     0.000000000  0.000000000  1.000000000

  Length of vectors
     0.012581186  0.012581186  0.062500000

  Shift w.r.t. Gamma in fractional coordinates (k-lattice)
     0.000000000  0.000000000  0.000000000

 
 Subroutine IBZKPT returns following result:
 ===========================================
 
 Found    154 irreducible k-points:
 
 Following reciprocal coordinates:
            Coordinates               Weight
  0.000000  0.000000  0.000000      1.000000
  0.025000  0.000000  0.000000      6.000000
  0.050000  0.000000  0.000000      6.000000
  0.075000 -0.000000  0.000000      6.000000
  0.100000  0.000000  0.000000      6.000000
  0.125000  0.000000  0.000000      6.000000
  0.150000  0.000000  0.000000      6.000000
  0.175000  0.000000  0.000000      6.000000
  0.200000  0.000000  0.000000      6.000000
  0.225000  0.000000  0.000000      6.000000
  0.250000  0.000000  0.000000      6.000000
  0.275000  0.000000  0.000000      6.000000
  0.300000  0.000000  0.000000      6.000000
  0.325000  0.000000  0.000000      6.000000
  0.350000 -0.000000  0.000000      6.000000
  0.375000 -0.000000  0.000000      6.000000
  0.400000  0.000000  0.000000      6.000000
  0.425000 -0.000000  0.000000      6.000000
  0.450000  0.000000  0.000000      6.000000
  0.475000  0.000000  0.000000      6.000000
  0.500000  0.000000  0.000000      3.000000
  0.025000  0.025000  0.000000      6.000000
  0.050000  0.025000  0.000000     12.000000
  0.075000  0.025000  0.000000     12.000000
  0.100000  0.025000  0.000000     12.000000
  0.125000  0.025000  0.000000     12.000000
  0.150000  0.025000  0.000000     12.000000
  0.175000  0.025000  0.000000     12.000000
  0.200000  0.025000  0.000000     12.000000
  0.225000  0.025000  0.000000     12.000000
  0.250000  0.025000  0.000000     12.000000
  0.275000  0.025000  0.000000     12.000000
  0.300000  0.025000  0.000000     12.000000
  0.325000  0.025000  0.000000     12.000000
  0.350000  0.025000  0.000000     12.000000
  0.375000  0.025000  0.000000     12.000000
  0.400000  0.025000  0.000000     12.000000
  0.425000  0.025000  0.000000     12.000000
  0.450000  0.025000  0.000000     12.000000
  0.475000  0.025000  0.000000     12.000000
  0.050000  0.050000  0.000000      6.000000
  0.075000  0.050000  0.000000     12.000000
  0.100000  0.050000  0.000000     12.000000
  0.125000  0.050000  0.000000     12.000000
  0.150000  0.050000  0.000000     12.000000
  0.175000  0.050000  0.000000     12.000000
  0.200000  0.050000  0.000000     12.000000
  0.225000  0.050000  0.000000     12.000000
  0.250000  0.050000  0.000000     12.000000
  0.275000  0.050000  0.000000     12.000000
  0.300000  0.050000  0.000000     12.000000
  0.325000  0.050000  0.000000     12.000000
  0.350000  0.050000  0.000000     12.000000
  0.375000  0.050000  0.000000     12.000000
  0.400000  0.050000  0.000000     12.000000
  0.425000  0.050000  0.000000     12.000000
  0.450000  0.050000  0.000000     12.000000
  0.475000  0.050000  0.000000      6.000000
  0.075000  0.075000  0.000000      6.000000
  0.100000  0.075000  0.000000     12.000000
  0.125000  0.075000  0.000000     12.000000
  0.150000  0.075000  0.000000     12.000000
  0.175000  0.075000  0.000000     12.000000
  0.200000  0.075000  0.000000     12.000000
  0.225000  0.075000  0.000000     12.000000
  0.250000  0.075000  0.000000     12.000000
  0.275000  0.075000  0.000000     12.000000
  0.300000  0.075000  0.000000     12.000000
  0.325000  0.075000  0.000000     12.000000
  0.350000  0.075000  0.000000     12.000000
  0.375000  0.075000  0.000000     12.000000
  0.400000  0.075000  0.000000     12.000000
  0.425000  0.075000  0.000000     12.000000
  0.450000  0.075000  0.000000     12.000000
  0.100000  0.100000  0.000000      6.000000
  0.125000  0.100000  0.000000     12.000000
  0.150000  0.100000  0.000000     12.000000
  0.175000  0.100000  0.000000     12.000000
  0.200000  0.100000  0.000000     12.000000
  0.225000  0.100000  0.000000     12.000000
  0.250000  0.100000  0.000000     12.000000
  0.275000  0.100000  0.000000     12.000000
  0.300000  0.100000  0.000000     12.000000
  0.325000  0.100000  0.000000     12.000000
  0.350000  0.100000  0.000000     12.000000
  0.375000  0.100000  0.000000     12.000000
  0.400000  0.100000  0.000000     12.000000
  0.425000  0.100000  0.000000     12.000000
  0.450000  0.100000  0.000000      6.000000
  0.125000  0.125000  0.000000      6.000000
  0.150000  0.125000  0.000000     12.000000
  0.175000  0.125000  0.000000     12.000000
  0.200000  0.125000  0.000000     12.000000
  0.225000  0.125000  0.000000     12.000000
  0.250000  0.125000  0.000000     12.000000
  0.275000  0.125000  0.000000     12.000000
  0.300000  0.125000  0.000000     12.000000
  0.325000  0.125000  0.000000     12.000000
  0.350000  0.125000  0.000000     12.000000
  0.375000  0.125000  0.000000     12.000000
  0.400000  0.125000  0.000000     12.000000
  0.425000  0.125000  0.000000     12.000000
  0.150000  0.150000  0.000000      6.000000
  0.175000  0.150000  0.000000     12.000000
  0.200000  0.150000  0.000000     12.000000
  0.225000  0.150000  0.000000     12.000000
  0.250000  0.150000  0.000000     12.000000
  0.275000  0.150000  0.000000     12.000000
  0.300000  0.150000  0.000000     12.000000
  0.325000  0.150000  0.000000     12.000000
  0.350000  0.150000  0.000000     12.000000
  0.375000  0.150000  0.000000     12.000000
  0.400000  0.150000  0.000000     12.000000
  0.425000  0.150000  0.000000      6.000000
  0.175000  0.175000  0.000000      6.000000
  0.200000  0.175000  0.000000     12.000000
  0.225000  0.175000  0.000000     12.000000
  0.250000  0.175000  0.000000     12.000000
  0.275000  0.175000  0.000000     12.000000
  0.300000  0.175000  0.000000     12.000000
  0.325000  0.175000  0.000000     12.000000
  0.350000  0.175000  0.000000     12.000000
  0.375000  0.175000  0.000000     12.000000
  0.400000  0.175000  0.000000     12.000000
  0.200000  0.200000  0.000000      6.000000
  0.225000  0.200000  0.000000     12.000000
  0.250000  0.200000  0.000000     12.000000
  0.275000  0.200000  0.000000     12.000000
  0.300000  0.200000  0.000000     12.000000
  0.325000  0.200000  0.000000     12.000000
  0.350000  0.200000  0.000000     12.000000
  0.375000  0.200000  0.000000     12.000000
  0.400000  0.200000  0.000000      6.000000
  0.225000  0.225000  0.000000      6.000000
  0.250000  0.225000  0.000000     12.000000
  0.275000  0.225000  0.000000     12.000000
  0.300000  0.225000  0.000000     12.000000
  0.325000  0.225000  0.000000     12.000000
  0.350000  0.225000  0.000000     12.000000
  0.375000  0.225000  0.000000     12.000000
  0.250000  0.250000  0.000000      6.000000
  0.275000  0.250000  0.000000     12.000000
  0.300000  0.250000  0.000000     12.000000
  0.325000  0.250000  0.000000     12.000000
  0.350000  0.250000  0.000000     12.000000
  0.375000  0.250000  0.000000      6.000000
  0.275000  0.275000  0.000000      6.000000
  0.300000  0.275000  0.000000     12.000000
  0.325000  0.275000  0.000000     12.000000
  0.350000  0.275000  0.000000     12.000000
  0.300000  0.300000  0.000000      6.000000
  0.325000  0.300000  0.000000     12.000000
  0.350000  0.300000  0.000000      6.000000
  0.325000  0.325000  0.000000      6.000000
 
 Following cartesian coordinates:
            Coordinates               Weight
  0.000000  0.000000  0.000000      1.000000
  0.010896  0.006291  0.000000      6.000000
  0.021791  0.012581  0.000000      6.000000
  0.032687  0.018872  0.000000      6.000000
  0.043583  0.025162  0.000000      6.000000
  0.054478  0.031453  0.000000      6.000000
  0.065374  0.037744  0.000000      6.000000
  0.076269  0.044034  0.000000      6.000000
  0.087165  0.050325  0.000000      6.000000
  0.098061  0.056615  0.000000      6.000000
  0.108956  0.062906  0.000000      6.000000
  0.119852  0.069197  0.000000      6.000000
  0.130748  0.075487  0.000000      6.000000
  0.141643  0.081778  0.000000      6.000000
  0.152539  0.088068  0.000000      6.000000
  0.163434  0.094359  0.000000      6.000000
  0.174330  0.100649  0.000000      6.000000
  0.185226  0.106940  0.000000      6.000000
  0.196121  0.113231  0.000000      6.000000
  0.207017  0.119521  0.000000      6.000000
  0.217913  0.125812  0.000000      3.000000
  0.010896  0.018872  0.000000      6.000000
  0.021791  0.025162  0.000000     12.000000
  0.032687  0.031453  0.000000     12.000000
  0.043583  0.037744  0.000000     12.000000
  0.054478  0.044034  0.000000     12.000000
  0.065374  0.050325  0.000000     12.000000
  0.076269  0.056615  0.000000     12.000000
  0.087165  0.062906  0.000000     12.000000
  0.098061  0.069197  0.000000     12.000000
  0.108956  0.075487  0.000000     12.000000
  0.119852  0.081778  0.000000     12.000000
  0.130748  0.088068  0.000000     12.000000
  0.141643  0.094359  0.000000     12.000000
  0.152539  0.100649  0.000000     12.000000
  0.163434  0.106940  0.000000     12.000000
  0.174330  0.113231  0.000000     12.000000
  0.185226  0.119521  0.000000     12.000000
  0.196121  0.125812  0.000000     12.000000
  0.207017  0.132102  0.000000     12.000000
  0.021791  0.037744  0.000000      6.000000
  0.032687  0.044034  0.000000     12.000000
  0.043583  0.050325  0.000000     12.000000
  0.054478  0.056615  0.000000     12.000000
  0.065374  0.062906  0.000000     12.000000
  0.076269  0.069197  0.000000     12.000000
  0.087165  0.075487  0.000000     12.000000
  0.098061  0.081778  0.000000     12.000000
  0.108956  0.088068  0.000000     12.000000
  0.119852  0.094359  0.000000     12.000000
  0.130748  0.100649  0.000000     12.000000
  0.141643  0.106940  0.000000     12.000000
  0.152539  0.113231  0.000000     12.000000
  0.163434  0.119521  0.000000     12.000000
  0.174330  0.125812  0.000000     12.000000
  0.185226  0.132102  0.000000     12.000000
  0.196121  0.138393  0.000000     12.000000
  0.207017  0.144684  0.000000      6.000000
  0.032687  0.056615  0.000000      6.000000
  0.043583  0.062906  0.000000     12.000000
  0.054478  0.069197  0.000000     12.000000
  0.065374  0.075487  0.000000     12.000000
  0.076269  0.081778  0.000000     12.000000
  0.087165  0.088068  0.000000     12.000000
  0.098061  0.094359  0.000000     12.000000
  0.108956  0.100649  0.000000     12.000000
  0.119852  0.106940  0.000000     12.000000
  0.130748  0.113231  0.000000     12.000000
  0.141643  0.119521  0.000000     12.000000
  0.152539  0.125812  0.000000     12.000000
  0.163434  0.132102  0.000000     12.000000
  0.174330  0.138393  0.000000     12.000000
  0.185226  0.144684  0.000000     12.000000
  0.196121  0.150974  0.000000     12.000000
  0.043583  0.075487  0.000000      6.000000
  0.054478  0.081778  0.000000     12.000000
  0.065374  0.088068  0.000000     12.000000
  0.076269  0.094359  0.000000     12.000000
  0.087165  0.100649  0.000000     12.000000
  0.098061  0.106940  0.000000     12.000000
  0.108956  0.113231  0.000000     12.000000
  0.119852  0.119521  0.000000     12.000000
  0.130748  0.125812  0.000000     12.000000
  0.141643  0.132102  0.000000     12.000000
  0.152539  0.138393  0.000000     12.000000
  0.163434  0.144684  0.000000     12.000000
  0.174330  0.150974  0.000000     12.000000
  0.185226  0.157265  0.000000     12.000000
  0.196121  0.163555  0.000000      6.000000
  0.054478  0.094359  0.000000      6.000000
  0.065374  0.100649  0.000000     12.000000
  0.076269  0.106940  0.000000     12.000000
  0.087165  0.113231  0.000000     12.000000
  0.098061  0.119521  0.000000     12.000000
  0.108956  0.125812  0.000000     12.000000
  0.119852  0.132102  0.000000     12.000000
  0.130748  0.138393  0.000000     12.000000
  0.141643  0.144684  0.000000     12.000000
  0.152539  0.150974  0.000000     12.000000
  0.163434  0.157265  0.000000     12.000000
  0.174330  0.163555  0.000000     12.000000
  0.185226  0.169846  0.000000     12.000000
  0.065374  0.113231  0.000000      6.000000
  0.076269  0.119521  0.000000     12.000000
  0.087165  0.125812  0.000000     12.000000
  0.098061  0.132102  0.000000     12.000000
  0.108956  0.138393  0.000000     12.000000
  0.119852  0.144684  0.000000     12.000000
  0.130748  0.150974  0.000000     12.000000
  0.141643  0.157265  0.000000     12.000000
  0.152539  0.163555  0.000000     12.000000
  0.163434  0.169846  0.000000     12.000000
  0.174330  0.176137  0.000000     12.000000
  0.185226  0.182427  0.000000      6.000000
  0.076269  0.132102  0.000000      6.000000
  0.087165  0.138393  0.000000     12.000000
  0.098061  0.144684  0.000000     12.000000
  0.108956  0.150974  0.000000     12.000000
  0.119852  0.157265  0.000000     12.000000
  0.130748  0.163555  0.000000     12.000000
  0.141643  0.169846  0.000000     12.000000
  0.152539  0.176137  0.000000     12.000000
  0.163434  0.182427  0.000000     12.000000
  0.174330  0.188718  0.000000     12.000000
  0.087165  0.150974  0.000000      6.000000
  0.098061  0.157265  0.000000     12.000000
  0.108956  0.163555  0.000000     12.000000
  0.119852  0.169846  0.000000     12.000000
  0.130748  0.176137  0.000000     12.000000
  0.141643  0.182427  0.000000     12.000000
  0.152539  0.188718  0.000000     12.000000
  0.163434  0.195008  0.000000     12.000000
  0.174330  0.201299  0.000000      6.000000
  0.098061  0.169846  0.000000      6.000000
  0.108956  0.176137  0.000000     12.000000
  0.119852  0.182427  0.000000     12.000000
  0.130748  0.188718  0.000000     12.000000
  0.141643  0.195008  0.000000     12.000000
  0.152539  0.201299  0.000000     12.000000
  0.163434  0.207590  0.000000     12.000000
  0.108956  0.188718  0.000000      6.000000
  0.119852  0.195008  0.000000     12.000000
  0.130748  0.201299  0.000000     12.000000
  0.141643  0.207590  0.000000     12.000000
  0.152539  0.213880  0.000000     12.000000
  0.163434  0.220171  0.000000      6.000000
  0.119852  0.207590  0.000000      6.000000
  0.130748  0.213880  0.000000     12.000000
  0.141643  0.220171  0.000000     12.000000
  0.152539  0.226461  0.000000     12.000000
  0.130748  0.226461  0.000000      6.000000
  0.141643  0.232752  0.000000     12.000000
  0.152539  0.239043  0.000000      6.000000
  0.141643  0.245333  0.000000      6.000000
 


--------------------------------------------------------------------------------------------------------




 Dimension of arrays:
   k-points           NKPTS =    154   k-points in BZ     NKDIM =    154   number of bands    NBANDS=     16
   number of dos      NEDOS =   6001   number of ions     NIONS =      2
   non local maximal  LDIM  =      4   non local SUM 2l+1 LMDIM =      8
   total plane-waves  NPLWV =  30720
   max r-space proj   IRMAX =      1   max aug-charges    IRDMAX=  24124
   dimension x,y,z NGX =    16 NGY =   16 NGZ =  120
   dimension x,y,z NGXF=    32 NGYF=   32 NGZF=  240
   support grid    NGXF=    64 NGYF=   64 NGZF=  480
   ions per type =               2
   NGX,Y,Z   is equivalent  to a cutoff of  11.59, 11.59, 12.47 a.u.
   NGXF,Y,Z  is equivalent  to a cutoff of  23.19, 23.19, 24.94 a.u.

 SYSTEM =  unknown system                          
 POSCAR =  pnictogen honeycomb monolayer           

 Startparameter for this run:
   NWRITE =      1    write-flag & timer
   PREC   = accura    normal or accurate (medium, high low for compatibility)
   ISTART =      0    job   : 0-new  1-cont  2-samecut
   ICHARG =      2    charge: 1-file 2-atom 10-const
   ISPIN  =      1    spin polarized calculation?
   LNONCOLLINEAR =      F non collinear calculations
   LSORBIT =      F    spin-orbit coupling
   INIWAV =      1    electr: 0-lowe 1-rand  2-diag
   LASPH  =      T    aspherical Exc in radial PAW
 Electronic Relaxation 1
   ENCUT  =  473.5 eV  34.80 Ry    5.90 a.u.   4.07  4.07 28.39*2*pi/ulx,y,z
   ENINI  =  473.5     initial cutoff
   ENAUG  =  904.6 eV  augmentation charge cutoff
   NELM   =    200;   NELMIN=  6; NELMDL=-12     # of ELM steps 
   EDIFF  = 0.1E-05   stopping-criterion for ELM
   LREAL  =      F    real-space projection
   NLSPLINE    = F    spline interpolate recip. space projectors
   LCOMPAT=      F    compatible to vasp.4.4
   GGA_COMPAT  = T    GGA compatible to vasp.4.4-vasp.4.6
   LMAXPAW     = -100 max onsite density
   LMAXMIX     =    2 max onsite mixed and CHGCAR
   VOSKOWN=      0    Vosko Wilk Nusair interpolation
   ROPT   =    0.00000
 Ionic relaxation
   EDIFFG = -.1E-01   stopping-criterion for IOM
   NSW    =      0    number of steps for IOM
   NBLOCK =      1;   KBLOCK =      1    inner block; outer block 
   IBRION =     -1    ionic relax: 0-MD 1-quasi-New 2-CG
   NFREE  =      1    steps in history (QN), initial steepest desc. (CG)
   ISIF   =     -1    stress and relaxation
   IWAVPR =     10    prediction:  0-non 1-charg 2-wave 3-comb
   ISYM   =      2    0-nonsym 1-usesym 2-fastsym
   LCORR  =      T    Harris-Foulkes like correction to forces

   POTIM  = 0.5000    time-step for ionic-motion
   TEIN   =    0.0    initial temperature
   TEBEG  =    0.0;   TEEND  =   0.0 temperature during run
   SMASS  =  -3.00    Nose mass-parameter (am)
   estimated Nose-frequenzy (Omega)   =  0.10E-29 period in steps = 0.13E+47 mass=  -0.120E-27a.u.
   SCALEE = 1.0000    scale energy and forces
   NPACO  =    256;   APACO  = 10.0  distance and # of slots for P.C.
   PSTRESS=    0.0 pullay stress

  Mass of Ions in am
   POMASS =  14.00
  Ionic Valenz
   ZVAL   =   5.00
  Atomic Wigner-Seitz radii
   RWIGS  =  -1.00
  virtual crystal weights 
   VCA    =   1.00
   NELECT =      10.0000    total number of electrons
   NUPDOWN=      -1.0000    fix difference up-down

 DOS related values:
   EMIN   =  10.00;   EMAX   =-10.00  energy-range for DOS
   EFERMI =   0.00;   METHOD = LEGACY      
   ISMEAR =     0;   SIGMA  =   0.01  broadening in eV -4-tet -1-fermi 0-gaus

 Electronic relaxation 2 (details)
   IALGO  =     38    algorithm
   LDIAG  =      T    sub-space diagonalisation (order eigenvalues)
   LSUBROT=      F    optimize rotation matrix (better conditioning)
   TURBO    =      0    0=normal 1=particle mesh
   IRESTART =      0    0=no restart 2=restart with 2 vectors
   NREBOOT  =      0    no. of reboots
   NMIN     =      0    reboot dimension
   EREF     =   0.00    reference energy to select bands
   IMIX   =      4    mixing-type and parameters
     AMIX     =   0.10;   BMIX     =  0.00
     AMIX_MAG =   0.40;   BMIX_MAG =  0.00
     AMIN     =   0.10
     WC   =   100.;   INIMIX=   1;  MIXPRE=   1;  MAXMIX= -45

 Intra band minimization:
   WEIMIN = 0.0000     energy-eigenvalue tresh-hold
   EBREAK =  0.16E-07  absolut break condition
   DEPER  =   0.30     relativ break condition  

   TIME   =   0.40     timestep for ELM

  volume/ion in A,a.u.               =      36.48       246.15
  Fermi-wavevector in a.u.,A,eV,Ry     =   0.844111  1.595138  9.694463  0.712523
  Thomas-Fermi vector in A             =   1.959086
 
 Write flags
   LWAVE        =      F    write WAVECAR
   LDOWNSAMPLE  =      F    k-point downsampling of WAVECAR
   LCHARG       =      F    write CHGCAR
   LVTOT        =      F    write LOCPOT, total local potential
   LVHAR        =      F    write LOCPOT, Hartree potential only
   LELF         =      F    write electronic localiz. function (ELF)
   LORBIT       =     10    0 simple, 1 ext, 2 COOP (PROOUT), +10 PAW based schemes


 Dipole corrections
   LMONO  =      F    monopole corrections only (constant potential shift)
   LDIPOL =      F    correct potential (dipole corrections)
   IDIPOL =      0    1-x, 2-y, 3-z, 4-all directions 
   EPSILON=  1.0000000 bulk dielectric constant

 Exchange correlation treatment:
   GGA     =    --    GGA type
   LEXCH   =     8    internal setting for exchange type
   LIBXC   =     F    Libxc                    
   VOSKOWN =     0    Vosko Wilk Nusair interpolation
   LHFCALC =     F    Hartree Fock is set to
   LHFONE  =     F    Hartree Fock one center treatment
   AEXX    =    0.0000 exact exchange contribution

 Linear response parameters
   LEPSILON=     F    determine dielectric tensor
   LRPA    =     F    only Hartree local field effects (RPA)
   LNABLA  =     F    use nabla operator in PAW spheres
   LVEL    =     F    velocity operator in full k-point grid
   CSHIFT  =0.1000    complex shift for real part using Kramers Kronig
   OMEGAMAX=  -1.0    maximum frequency
   DEG_THRESHOLD= 0.2000000E-02 threshold for treating states as degnerate
   RTIME   =   -0.100 relaxation time in fs
  (WPLASMAI=    0.000 imaginary part of plasma frequency in eV, 0.658/RTIME)
   DFIELD  = 0.0000000 0.0000000 0.0000000 field for delta impulse in time
 
  Optional k-point grid parameters
   LKPOINTS_OPT  =     F    use optional k-point grid
   KPOINTS_OPT_MODE=     1    mode for optional k-point grid
 
 Orbital magnetization related:
   ORBITALMAG=     F  switch on orbital magnetization
   LCHIMAG   =     F  perturbation theory with respect to B field
   DQ        =  0.001000  dq finite difference perturbation B field
   LLRAUG    =     F  two centre corrections for induced B field
   LBONE     =     F  B-component reconstruction in AE one-centre
   LVGVCALC  =     T  calculate vGv susceptibility
   LVGVAPPL  =     F  apply vGv susceptibility instead of pGv for G=0

 Random number generation:
   RANDOM_GENERATOR = DEFAULT
   PCG_SEED         = not used


--------------------------------------------------------------------------------------------------------


 Static calculation
 charge density and potential will be updated during run
 non-spin polarized calculation
 Variant of blocked Davidson
 Davidson routine will perform the subspace rotation
 perform sub-space diagonalisation
    after iterative eigenvector-optimisation
 modified Broyden-mixing scheme, WC =      100.0
 initial mixing is a Kerker type mixing with AMIX =  0.1000 and BMIX =      0.0001
 Hartree-type preconditioning will be used
 using additional bands           11
 reciprocal scheme for non local part
 calculate Harris-corrections to forces 
   (improved forces if not selfconsistent)
 use gradient corrections 
 use of overlap-Matrix (Vanderbilt PP)
 Gauss-broadening in eV      SIGMA  =   0.01


--------------------------------------------------------------------------------------------------------


  energy-cutoff  :      473.51
  volume of cell :       72.95
      direct lattice vectors                 reciprocal lattice vectors
     2.294498594  0.000000000  0.000000000     0.435825065  0.251623719  0.000000000
    -1.147249297  1.987094072  0.000000000     0.000000000  0.503247438  0.000000000
     0.000000000  0.000000000 16.000000000     0.000000000  0.000000000  0.062500000

  length of vectors
     2.294498594  2.294498594 16.000000000     0.503247438  0.503247438  0.062500000


 
 k-points in units of 2pi/SCALE and weight: kpoints                                 
   0.00000000  0.00000000  0.00000000       0.001
   0.01089563  0.00629059  0.00000000       0.004
   0.02179125  0.01258119  0.00000000       0.004
   0.03268688  0.01887178  0.00000000       0.004
   0.04358251  0.02516237  0.00000000       0.004
   0.05447813  0.03145296  0.00000000       0.004
   0.06537376  0.03774356  0.00000000       0.004
   0.07626939  0.04403415  0.00000000       0.004
   0.08716501  0.05032474  0.00000000       0.004
   0.09806064  0.05661534  0.00000000       0.004
   0.10895627  0.06290593  0.00000000       0.004
   0.11985189  0.06919652  0.00000000       0.004
   0.13074752  0.07548712  0.00000000       0.004
   0.14164315  0.08177771  0.00000000       0.004
   0.15253877  0.08806830  0.00000000       0.004
   0.16343440  0.09435889  0.00000000       0.004
   0.17433003  0.10064949  0.00000000       0.004
   0.18522565  0.10694008  0.00000000       0.004
   0.19612128  0.11323067  0.00000000       0.004
   0.20701691  0.11952127  0.00000000       0.004
   0.21791253  0.12581186  0.00000000       0.002
   0.01089563  0.01887178  0.00000000       0.004
   0.02179125  0.02516237  0.00000000       0.007
   0.03268688  0.03145296  0.00000000       0.007
   0.04358251  0.03774356  0.00000000       0.007
   0.05447813  0.04403415  0.00000000       0.007
   0.06537376  0.05032474  0.00000000       0.007
   0.07626939  0.05661534  0.00000000       0.007
   0.08716501  0.06290593  0.00000000       0.007
   0.09806064  0.06919652  0.00000000       0.007
   0.10895627  0.07548712  0.00000000       0.007
   0.11985189  0.08177771  0.00000000       0.007
   0.13074752  0.08806830  0.00000000       0.007
   0.14164315  0.09435889  0.00000000       0.007
   0.15253877  0.10064949  0.00000000       0.007
   0.16343440  0.10694008  0.00000000       0.007
   0.17433003  0.11323067  0.00000000       0.007
   0.18522565  0.11952127  0.00000000       0.007
   0.19612128  0.12581186  0.00000000       0.007
   0.20701691  0.13210245  0.00000000       0.007
   0.02179125  0.03774356  0.00000000       0.004
   0.03268688  0.04403415  0.00000000       0.007
   0.04358251  0.05032474  0.00000000       0.007
   0.05447813  0.05661534  0.00000000       0.007
   0.06537376  0.06290593  0.00000000       0.007
   0.07626939  0.06919652  0.00000000       0.007
   0.08716501  0.07548712  0.00000000       0.007
   0.09806064  0.08177771  0.00000000       0.007
   0.10895627  0.08806830  0.00000000       0.007
   0.11985189  0.09435889  0.00000000       0.007
   0.13074752  0.10064949  0.00000000       0.007
   0.14164315  0.10694008  0.00000000       0.007
   0.15253877  0.11323067  0.00000000       0.007
   0.16343440  0.11952127  0.00000000       0.007
   0.17433003  0.12581186  0.00000000       0.007
   0.18522565  0.13210245  0.00000000       0.007
   0.19612128  0.13839305  0.00000000       0.007
   0.20701691  0.14468364  0.00000000       0.004
   0.03268688  0.05661534  0.00000000       0.004
   0.04358251  0.06290593  0.00000000       0.007
   0.05447813  0.06919652  0.00000000       0.007
   0.06537376  0.07548712  0.00000000       0.007
   0.07626939  0.08177771  0.00000000       0.007
   0.08716501  0.08806830  0.00000000       0.007
   0.09806064  0.09435889  0.00000000       0.007
   0.10895627  0.10064949  0.00000000       0.007
   0.11985189  0.10694008  0.00000000       0.007
   0.13074752  0.11323067  0.00000000       0.007
   0.14164315  0.11952127  0.00000000       0.007
   0.15253877  0.12581186  0.00000000       0.007
   0.16343440  0.13210245  0.00000000       0.007
   0.17433003  0.13839305  0.00000000       0.007
   0.18522565  0.14468364  0.00000000       0.007
   0.19612128  0.15097423  0.00000000       0.007
   0.04358251  0.07548712  0.00000000       0.004
   0.05447813  0.08177771  0.00000000       0.007
   0.06537376  0.08806830  0.00000000       0.007
   0.07626939  0.09435889  0.00000000       0.007
   0.08716501  0.10064949  0.00000000       0.007
   0.09806064  0.10694008  0.00000000       0.007
   0.10895627  0.11323067  0.00000000       0.007
   0.11985189  0.11952127  0.00000000       0.007
   0.13074752  0.12581186  0.00000000       0.007
   0.14164315  0.13210245  0.00000000       0.007
   0.15253877  0.13839305  0.00000000       0.007
   0.16343440  0.14468364  0.00000000       0.007
   0.17433003  0.15097423  0.00000000       0.007
   0.18522565  0.15726482  0.00000000       0.007
   0.19612128  0.16355542  0.00000000       0.004
   0.05447813  0.09435889  0.00000000       0.004
   0.06537376  0.10064949  0.00000000       0.007
   0.07626939  0.10694008  0.00000000       0.007
   0.08716501  0.11323067  0.00000000       0.007
   0.09806064  0.11952127  0.00000000       0.007
   0.10895627  0.12581186  0.00000000       0.007
   0.11985189  0.13210245  0.00000000       0.007
   0.13074752  0.13839305  0.00000000       0.007
   0.14164315  0.14468364  0.00000000       0.007
   0.15253877  0.15097423  0.00000000       0.007
   0.16343440  0.15726482  0.00000000       0.007
   0.17433003  0.16355542  0.00000000       0.007
   0.18522565  0.16984601  0.00000000       0.007
   0.06537376  0.11323067  0.00000000       0.004
   0.07626939  0.11952127  0.00000000       0.007
   0.08716501  0.12581186  0.00000000       0.007
   0.09806064  0.13210245  0.00000000       0.007
   0.10895627  0.13839305  0.00000000       0.007
   0.11985189  0.14468364  0.00000000       0.007
   0.13074752  0.15097423  0.00000000       0.007
   0.14164315  0.15726482  0.00000000       0.007
   0.15253877  0.16355542  0.00000000       0.007
   0.16343440  0.16984601  0.00000000       0.007
   0.17433003  0.17613660  0.00000000       0.007
   0.18522565  0.18242720  0.00000000       0.004
   0.07626939  0.13210245  0.00000000       0.004
   0.08716501  0.13839305  0.00000000       0.007
   0.09806064  0.14468364  0.00000000       0.007
   0.10895627  0.15097423  0.00000000       0.007
   0.11985189  0.15726482  0.00000000       0.007
   0.13074752  0.16355542  0.00000000       0.007
   0.14164315  0.16984601  0.00000000       0.007
   0.15253877  0.17613660  0.00000000       0.007
   0.16343440  0.18242720  0.00000000       0.007
   0.17433003  0.18871779  0.00000000       0.007
   0.08716501  0.15097423  0.00000000       0.004
   0.09806064  0.15726482  0.00000000       0.007
   0.10895627  0.16355542  0.00000000       0.007
   0.11985189  0.16984601  0.00000000       0.007
   0.13074752  0.17613660  0.00000000       0.007
   0.14164315  0.18242720  0.00000000       0.007
   0.15253877  0.18871779  0.00000000       0.007
   0.16343440  0.19500838  0.00000000       0.007
   0.17433003  0.20129898  0.00000000       0.004
   0.09806064  0.16984601  0.00000000       0.004
   0.10895627  0.17613660  0.00000000       0.007
   0.11985189  0.18242720  0.00000000       0.007
   0.13074752  0.18871779  0.00000000       0.007
   0.14164315  0.19500838  0.00000000       0.007
   0.15253877  0.20129898  0.00000000       0.007
   0.16343440  0.20758957  0.00000000       0.007
   0.10895627  0.18871779  0.00000000       0.004
   0.11985189  0.19500838  0.00000000       0.007
   0.13074752  0.20129898  0.00000000       0.007
   0.14164315  0.20758957  0.00000000       0.007
   0.15253877  0.21388016  0.00000000       0.007
   0.16343440  0.22017075  0.00000000       0.004
   0.11985189  0.20758957  0.00000000       0.004
   0.13074752  0.21388016  0.00000000       0.007
   0.14164315  0.22017075  0.00000000       0.007
   0.15253877  0.22646135  0.00000000       0.007
   0.13074752  0.22646135  0.00000000       0.004
   0.14164315  0.23275194  0.00000000       0.007
   0.15253877  0.23904253  0.00000000       0.004
   0.14164315  0.24533313  0.00000000       0.004
 
 k-points in reciprocal lattice and weights: kpoints                                 
   0.00000000  0.00000000  0.00000000       0.001
   0.02500000  0.00000000  0.00000000       0.004
   0.05000000  0.00000000  0.00000000       0.004
   0.07500000 -0.00000000  0.00000000       0.004
   0.10000000  0.00000000  0.00000000       0.004
   0.12500000  0.00000000  0.00000000       0.004
   0.15000000  0.00000000  0.00000000       0.004
   0.17500000  0.00000000  0.00000000       0.004
   0.20000000  0.00000000  0.00000000       0.004
   0.22500000  0.00000000  0.00000000       0.004
   0.25000000  0.00000000  0.00000000       0.004
   0.27500000  0.00000000  0.00000000       0.004
   0.30000000  0.00000000  0.00000000       0.004
   0.32500000  0.00000000  0.00000000       0.004
   0.35000000 -0.00000000  0.00000000       0.004
   0.37500000 -0.00000000  0.00000000       0.004
   0.40000000  0.00000000  0.00000000       0.004
   0.42500000 -0.00000000  0.00000000       0.004
   0.45000000  0.00000000  0.00000000       0.004
   0.47500000  0.00000000  0.00000000       0.004
   0.50000000  0.00000000  0.00000000       0.002
   0.02500000  0.02500000  0.00000000       0.004
   0.05000000  0.02500000  0.00000000       0.007
   0.07500000  0.02500000  0.00000000       0.007
   0.10000000  0.02500000  0.00000000       0.007
   0.12500000  0.02500000  0.00000000       0.007
   0.15000000  0.02500000  0.00000000       0.007
   0.17500000  0.02500000  0.00000000       0.007
   0.20000000  0.02500000  0.00000000       0.007
   0.22500000  0.02500000  0.00000000       0.007
   0.25000000  0.02500000  0.00000000       0.007
   0.27500000  0.02500000  0.00000000       0.007
   0.30000000  0.02500000  0.00000000       0.007
   0.32500000  0.02500000  0.00000000       0.007
   0.35000000  0.02500000  0.00000000       0.007
   0.37500000  0.02500000  0.00000000       0.007
   0.40000000  0.02500000  0.00000000       0.007
   0.42500000  0.02500000  0.00000000       0.007
   0.45000000  0.02500000  0.00000000       0.007
   0.47500000  0.02500000  0.00000000       0.007
   0.05000000  0.05000000  0.00000000       0.004
   0.07500000  0.05000000  0.00000000       0.007
   0.10000000  0.05000000  0.00000000       0.007
   0.12500000  0.05000000  0.00000000       0.007
   0.15000000  0.05000000  0.00000000       0.007
   0.17500000  0.05000000  0.00000000       0.007
   0.20000000  0.05000000  0.00000000       0.007
   0.22500000  0.05000000  0.00000000       0.007
   0.25000000  0.05000000  0.00000000       0.007
   0.27500000  0.05000000  0.00000000       0.007
   0.30000000  0.05000000  0.00000000       0.007
   0.32500000  0.05000000  0.00000000       0.007
   0.35000000  0.05000000  0.00000000       0.007
   0.37500000  0.05000000  0.00000000       0.007
   0.40000000  0.05000000  0.00000000       0.007
   0.42500000  0.05000000  0.00000000       0.007
   0.45000000  0.05000000  0.00000000       0.007
   0.47500000  0.05000000  0.00000000       0.004
   0.07500000  0.07500000  0.00000000       0.004
   0.10000000  0.07500000  0.00000000       0.007
   0.12500000  0.07500000  0.00000000       0.007
   0.15000000  0.07500000  0.00000000       0.007
   0.17500000  0.07500000  0.00000000       0.007
   0.20000000  0.07500000  0.00000000       0.007
   0.22500000  0.07500000  0.00000000       0.007
   0.25000000  0.07500000  0.00000000       0.007
   0.27500000  0.07500000  0.00000000       0.007
   0.30000000  0.07500000  0.00000000       0.007
   0.32500000  0.07500000  0.00000000       0.007
   0.35000000  0.07500000  0.00000000       0.007
   0.37500000  0.07500000  0.00000000       0.007
   0.40000000  0.07500000  0.00000000       0.007
   0.42500000  0.07500000  0.00000000       0.007
   0.45000000  0.07500000  0.00000000       0.007
   0.10000000  0.10000000  0.00000000       0.004
   0.12500000  0.10000000  0.00000000       0.007
   0.15000000  0.10000000  0.00000000       0.007
   0.17500000  0.10000000  0.00000000       0.007
   0.20000000  0.10000000  0.00000000       0.007
   0.22500000  0.10000000  0.00000000       0.007
   0.25000000  0.10000000  0.00000000       0.007
   0.27500000  0.10000000  0.00000000       0.007
   0.30000000  0.10000000  0.00000000       0.007
   0.32500000  0.10000000  0.00000000       0.007
   0.35000000  0.10000000  0.00000000       0.007
   0.37500000  0.10000000  0.00000000       0.007
   0.40000000  0.10000000  0.00000000       0.007
   0.42500000  0.10000000  0.00000000       0.007
   0.45000000  0.10000000  0.00000000       0.004
   0.12500000  0.12500000  0.00000000       0.004
   0.15000000  0.12500000  0.00000000       0.007
   0.17500000  0.12500000  0.00000000       0.007
   0.20000000  0.12500000  0.00000000       0.007
   0.22500000  0.12500000  0.00000000       0.007
   0.25000000  0.12500000  0.00000000       0.007
   0.27500000  0.12500000  0.00000000       0.007
   0.30000000  0.12500000  0.00000000       0.007
   0.32500000  0.12500000  0.00000000       0.007
   0.35000000  0.12500000  0.00000000       0.007
   0.37500000  0.12500000  0.00000000       0.007
   0.40000000  0.12500000  0.00000000       0.007
   0.42500000  0.12500000  0.00000000       0.007
   0.15000000  0.15000000  0.00000000       0.004
   0.17500000  0.15000000  0.00000000       0.007
   0.20000000  0.15000000  0.00000000       0.007
   0.22500000  0.15000000  0.00000000       0.007
   0.25000000  0.15000000  0.00000000       0.007
   0.27500000  0.15000000  0.00000000       0.007
   0.30000000  0.15000000  0.00000000       0.007
   0.32500000  0.15000000  0.00000000       0.007
   0.35000000  0.15000000  0.00000000       0.007
   0.37500000  0.15000000  0.00000000       0.007
   0.40000000  0.15000000  0.00000000       0.007
   0.42500000  0.15000000  0.00000000       0.004
   0.17500000  0.17500000  0.00000000       0.004
   0.20000000  0.17500000  0.00000000       0.007
   0.22500000  0.17500000  0.00000000       0.007
   0.25000000  0.17500000  0.00000000       0.007
   0.27500000  0.17500000  0.00000000       0.007
   0.30000000  0.17500000  0.00000000       0.007
   0.32500000  0.17500000  0.00000000       0.007
   0.35000000  0.17500000  0.00000000       0.007
   0.37500000  0.17500000  0.00000000       0.007
   0.40000000  0.17500000  0.00000000       0.007
   0.20000000  0.20000000  0.00000000       0.004
   0.22500000  0.20000000  0.00000000       0.007
   0.25000000  0.20000000  0.00000000       0.007
   0.27500000  0.20000000  0.00000000       0.007
   0.30000000  0.20000000  0.00000000       0.007
   0.32500000  0.20000000  0.00000000       0.007
   0.35000000  0.20000000  0.00000000       0.007
   0.37500000  0.20000000  0.00000000       0.007
   0.40000000  0.20000000  0.00000000       0.004
   0.22500000  0.22500000  0.00000000       0.004
   0.25000000  0.22500000  0.00000000       0.007
   0.27500000  0.22500000  0.00000000       0.007
   0.30000000  0.22500000  0.00000000       0.007
   0.32500000  0.22500000  0.00000000       0.007
   0.35000000  0.22500000  0.00000000       0.007
   0.37500000  0.22500000  0.00000000       0.007
   0.25000000  0.25000000  0.00000000       0.004
   0.27500000  0.25000000  0.00000000       0.007
   0.30000000  0.25000000  0.00000000       0.007
   0.32500000  0.25000000  0.00000000       0.007
   0.35000000  0.25000000  0.00000000       0.007
   0.37500000  0.25000000  0.00000000       0.004
   0.27500000  0.27500000  0.00000000       0.004
   0.30000000  0.27500000  0.00000000       0.007
   0.32500000  0.27500000  0.00000000       0.007
   0.35000000  0.27500000  0.00000000       0.007
   0.30000000  0.30000000  0.00000000       0.004
   0.32500000  0.30000000  0.00000000       0.007
   0.35000000  0.30000000  0.00000000       0.004
   0.32500000  0.32500000  0.00000000       0.004
 
 position of ions in fractional coordinates (direct lattice) 
   0.66666667  0.33333333  0.47822185
   0.33333333  0.66666667  0.52177815
 
 position of ions in cartesian coordinates  (Angst):
   1.14724930  0.66236469  7.65154966
   0.00000000  1.32472938  8.34845034
 


--------------------------------------------------------------------------------------------------------


 k-point   1 :   0.0000 0.0000 0.0000  plane waves:    1647
 k-point   2 :   0.0250 0.0000 0.0000  plane waves:    1653
 k-point   3 :   0.0500 0.0000 0.0000  plane waves:    1653
 k-point   4 :   0.0750-0.0000 0.0000  plane waves:    1647
 k-point   5 :   0.1000 0.0000 0.0000  plane waves:    1657
 k-point   6 :   0.1250 0.0000 0.0000  plane waves:    1669
 k-point   7 :   0.1500 0.0000 0.0000  plane waves:    1675
 k-point   8 :   0.1750 0.0000 0.0000  plane waves:    1683
 k-point   9 :   0.2000 0.0000 0.0000  plane waves:    1699
 k-point  10 :   0.2250 0.0000 0.0000  plane waves:    1695
 k-point  11 :   0.2500 0.0000 0.0000  plane waves:    1701
 k-point  12 :   0.2750 0.0000 0.0000  plane waves:    1705
 k-point  13 :   0.3000 0.0000 0.0000  plane waves:    1707
 k-point  14 :   0.3250 0.0000 0.0000  plane waves:    1715
 k-point  15 :   0.3500-0.0000 0.0000  plane waves:    1713
 k-point  16 :   0.3750-0.0000 0.0000  plane waves:    1711
 k-point  17 :   0.4000 0.0000 0.0000  plane waves:    1731
 k-point  18 :   0.4250-0.0000 0.0000  plane waves:    1729
 k-point  19 :   0.4500 0.0000 0.0000  plane waves:    1719
 k-point  20 :   0.4750 0.0000 0.0000  plane waves:    1726
 k-point  21 :   0.5000 0.0000 0.0000  plane waves:    1736
 k-point  22 :   0.0250 0.0250 0.0000  plane waves:    1655
 k-point  23 :   0.0500 0.0250 0.0000  plane waves:    1654
 k-point  24 :   0.0750 0.0250 0.0000  plane waves:    1652
 k-point  25 :   0.1000 0.0250 0.0000  plane waves:    1662
 k-point  26 :   0.1250 0.0250 0.0000  plane waves:    1668
 k-point  27 :   0.1500 0.0250 0.0000  plane waves:    1681
 k-point  28 :   0.1750 0.0250 0.0000  plane waves:    1685
 k-point  29 :   0.2000 0.0250 0.0000  plane waves:    1691
 k-point  30 :   0.2250 0.0250 0.0000  plane waves:    1697
 k-point  31 :   0.2500 0.0250 0.0000  plane waves:    1698
 k-point  32 :   0.2750 0.0250 0.0000  plane waves:    1704
 k-point  33 :   0.3000 0.0250 0.0000  plane waves:    1712
 k-point  34 :   0.3250 0.0250 0.0000  plane waves:    1718
 k-point  35 :   0.3500 0.0250 0.0000  plane waves:    1720
 k-point  36 :   0.3750 0.0250 0.0000  plane waves:    1716
 k-point  37 :   0.4000 0.0250 0.0000  plane waves:    1718
 k-point  38 :   0.4250 0.0250 0.0000  plane waves:    1716
 k-point  39 :   0.4500 0.0250 0.0000  plane waves:    1718
 k-point  40 :   0.4750 0.0250 0.0000  plane waves:    1724
 k-point  41 :   0.0500 0.0500 0.0000  plane waves:    1646
 k-point  42 :   0.0750 0.0500 0.0000  plane waves:    1652
 k-point  43 :   0.1000 0.0500 0.0000  plane waves:    1668
 k-point  44 :   0.1250 0.0500 0.0000  plane waves:    1669
 k-point  45 :   0.1500 0.0500 0.0000  plane waves:    1688
 k-point  46 :   0.1750 0.0500 0.0000  plane waves:    1688
 k-point  47 :   0.2000 0.0500 0.0000  plane waves:    1694
 k-point  48 :   0.2250 0.0500 0.0000  plane waves:    1700
 k-point  49 :   0.2500 0.0500 0.0000  plane waves:    1702
 k-point  50 :   0.2750 0.0500 0.0000  plane waves:    1708
 k-point  51 :   0.3000 0.0500 0.0000  plane waves:    1710
 k-point  52 :   0.3250 0.0500 0.0000  plane waves:    1718
 k-point  53 :   0.3500 0.0500 0.0000  plane waves:    1715
 k-point  54 :   0.3750 0.0500 0.0000  plane waves:    1713
 k-point  55 :   0.4000 0.0500 0.0000  plane waves:    1715
 k-point  56 :   0.4250 0.0500 0.0000  plane waves:    1721
 k-point  57 :   0.4500 0.0500 0.0000  plane waves:    1714
 k-point  58 :   0.4750 0.0500 0.0000  plane waves:    1720
 k-point  59 :   0.0750 0.0750 0.0000  plane waves:    1660
 k-point  60 :   0.1000 0.0750 0.0000  plane waves:    1678
 k-point  61 :   0.1250 0.0750 0.0000  plane waves:    1682
 k-point  62 :   0.1500 0.0750 0.0000  plane waves:    1688
 k-point  63 :   0.1750 0.0750 0.0000  plane waves:    1695
 k-point  64 :   0.2000 0.0750 0.0000  plane waves:    1695
 k-point  65 :   0.2250 0.0750 0.0000  plane waves:    1701
 k-point  66 :   0.2500 0.0750 0.0000  plane waves:    1705
 k-point  67 :   0.2750 0.0750 0.0000  plane waves:    1709
 k-point  68 :   0.3000 0.0750 0.0000  plane waves:    1721
 k-point  69 :   0.3250 0.0750 0.0000  plane waves:    1719
 k-point  70 :   0.3500 0.0750 0.0000  plane waves:    1717
 k-point  71 :   0.3750 0.0750 0.0000  plane waves:    1713
 k-point  72 :   0.4000 0.0750 0.0000  plane waves:    1723
 k-point  73 :   0.4250 0.0750 0.0000  plane waves:    1717
 k-point  74 :   0.4500 0.0750 0.0000  plane waves:    1722
 k-point  75 :   0.1000 0.1000 0.0000  plane waves:    1688
 k-point  76 :   0.1250 0.1000 0.0000  plane waves:    1686
 k-point  77 :   0.1500 0.1000 0.0000  plane waves:    1696
 k-point  78 :   0.1750 0.1000 0.0000  plane waves:    1703
 k-point  79 :   0.2000 0.1000 0.0000  plane waves:    1705
 k-point  80 :   0.2250 0.1000 0.0000  plane waves:    1703
 k-point  81 :   0.2500 0.1000 0.0000  plane waves:    1707
 k-point  82 :   0.2750 0.1000 0.0000  plane waves:    1713
 k-point  83 :   0.3000 0.1000 0.0000  plane waves:    1717
 k-point  84 :   0.3250 0.1000 0.0000  plane waves:    1719
 k-point  85 :   0.3500 0.1000 0.0000  plane waves:    1717
 k-point  86 :   0.3750 0.1000 0.0000  plane waves:    1711
 k-point  87 :   0.4000 0.1000 0.0000  plane waves:    1719
 k-point  88 :   0.4250 0.1000 0.0000  plane waves:    1719
 k-point  89 :   0.4500 0.1000 0.0000  plane waves:    1728
 k-point  90 :   0.1250 0.1250 0.0000  plane waves:    1698
 k-point  91 :   0.1500 0.1250 0.0000  plane waves:    1702
 k-point  92 :   0.1750 0.1250 0.0000  plane waves:    1702
 k-point  93 :   0.2000 0.1250 0.0000  plane waves:    1711
 k-point  94 :   0.2250 0.1250 0.0000  plane waves:    1715
 k-point  95 :   0.2500 0.1250 0.0000  plane waves:    1713
 k-point  96 :   0.2750 0.1250 0.0000  plane waves:    1719
 k-point  97 :   0.3000 0.1250 0.0000  plane waves:    1721
 k-point  98 :   0.3250 0.1250 0.0000  plane waves:    1721
 k-point  99 :   0.3500 0.1250 0.0000  plane waves:    1721
 k-point 100 :   0.3750 0.1250 0.0000  plane waves:    1719
 k-point 101 :   0.4000 0.1250 0.0000  plane waves:    1719
 k-point 102 :   0.4250 0.1250 0.0000  plane waves:    1726
 k-point 103 :   0.1500 0.1500 0.0000  plane waves:    1702
 k-point 104 :   0.1750 0.1500 0.0000  plane waves:    1700
 k-point 105 :   0.2000 0.1500 0.0000  plane waves:    1707
 k-point 106 :   0.2250 0.1500 0.0000  plane waves:    1715
 k-point 107 :   0.2500 0.1500 0.0000  plane waves:    1711
 k-point 108 :   0.2750 0.1500 0.0000  plane waves:    1717
 k-point 109 :   0.3000 0.1500 0.0000  plane waves:    1717
 k-point 110 :   0.3250 0.1500 0.0000  plane waves:    1725
 k-point 111 :   0.3500 0.1500 0.0000  plane waves:    1721
 k-point 112 :   0.3750 0.1500 0.0000  plane waves:    1715
 k-point 113 :   0.4000 0.1500 0.0000  plane waves:    1717
 k-point 114 :   0.4250 0.1500 0.0000  plane waves:    1724
 k-point 115 :   0.1750 0.1750 0.0000  plane waves:    1700
 k-point 116 :   0.2000 0.1750 0.0000  plane waves:    1710
 k-point 117 :   0.2250 0.1750 0.0000  plane waves:    1717
 k-point 118 :   0.2500 0.1750 0.0000  plane waves:    1717
 k-point 119 :   0.2750 0.1750 0.0000  plane waves:    1723
 k-point 120 :   0.3000 0.1750 0.0000  plane waves:    1727
 k-point 121 :   0.3250 0.1750 0.0000  plane waves:    1721
 k-point 122 :   0.3500 0.1750 0.0000  plane waves:    1723
 k-point 123 :   0.3750 0.1750 0.0000  plane waves:    1719
 k-point 124 :   0.4000 0.1750 0.0000  plane waves:    1714
 k-point 125 :   0.2000 0.2000 0.0000  plane waves:    1710
 k-point 126 :   0.2250 0.2000 0.0000  plane waves:    1715
 k-point 127 :   0.2500 0.2000 0.0000  plane waves:    1715
 k-point 128 :   0.2750 0.2000 0.0000  plane waves:    1719
 k-point 129 :   0.3000 0.2000 0.0000  plane waves:    1723
 k-point 130 :   0.3250 0.2000 0.0000  plane waves:    1723
 k-point 131 :   0.3500 0.2000 0.0000  plane waves:    1725
 k-point 132 :   0.3750 0.2000 0.0000  plane waves:    1717
 k-point 133 :   0.4000 0.2000 0.0000  plane waves:    1712
 k-point 134 :   0.2250 0.2250 0.0000  plane waves:    1714
 k-point 135 :   0.2500 0.2250 0.0000  plane waves:    1717
 k-point 136 :   0.2750 0.2250 0.0000  plane waves:    1719
 k-point 137 :   0.3000 0.2250 0.0000  plane waves:    1719
 k-point 138 :   0.3250 0.2250 0.0000  plane waves:    1721
 k-point 139 :   0.3500 0.2250 0.0000  plane waves:    1721
 k-point 140 :   0.3750 0.2250 0.0000  plane waves:    1718
 k-point 141 :   0.2500 0.2500 0.0000  plane waves:    1712
 k-point 142 :   0.2750 0.2500 0.0000  plane waves:    1719
 k-point 143 :   0.3000 0.2500 0.0000  plane waves:    1719
 k-point 144 :   0.3250 0.2500 0.0000  plane waves:    1717
 k-point 145 :   0.3500 0.2500 0.0000  plane waves:    1719
 k-point 146 :   0.3750 0.2500 0.0000  plane waves:    1716
 k-point 147 :   0.2750 0.2750 0.0000  plane waves:    1716
 k-point 148 :   0.3000 0.2750 0.0000  plane waves:    1713
 k-point 149 :   0.3250 0.2750 0.0000  plane waves:    1707
 k-point 150 :   0.3500 0.2750 0.0000  plane waves:    1712
 k-point 151 :   0.3000 0.3000 0.0000  plane waves:    1710
 k-point 152 :   0.3250 0.3000 0.0000  plane waves:    1709
 k-point 153 :   0.3500 0.3000 0.0000  plane waves:    1710
 k-point 154 :   0.3250 0.3250 0.0000  plane waves:    1698

 maximum and minimum number of plane-waves per node :       449      404

 maximum number of plane-waves:      1736
 maximum index in each direction: 
   IXMAX=    4   IYMAX=    4   IZMAX=   28
   IXMIN=   -4   IYMIN=   -4   IZMIN=  -28


 parallel 3D FFT for wavefunctions:
    minimum data exchange during FFTs selected (reduces bandwidth)
 parallel 3D FFT for charge:
    minimum data exchange during FFTs selected (reduces bandwidth)


 total amount of memory used by VASP MPI-rank0    42209. kBytes
=======================================================================

   base      :      30000. kBytes
   nonl-proj :       4311. kBytes
   fftplans  :       2470. kBytes
   grid      :       1049. kBytes
   one-center:          3. kBytes
   wavefun   :       4376. kBytes
 
     INWAV:  cpu time      0.0001: real time      0.0007
 Broyden mixing: mesh for mixing (old mesh)
   NGX =  9   NGY =  9   NGZ = 57
  (NGX  = 32   NGY  = 32   NGZ  =240)
  gives a total of   4617 points

 initial charge density was supplied:
 charge density of overlapping atoms calculated
 number of electron      10.0000000 magnetization 
 keeping initial charge density in first step


--------------------------------------------------------------------------------------------------------


 Maximum index for augmentation-charges         1474 (set IRDMAX)


--------------------------------------------------------------------------------------------------------


 First call to EWALD:  gamma=   0.424
 Maximum number of real-space cells 5x 5x 1
 Maximum number of reciprocal cells 2x 2x 9

    FEWALD:  cpu time      0.0016: real time      0.0016


--------------------------------------- Ionic step        1  -------------------------------------------




--------------------------------------- Iteration      1(   1)  ---------------------------------------


    POTLOK:  cpu time      0.0120: real time      0.0122
    SETDIJ:  cpu time      0.1095: real time      0.1096
     EDDAV:  cpu time      1.4134: real time      1.4158
       DOS:  cpu time      0.0036: real time      0.0036
    --------------------------------------------
      LOOP:  cpu time      1.5385: real time      1.5412

 eigenvalue-minimisations  :  4984
 total energy-change (2. order) : 0.7175232E+02  (-0.3998526E+03)
 number of electron      10.0000000 magnetization 
 augmentation part       10.0000000 magnetization 

 Free energy of the ion-electron system (eV)
  ---------------------------------------------------
  alpha Z        PSCENC =         5.96913924
  Ewald energy   TEWEN  =      1610.65328944
  -Hartree energ DENC   =     -2055.25523171
  -exchange      EXHF   =         0.00000000
  -V(xc)+E(xc)   XCENC  =        40.24275613
  PAW double counting   =       409.78799272     -412.24743296
  entropy T*S    EENTRO =        -0.00008485
  eigenvalues    EBANDS =       -56.46589681
  atomic energy  EATOM  =       529.06779047
  Solvation  Ediel_sol  =         0.00000000
  ---------------------------------------------------
  free energy    TOTEN  =        71.75232166 eV

  energy without entropy =       71.75240651  energy(sigma->0) =       71.75236409


--------------------------------------------------------------------------------------------------------




--------------------------------------- Iteration      1(   2)  ---------------------------------------


     EDDAV:  cpu time      1.7213: real time      1.7235
       DOS:  cpu time      0.0026: real time      0.0026
    --------------------------------------------
      LOOP:  cpu time      1.7239: real time      1.7261

 eigenvalue-minimisations  :  7256
 total energy-change (2. order) :-0.8108177E+02  (-0.6684538E+02)
 number of electron      10.0000000 magnetization 
 augmentation part       10.0000000 magnetization 

 Free energy of the ion-electron system (eV)
  ---------------------------------------------------
  alpha Z        PSCENC =         5.96913924
  Ewald energy   TEWEN  =      1610.65328944
  -Hartree energ DENC   =     -2055.25523171
  -exchange      EXHF   =         0.00000000
  -V(xc)+E(xc)   XCENC  =        40.24275613
  PAW double counting   =       409.78799272     -412.24743296
  entropy T*S    EENTRO =        -0.00000000
  eigenvalues    EBANDS =      -137.54774755
  atomic energy  EATOM  =       529.06779047
  Solvation  Ediel_sol  =         0.00000000
  ---------------------------------------------------
  free energy    TOTEN  =        -9.32944423 eV

  energy without entropy =       -9.32944423  energy(sigma->0) =       -9.32944423


--------------------------------------------------------------------------------------------------------




--------------------------------------- Iteration      1(   3)  ---------------------------------------


     EDDAV:  cpu time      1.4434: real time      1.4445
       DOS:  cpu time      0.0027: real time      0.0027
    --------------------------------------------
      LOOP:  cpu time      1.4461: real time      1.4472

 eigenvalue-minimisations  :  6048
 total energy-change (2. order) :-0.4681075E+01  (-0.4651481E+01)
 number of electron      10.0000000 magnetization 
 augmentation part       10.0000000 magnetization 

 Free energy of the ion-electron system (eV)
  ---------------------------------------------------
  alpha Z        PSCENC =         5.96913924
  Ewald energy   TEWEN  =      1610.65328944
  -Hartree energ DENC   =     -2055.25523171
  -exchange      EXHF   =         0.00000000
  -V(xc)+E(xc)   XCENC  =        40.24275613
  PAW double counting   =       409.78799272     -412.24743296
  entropy T*S    EENTRO =        -0.00000000
  eigenvalues    EBANDS =      -142.22882217
  atomic energy  EATOM  =       529.06779047
  Solvation  Ediel_sol  =         0.00000000
  ---------------------------------------------------
  free energy    TOTEN  =       -14.01051885 eV

  energy without entropy =      -14.01051885  energy(sigma->0) =      -14.01051885


--------------------------------------------------------------------------------------------------------




--------------------------------------- Iteration      1(   4)  ---------------------------------------


     EDDAV:  cpu time      1.5518: real time      1.5531
       DOS:  cpu time      0.0027: real time      0.0027
    --------------------------------------------
      LOOP:  cpu time      1.5544: real time      1.5557

 eigenvalue-minimisations  :  6584
 total energy-change (2. order) :-0.3364484E-01  (-0.3364194E-01)
 number of electron      10.0000000 magnetization 
 augmentation part       10.0000000 magnetization 

 Free energy of the ion-electron system (eV)
  ---------------------------------------------------
  alpha Z        PSCENC =         5.96913924
  Ewald energy   TEWEN  =      1610.65328944
  -Hartree energ DENC   =     -2055.25523171
  -exchange      EXHF   =         0.00000000
  -V(xc)+E(xc)   XCENC  =        40.24275613
  PAW double counting   =       409.78799272     -412.24743296
  entropy T*S    EENTRO =        -0.00000000
  eigenvalues    EBANDS =      -142.26246701
  atomic energy  EATOM  =       529.06779047
  Solvation  Ediel_sol  =         0.00000000
  ---------------------------------------------------
  free energy    TOTEN  =       -14.04416369 eV

  energy without entropy =      -14.04416369  energy(sigma->0) =      -14.04416369


--------------------------------------------------------------------------------------------------------




--------------------------------------- Iteration      1(   5)  ---------------------------------------


     EDDAV:  cpu time      1.5101: real time      1.5113
       DOS:  cpu time      0.0025: real time      0.0025
    --------------------------------------------
      LOOP:  cpu time      1.5126: real time      1.5138

 eigenvalue-minimisations  :  6600
 total energy-change (2. order) :-0.3750053E-03  (-0.3750050E-03)
 number of electron      10.0000000 magnetization 
 augmentation part       10.0000000 magnetization 

 Free energy of the ion-electron system (eV)
  ---------------------------------------------------
  alpha Z        PSCENC =         5.96913924
  Ewald energy   TEWEN  =      1610.65328944
  -Hartree energ DENC   =     -2055.25523171
  -exchange      EXHF   =         0.00000000
  -V(xc)+E(xc)   XCENC  =        40.24275613
  PAW double counting   =       409.78799272     -412.24743296
  entropy T*S    EENTRO =        -0.00000000
  eigenvalues    EBANDS =      -142.26284201
  atomic energy  EATOM  =       529.06779047
  Solvation  Ediel_sol  =         0.00000000
  ---------------------------------------------------
  free energy    TOTEN  =       -14.04453869 eV

  energy without entropy =      -14.04453869  energy(sigma->0) =      -14.04453869


--------------------------------------------------------------------------------------------------------




--------------------------------------- Iteration      1(   6)  ---------------------------------------


     EDDAV:  cpu time      1.6039: real time      1.6052
       DOS:  cpu time      0.0028: real time      0.0028
    --------------------------------------------
      LOOP:  cpu time      1.6067: real time      1.6080

 eigenvalue-minimisations  :  6832
 total energy-change (2. order) :-0.6661843E-05  (-0.6661402E-05)
 number of electron      10.0000000 magnetization 
 augmentation part       10.0000000 magnetization 

 Free energy of the ion-electron system (eV)
  ---------------------------------------------------
  alpha Z        PSCENC =         5.96913924
  Ewald energy   TEWEN  =      1610.65328944
  -Hartree energ DENC   =     -2055.25523171
  -exchange      EXHF   =         0.00000000
  -V(xc)+E(xc)   XCENC  =        40.24275613
  PAW double counting   =       409.78799272     -412.24743296
  entropy T*S    EENTRO =        -0.00000000
  eigenvalues    EBANDS =      -142.26284867
  atomic energy  EATOM  =       529.06779047
  Solvation  Ediel_sol  =         0.00000000
  ---------------------------------------------------
  free energy    TOTEN  =       -14.04454535 eV

  energy without entropy =      -14.04454535  energy(sigma->0) =      -14.04454535


--------------------------------------------------------------------------------------------------------




--------------------------------------- Iteration      1(   7)  ---------------------------------------


     EDDAV:  cpu time      1.6406: real time      1.6418
       DOS:  cpu time      0.0028: real time      0.0028
    --------------------------------------------
      LOOP:  cpu time      1.6434: real time      1.6447

 eigenvalue-minimisations  :  6696
 total energy-change (2. order) :-0.1922526E-06  (-0.1922568E-06)
 number of electron      10.0000000 magnetization 
 augmentation part       10.0000000 magnetization 

 Free energy of the ion-electron system (eV)
  ---------------------------------------------------
  alpha Z        PSCENC =         5.96913924
  Ewald energy   TEWEN  =      1610.65328944
  -Hartree energ DENC   =     -2055.25523171
  -exchange      EXHF   =         0.00000000
  -V(xc)+E(xc)   XCENC  =        40.24275613
  PAW double counting   =       409.78799272     -412.24743296
  entropy T*S    EENTRO =        -0.00000000
  eigenvalues    EBANDS =      -142.26284887
  atomic energy  EATOM  =       529.06779047
  Solvation  Ediel_sol  =         0.00000000
  ---------------------------------------------------
  free energy    TOTEN  =       -14.04454554 eV

  energy without entropy =      -14.04454554  energy(sigma->0) =      -14.04454554


--------------------------------------------------------------------------------------------------------




--------------------------------------- Iteration      1(   8)  ---------------------------------------


     EDDAV:  cpu time      1.0811: real time      1.0818
       DOS:  cpu time      0.0017: real time      0.0017
    --------------------------------------------
      LOOP:  cpu time      1.0828: real time      1.0835

 eigenvalue-minimisations  :  5040
 total energy-change (2. order) :-0.8883944E-08  (-0.8865788E-08)
 number of electron      10.0000000 magnetization 
 augmentation part       10.0000000 magnetization 

 Free energy of the ion-electron system (eV)
  ---------------------------------------------------
  alpha Z        PSCENC =         5.96913924
  Ewald energy   TEWEN  =      1610.65328944
  -Hartree energ DENC   =     -2055.25523171
  -exchange      EXHF   =         0.00000000
  -V(xc)+E(xc)   XCENC  =        40.24275613
  PAW double counting   =       409.78799272     -412.24743296
  entropy T*S    EENTRO =        -0.00000000
  eigenvalues    EBANDS =      -142.26284887
  atomic energy  EATOM  =       529.06779047
  Solvation  Ediel_sol  =         0.00000000
  ---------------------------------------------------
  free energy    TOTEN  =       -14.04454555 eV

  energy without entropy =      -14.04454555  energy(sigma->0) =      -14.04454555


--------------------------------------------------------------------------------------------------------




--------------------------------------- Iteration      1(   9)  ---------------------------------------


     EDDAV:  cpu time      0.7023: real time      0.7028
       DOS:  cpu time      0.0017: real time      0.0017
    --------------------------------------------
      LOOP:  cpu time      0.7040: real time      0.7045

 eigenvalue-minimisations  :  3824
 total energy-change (2. order) :-0.3910827E-09  (-0.4061405E-09)
 number of electron      10.0000000 magnetization 
 augmentation part       10.0000000 magnetization 

 Free energy of the ion-electron system (eV)
  ---------------------------------------------------
  alpha Z        PSCENC =         5.96913924
  Ewald energy   TEWEN  =      1610.65328944
  -Hartree energ DENC   =     -2055.25523171
  -exchange      EXHF   =         0.00000000
  -V(xc)+E(xc)   XCENC  =        40.24275613
  PAW double counting   =       409.78799272     -412.24743296
  entropy T*S    EENTRO =        -0.00000000
  eigenvalues    EBANDS =      -142.26284888
  atomic energy  EATOM  =       529.06779047
  Solvation  Ediel_sol  =         0.00000000
  ---------------------------------------------------
  free energy    TOTEN  =       -14.04454555 eV

  energy without entropy =      -14.04454555  energy(sigma->0) =      -14.04454555


--------------------------------------------------------------------------------------------------------




--------------------------------------- Iteration      1(  10)  ---------------------------------------


     EDDAV:  cpu time      0.6589: real time      0.6595
       DOS:  cpu time      0.0017: real time      0.0018
    --------------------------------------------
      LOOP:  cpu time      0.6607: real time      0.6612

 eigenvalue-minimisations  :  3416
 total energy-change (2. order) :-0.9276846E-10  (-0.9219588E-10)
 number of electron      10.0000000 magnetization 
 augmentation part       10.0000000 magnetization 

 Free energy of the ion-electron system (eV)
  ---------------------------------------------------
  alpha Z        PSCENC =         5.96913924
  Ewald energy   TEWEN  =      1610.65328944
  -Hartree energ DENC   =     -2055.25523171
  -exchange      EXHF   =         0.00000000
  -V(xc)+E(xc)   XCENC  =        40.24275613
  PAW double counting   =       409.78799272     -412.24743296
  entropy T*S    EENTRO =        -0.00000000
  eigenvalues    EBANDS =      -142.26284888
  atomic energy  EATOM  =       529.06779047
  Solvation  Ediel_sol  =         0.00000000
  ---------------------------------------------------
  free energy    TOTEN  =       -14.04454555 eV

  energy without entropy =      -14.04454555  energy(sigma->0) =      -14.04454555


--------------------------------------------------------------------------------------------------------




--------------------------------------- Iteration      1(  11)  ---------------------------------------


     EDDAV:  cpu time      0.6041: real time      0.6045
       DOS:  cpu time      0.0017: real time      0.0017
    --------------------------------------------
      LOOP:  cpu time      0.6058: real time      0.6062

 eigenvalue-minimisations  :  3008
 total energy-change (2. order) :-0.5002221E-10  (-0.3628648E-10)
 number of electron      10.0000000 magnetization 
 augmentation part       10.0000000 magnetization 

 Free energy of the ion-electron system (eV)
  ---------------------------------------------------
  alpha Z        PSCENC =         5.96913924
  Ewald energy   TEWEN  =      1610.65328944
  -Hartree energ DENC   =     -2055.25523171
  -exchange      EXHF   =         0.00000000
  -V(xc)+E(xc)   XCENC  =        40.24275613
  PAW double counting   =       409.78799272     -412.24743296
  entropy T*S    EENTRO =        -0.00000000
  eigenvalues    EBANDS =      -142.26284888
  atomic energy  EATOM  =       529.06779047
  Solvation  Ediel_sol  =         0.00000000
  ---------------------------------------------------
  free energy    TOTEN  =       -14.04454555 eV

  energy without entropy =      -14.04454555  energy(sigma->0) =      -14.04454555


--------------------------------------------------------------------------------------------------------




--------------------------------------- Iteration      1(  12)  ---------------------------------------


     EDDAV:  cpu time      0.5746: real time      0.5752
       DOS:  cpu time      0.0017: real time      0.0017
    CHARGE:  cpu time      0.0413: real time      0.0413
    MIXING:  cpu time      0.0005: real time      0.0005
    --------------------------------------------
      LOOP:  cpu time      0.6181: real time      0.6187

 eigenvalue-minimisations  :  2760
 total energy-change (2. order) :-0.1091394E-10  (-0.1466246E-10)
 number of electron      10.0000000 magnetization 
 augmentation part        0.2246690 magnetization 

 Broyden mixing:
  rms(total) = 0.60710E+00    rms(broyden)= 0.60287E+00
  rms(prec ) = 0.64464E+00
  weight for this iteration     100.00

 Free energy of the ion-electron system (eV)
  ---------------------------------------------------
  alpha Z        PSCENC =         5.96913924
  Ewald energy   TEWEN  =      1610.65328944
  -Hartree energ DENC   =     -2055.25523171
  -exchange      EXHF   =         0.00000000
  -V(xc)+E(xc)   XCENC  =        40.24275613
  PAW double counting   =       409.78799272     -412.24743296
  entropy T*S    EENTRO =        -0.00000000
  eigenvalues    EBANDS =      -142.26284888
  atomic energy  EATOM  =       529.06779047
  Solvation  Ediel_sol  =         0.00000000
  ---------------------------------------------------
  free energy    TOTEN  =       -14.04454555 eV

  energy without entropy =      -14.04454555  energy(sigma->0) =      -14.04454555


--------------------------------------------------------------------------------------------------------




--------------------------------------- Iteration      1(  13)  ---------------------------------------


    POTLOK:  cpu time      0.0078: real time      0.0078
    SETDIJ:  cpu time      0.0744: real time      0.0744
     EDDAV:  cpu time      0.9500: real time      0.9507
       DOS:  cpu time      0.0017: real time      0.0017
    CHARGE:  cpu time      0.0396: real time      0.0397
    MIXING:  cpu time      0.0005: real time      0.0005
    --------------------------------------------
      LOOP:  cpu time      1.0741: real time      1.0748

 eigenvalue-minimisations  :  6152
 total energy-change (2. order) : 0.1868303E+00  (-0.2702086E-02)
 number of electron      10.0000000 magnetization 
 augmentation part        0.2211083 magnetization 

 Broyden mixing:
  rms(total) = 0.53179E+00    rms(broyden)= 0.53158E+00
  rms(prec ) = 0.56784E+00
  weight for this iteration     100.00

 eigenvalues of (default mixing * dielectric matrix)
  average eigenvalue GAMMA=   8.3016
  8.3016

 Free energy of the ion-electron system (eV)
  ---------------------------------------------------
  alpha Z        PSCENC =         5.96913924
  Ewald energy   TEWEN  =      1610.65328944
  -Hartree energ DENC   =     -2054.60512216
  -exchange      EXHF   =         0.00000000
  -V(xc)+E(xc)   XCENC  =        40.32582645
  PAW double counting   =       421.82636291     -424.28051476
  entropy T*S    EENTRO =        -0.00000000
  eigenvalues    EBANDS =      -142.81448683
  atomic energy  EATOM  =       529.06779047
  Solvation  Ediel_sol  =         0.00000000
  ---------------------------------------------------
  free energy    TOTEN  =       -13.85771523 eV

  energy without entropy =      -13.85771523  energy(sigma->0) =      -13.85771523


--------------------------------------------------------------------------------------------------------




--------------------------------------- Iteration      1(  14)  ---------------------------------------


    POTLOK:  cpu time      0.0079: real time      0.0079
    SETDIJ:  cpu time      0.0743: real time      0.0743
     EDDAV:  cpu time      1.0324: real time      1.0331
       DOS:  cpu time      0.0017: real time      0.0017
    CHARGE:  cpu time      0.0399: real time      0.0399
    MIXING:  cpu time      0.0005: real time      0.0005
    --------------------------------------------
      LOOP:  cpu time      1.1567: real time      1.1575

 eigenvalue-minimisations  :  6744
 total energy-change (2. order) : 0.4409395E+00  (-0.1369750E+00)
 number of electron      10.0000000 magnetization 
 augmentation part        0.1952573 magnetization 

 Broyden mixing:
  rms(total) = 0.70886E-01    rms(broyden)= 0.70789E-01
  rms(prec ) = 0.74709E-01
  weight for this iteration     100.00

 eigenvalues of (default mixing * dielectric matrix)
  average eigenvalue GAMMA=   5.8386
  4.0537  7.6236

 Free energy of the ion-electron system (eV)
  ---------------------------------------------------
  alpha Z        PSCENC =         5.96913924
  Ewald energy   TEWEN  =      1610.65328944
  -Hartree energ DENC   =     -2050.94594213
  -exchange      EXHF   =         0.00000000
  -V(xc)+E(xc)   XCENC  =        40.86140758
  PAW double counting   =       516.73009948     -519.11851949
  entropy T*S    EENTRO =        -0.00000000
  eigenvalues    EBANDS =      -146.63404031
  atomic energy  EATOM  =       529.06779047
  Solvation  Ediel_sol  =         0.00000000
  ---------------------------------------------------
  free energy    TOTEN  =       -13.41677572 eV

  energy without entropy =      -13.41677572  energy(sigma->0) =      -13.41677572


--------------------------------------------------------------------------------------------------------




--------------------------------------- Iteration      1(  15)  ---------------------------------------


    POTLOK:  cpu time      0.0079: real time      0.0079
    SETDIJ:  cpu time      0.0743: real time      0.0744
     EDDAV:  cpu time      0.8481: real time      0.8487
       DOS:  cpu time      0.0017: real time      0.0017
    CHARGE:  cpu time      0.0402: real time      0.0403
    MIXING:  cpu time      0.0007: real time      0.0007
    --------------------------------------------
      LOOP:  cpu time      0.9729: real time      0.9736

 eigenvalue-minimisations  :  5328
 total energy-change (2. order) :-0.6891240E-03  (-0.7063644E-02)
 number of electron      10.0000000 magnetization 
 augmentation part        0.1995266 magnetization 

 Broyden mixing:
  rms(total) = 0.52286E-01    rms(broyden)= 0.52283E-01
  rms(prec ) = 0.54388E-01
  weight for this iteration     100.00

 eigenvalues of (default mixing * dielectric matrix)
  average eigenvalue GAMMA=   6.1319
  0.9369  8.7294  8.7294

 Free energy of the ion-electron system (eV)
  ---------------------------------------------------
  alpha Z        PSCENC =         5.96913924
  Ewald energy   TEWEN  =      1610.65328944
  -Hartree energ DENC   =     -2051.37215426
  -exchange      EXHF   =         0.00000000
  -V(xc)+E(xc)   XCENC  =        40.83150902
  PAW double counting   =       517.41708146     -519.81807974
  entropy T*S    EENTRO =        -0.00000000
  eigenvalues    EBANDS =      -146.16604047
  atomic energy  EATOM  =       529.06779047
  Solvation  Ediel_sol  =         0.00000000
  ---------------------------------------------------
  free energy    TOTEN  =       -13.41746484 eV

  energy without entropy =      -13.41746484  energy(sigma->0) =      -13.41746484


--------------------------------------------------------------------------------------------------------




--------------------------------------- Iteration      1(  16)  ---------------------------------------


    POTLOK:  cpu time      0.0115: real time      0.0115
    SETDIJ:  cpu time      0.0754: real time      0.0754
     EDDAV:  cpu time      0.9309: real time      0.9316
       DOS:  cpu time      0.0017: real time      0.0017
    CHARGE:  cpu time      0.0397: real time      0.0398
    MIXING:  cpu time      0.0005: real time      0.0005
    --------------------------------------------
      LOOP:  cpu time      1.0597: real time      1.0605

 eigenvalue-minimisations  :  5936
 total energy-change (2. order) :-0.2745910E-02  (-0.7228875E-03)
 number of electron      10.0000000 magnetization 
 augmentation part        0.2018523 magnetization 

 Broyden mixing:
  rms(total) = 0.14781E-01    rms(broyden)= 0.14780E-01
  rms(prec ) = 0.16201E-01
  weight for this iteration     100.00

 eigenvalues of (default mixing * dielectric matrix)
  average eigenvalue GAMMA=   4.8692
  9.8324  7.3957  0.9761  1.2725

 Free energy of the ion-electron system (eV)
  ---------------------------------------------------
  alpha Z        PSCENC =         5.96913924
  Ewald energy   TEWEN  =      1610.65328944
  -Hartree energ DENC   =     -2051.83379625
  -exchange      EXHF   =         0.00000000
  -V(xc)+E(xc)   XCENC  =        40.82202614
  PAW double counting   =       527.00531753     -529.42233275
  entropy T*S    EENTRO =        -0.00000000
  eigenvalues    EBANDS =      -145.68164456
  atomic energy  EATOM  =       529.06779047
  Solvation  Ediel_sol  =         0.00000000
  ---------------------------------------------------
  free energy    TOTEN  =       -13.42021075 eV

  energy without entropy =      -13.42021075  energy(sigma->0) =      -13.42021075


--------------------------------------------------------------------------------------------------------




--------------------------------------- Iteration      1(  17)  ---------------------------------------


    POTLOK:  cpu time      0.0082: real time      0.0083
    SETDIJ:  cpu time      0.0744: real time      0.0744
[...]
     10       9.0765      0.00000
     11      10.1179      0.00000
     12      11.2859      0.00000
     13      12.2359      0.00000
     14      13.8332      0.00000
     15      14.3100      0.00000
     16      15.1218      0.00000

 k-point   130 :       0.3250    0.2000    0.0000
  band No.  band energies     occupation 
      1     -24.3774      2.00000
      2     -19.9700      2.00000
      3     -14.6918      2.00000
      4      -9.5516      2.00000
      5      -6.5407      2.00000
      6       0.9326      0.00000
      7       2.3152      0.00000
      8       3.7171      0.00000
      9       9.4634      0.00000
     10       9.8179      0.00000
     11      10.8598      0.00000
     12      11.9993      0.00000
     13      12.8634      0.00000
     14      13.5601      0.00000
     15      14.4652      0.00000
     16      15.1065      0.00000

 k-point   131 :       0.3500    0.2000    0.0000
  band No.  band energies     occupation 
      1     -23.9187      2.00000
      2     -20.5117      2.00000
      3     -14.8215      2.00000
      4      -9.2202      2.00000
      5      -6.8022      2.00000
      6       0.8744      0.00000
      7       2.3561      0.00000
      8       3.8419      0.00000
      9      10.0879      0.00000
     10      10.5883      0.00000
     11      11.6394      0.00000
     12      12.5831      0.00000
     13      13.2205      0.00000
     14      13.4101      0.00000
     15      14.2772      0.00000
     16      14.8866      0.00000

 k-point   132 :       0.3750    0.2000    0.0000
  band No.  band energies     occupation 
      1     -23.5484      2.00000
      2     -20.9327      2.00000
      3     -14.8985      2.00000
      4      -8.9691      2.00000
      5      -7.0111      2.00000
      6       0.8372      0.00000
      7       2.3753      0.00000
      8       3.9279      0.00000
      9      10.6598      0.00000
     10      11.3526      0.00000
     11      12.2916      0.00000
     12      12.5424      0.00000
     13      13.1486      0.00000
     14      13.6912      0.00000
     15      14.3509      0.00000
     16      14.4690      0.00000

 k-point   133 :       0.4000    0.2000    0.0000
  band No.  band energies     occupation 
      1     -23.3936      2.00000
      2     -21.1050      2.00000
      3     -14.9238      2.00000
      4      -8.8702      2.00000
      5      -7.0958      2.00000
      6       0.8244      0.00000
      7       2.3809      0.00000
      8       3.9584      0.00000
      9      10.9679      0.00000
     10      11.7657      0.00000
     11      12.3780      0.00000
     12      12.4116      0.00000
     13      13.3722      0.00000
     14      13.4570      0.00000
     15      14.2706      0.00000
     16      14.5099      0.00000

 k-point   134 :       0.2250    0.2250    0.0000
  band No.  band energies     occupation 
      1     -25.8248      2.00000
      2     -18.0631      2.00000
      3     -14.0560      2.00000
      4     -10.6885      2.00000
      5      -5.7771      2.00000
      6       1.2496      0.00000
      7       1.8703      0.00000
      8       3.3988      0.00000
      9       7.5892      0.00000
     10       7.6834      0.00000
     11       8.7417      0.00000
     12       9.9113      0.00000
     13      11.0080      0.00000
     14      13.0593      0.00000
     15      13.8746      0.00000
     16      15.2147      0.00000

 k-point   135 :       0.2500    0.2250    0.0000
  band No.  band energies     occupation 
      1     -25.3710      2.00000
      2     -18.6128      2.00000
      3     -14.4388      2.00000
      4     -10.3183      2.00000
      5      -5.9785      2.00000
      6       1.1175      0.00000
      7       2.1971      0.00000
      8       3.4626      0.00000
      9       8.1740      0.00000
     10       8.3209      0.00000
     11       9.3737      0.00000
     12      10.5475      0.00000
     13      11.5747      0.00000
     14      13.5981      0.00000
     15      14.0219      0.00000
     16      15.3408      0.00000

 k-point   136 :       0.2750    0.2250    0.0000
  band No.  band energies     occupation 
      1     -24.8979      2.00000
      2     -19.1761      2.00000
      3     -14.7569      2.00000
      4      -9.9421      2.00000
      5      -6.2094      2.00000
      6       0.9722      0.00000
      7       2.4718      0.00000
      8       3.5620      0.00000
      9       8.7855      0.00000
     10       9.0002      0.00000
     11      10.0515      0.00000
     12      11.2216      0.00000
     13      12.1782      0.00000
     14      13.9173      0.00000
     15      14.1526      0.00000
     16      15.4173      0.00000

 k-point   137 :       0.3000    0.2250    0.0000
  band No.  band energies     occupation 
      1     -24.4146      2.00000
      2     -19.7400      2.00000
      3     -15.0082      2.00000
      4      -9.5700      2.00000
      5      -6.4632      2.00000
      6       0.8375      0.00000
      7       2.6706      0.00000
      8       3.6935      0.00000
      9       9.4140      0.00000
     10       9.7183      0.00000
     11      10.7741      0.00000
     12      11.9236      0.00000
     13      12.8057      0.00000
     14      13.7306      0.00000
     15      14.3958      0.00000
     16      15.3793      0.00000

 k-point   138 :       0.3250    0.2250    0.0000
  band No.  band energies     occupation 
      1     -23.9379      2.00000
      2     -20.2831      2.00000
      3     -15.1942      2.00000
      4      -9.2176      2.00000
      5      -6.7257      2.00000
      6       0.7265      0.00000
      7       2.7971      0.00000
      8       3.8351      0.00000
      9      10.0454      0.00000
     10      10.4685      0.00000
     11      11.5390      0.00000
     12      12.5999      0.00000
     13      13.3709      0.00000
     14      13.4544      0.00000
     15      14.3698      0.00000
     16      15.1392      0.00000

 k-point   139 :       0.3500    0.2250    0.0000
  band No.  band energies     occupation 
      1     -23.5064      2.00000
      2     -20.7614      2.00000
      3     -15.3166      2.00000
      4      -8.9156      2.00000
      5      -6.9674      2.00000
      6       0.6480      0.00000
      7       2.8685      0.00000
      8       3.9533      0.00000
      9      10.6545      0.00000
     10      11.2294      0.00000
     11      12.3296      0.00000
     12      12.7348      0.00000
     13      13.4944      0.00000
     14      13.6759      0.00000
     15      14.5135      0.00000
     16      14.6626      0.00000

 k-point   140 :       0.3750    0.2250    0.0000
  band No.  band energies     occupation 
      1     -23.2156      2.00000
      2     -21.0765      2.00000
      3     -15.3773      2.00000
      4      -8.7250      2.00000
      5      -7.1276      2.00000
      6       0.6073      0.00000
      7       2.9004      0.00000
      8       4.0200      0.00000
      9      11.1554      0.00000
     10      11.8455      0.00000
     11      12.4704      0.00000
     12      12.9131      0.00000
     13      13.3186      0.00000
     14      14.0716      0.00000
     15      14.1788      0.00000
     16      14.6830      0.00000

 k-point   141 :       0.2500    0.2500    0.0000
  band No.  band energies     occupation 
      1     -24.9104      2.00000
      2     -19.1030      2.00000
      3     -14.8460      2.00000
      4      -9.9502      2.00000
      5      -6.1876      2.00000
      6       0.9569      0.00000
      7       2.5611      0.00000
      8       3.5518      0.00000
      9       8.7698      0.00000
     10       8.9746      0.00000
     11      10.0292      0.00000
     12      11.2001      0.00000
     13      12.1576      0.00000
     14      13.9575      0.00000
     15      14.0781      0.00000
     16      15.6735      0.00000

 k-point   142 :       0.2750    0.2500    0.0000
  band No.  band energies     occupation 
      1     -24.4341      2.00000
      2     -19.6086      2.00000
      3     -15.1832      2.00000
      4      -9.5801      2.00000
      5      -6.4218      2.00000
      6       0.7848      0.00000
      7       2.8821      0.00000
      8       3.6616      0.00000
      9       9.3885      0.00000
     10       9.6678      0.00000
     11      10.7307      0.00000
     12      11.8845      0.00000
     13      12.7672      0.00000
     14      13.7895      0.00000
     15      14.3594      0.00000
     16      15.6181      0.00000

 k-point   143 :       0.3000    0.2500    0.0000
  band No.  band energies     occupation 
      1     -23.9525      2.00000
      2     -20.1180      2.00000
      3     -15.4448      2.00000
      4      -9.2185      2.00000
      5      -6.6736      2.00000
      6       0.6319      0.00000
      7       3.1185      0.00000
      8       3.7955      0.00000
      9      10.0179      0.00000
     10      10.3950      0.00000
     11      11.4765      0.00000
     12      12.5751      0.00000
     13      13.3086      0.00000
     14      13.6275      0.00000
     15      14.3352      0.00000
     16      15.6173      0.00000

 k-point   144 :       0.3250    0.2500    0.0000
  band No.  band energies     occupation 
      1     -23.4878      2.00000
      2     -20.6059      2.00000
      3     -15.6302      2.00000
      4      -8.8847      2.00000
      5      -6.9270      2.00000
      6       0.5136      0.00000
      7       3.2626      0.00000
      8       3.9360      0.00000
      9      10.6390      0.00000
     10      11.1415      0.00000
     11      12.2622      0.00000
     12      12.9807      0.00000
     13      13.3960      0.00000
     14      13.9075      0.00000
     15      14.3867      0.00000
     16      15.0783      0.00000

 k-point   145 :       0.3500    0.2500    0.0000
  band No.  band energies     occupation 
      1     -23.0982      2.00000
      2     -21.0111      2.00000
      3     -15.7409      2.00000
      4      -8.6204      2.00000
      5      -7.1423      2.00000
      6       0.4392      0.00000
      7       3.3354      0.00000
      8       4.0429      0.00000
      9      11.2127      0.00000
     10      11.8370      0.00000
     11      12.7074      0.00000
     12      13.0645      0.00000
     13      13.4880      0.00000
     14      14.0781      0.00000
     15      14.6168      0.00000
     16      14.9899      0.00000

 k-point   146 :       0.3750    0.2500    0.0000
  band No.  band energies     occupation 
      1     -22.9262      2.00000
      2     -21.1886      2.00000
      3     -15.7776      2.00000
      4      -8.5104      2.00000
      5      -7.2356      2.00000
      6       0.4138      0.00000
      7       3.3573      0.00000
      8       4.0825      0.00000
      9      11.5459      0.00000
     10      12.0625      0.00000
     11      12.8145      0.00000
     12      12.9791      0.00000
     13      13.9543      0.00000
     14      14.0346      0.00000
     15      14.0798      0.00000
     16      15.1185      0.00000

 k-point   147 :       0.2750    0.2750    0.0000
  band No.  band energies     occupation 
      1     -23.9578      2.00000
      2     -20.0571      2.00000
      3     -15.5339      2.00000
      4      -9.2191      2.00000
      5      -6.6552      2.00000
      6       0.5994      0.00000
      7       3.2480      0.00000
      8       3.7638      0.00000
      9      10.0084      0.00000
     10      10.3702      0.00000
     11      11.4554      0.00000
     12      12.5635      0.00000
     13      13.2796      0.00000
     14      13.6806      0.00000
     15      14.3339      0.00000
     16      15.8774      0.00000

 k-point   148 :       0.3000    0.2750    0.0000
  band No.  band energies     occupation 
      1     -23.4814      2.00000
      2     -20.5125      2.00000
      3     -15.8005      2.00000
      4      -8.8708      2.00000
      5      -6.9030      2.00000
      6       0.4437      0.00000
      7       3.5155      0.00000
      8       3.8822      0.00000
      9      10.6287      0.00000
     10      11.0962      0.00000
     11      12.2231      0.00000
     12      13.1356      0.00000
     13      13.2644      0.00000
     14      14.0892      0.00000
     15      14.2747      0.00000
     16      15.6600      0.00000

 k-point   149 :       0.3250    0.2750    0.0000
  band No.  band energies     occupation 
      1     -23.0341      2.00000
      2     -20.9463      2.00000
      3     -15.9790      2.00000
      4      -8.5582      2.00000
      5      -7.1462      2.00000
      6       0.3328      0.00000
      7       3.6578      0.00000
      8       4.0155      0.00000
      9      11.2219      0.00000
     10      11.8069      0.00000
     11      12.9203      0.00000
     12      13.0255      0.00000
     13      13.5067      0.00000
     14      14.3410      0.00000
     15      14.7056      0.00000
     16      15.1597      0.00000

 k-point   150 :       0.3500    0.2750    0.0000
  band No.  band energies     occupation 
      1     -22.7067      2.00000
      2     -21.2678      2.00000
      3     -16.0687      2.00000
      4      -8.3419      2.00000
      5      -7.3272      2.00000
      6       0.2753      0.00000
      7       3.7119      0.00000
      8       4.1050      0.00000
      9      11.7208      0.00000
     10      12.2351      0.00000
     11      12.8081      0.00000
     12      13.3789      0.00000
     13      13.8665      0.00000
     14      14.1786      0.00000
     15      14.7772      0.00000
     16      15.2499      0.00000

 k-point   151 :       0.3000    0.3000    0.0000
  band No.  band energies     occupation 
      1     -23.0143      2.00000
      2     -20.9194      2.00000
      3     -16.0629      2.00000
      4      -8.5377      2.00000
      5      -7.1467      2.00000
      6       0.2964      0.00000
      7       3.8159      0.00000
      8       3.9593      0.00000
      9      11.2219      0.00000
     10      11.7941      0.00000
     11      12.9891      0.00000
     12      13.0119      0.00000
     13      13.4856      0.00000
     14      14.4769      0.00000
     15      14.6968      0.00000
     16      15.4931      0.00000

 k-point   152 :       0.3250    0.3000    0.0000
  band No.  band energies     occupation 
      1     -22.5862      2.00000
      2     -21.3097      2.00000
      3     -16.2233      2.00000
      4      -8.2443      2.00000
      5      -7.3843      2.00000
      6       0.2031      0.00000
      7       3.9456      0.00000
      8       4.0704      0.00000
      9      11.7570      0.00000
     10      12.3619      0.00000
     11      12.7793      0.00000
     12      13.5365      0.00000
     13      13.8237      0.00000
     14      14.6420      0.00000
     15      15.1317      0.00000
     16      15.3161      0.00000

 k-point   153 :       0.3500    0.3000    0.0000
  band No.  band energies     occupation 
      1     -22.3568      2.00000
      2     -21.5263      2.00000
      3     -16.2771      2.00000
      4      -8.0943      2.00000
      5      -7.5154      2.00000
      6       0.1712      0.00000
      7       3.9679      0.00000
      8       4.1309      0.00000
      9      12.0857      0.00000
     10      12.3858      0.00000
     11      12.7964      0.00000
     12      13.6831      0.00000
     13      14.1725      0.00000
     14      14.7024      0.00000
     15      14.7521      0.00000
     16      15.4167      0.00000

 k-point   154 :       0.3250    0.3250    0.0000
  band No.  band energies     occupation 
      1     -22.1636      2.00000
      2     -21.6867      2.00000
      3     -16.3486      2.00000
      4      -7.9550      2.00000
      5      -7.6336      2.00000
      6       0.1356      0.00000
      7       4.0894      0.00000
      8       4.1068      0.00000
      9      12.1819      0.00000
     10      12.5972      0.00000
     11      12.6057      0.00000
     12      13.8690      0.00000
     13      14.5185      0.00000
     14      14.5847      0.00000
     15      14.9405      0.00000
     16      15.5493      0.00000


--------------------------------------------------------------------------------------------------------


 soft charge-density along one line, spin component           1
         0         1         2         3         4         5         6         7         8         9
 total charge-density along one line
 
 pseudopotential strength for first ion, spin component:           1
 14.675 -14.801   0.000   0.036  -0.000  -0.000   0.238   0.000
-14.801  19.056  -0.000  -0.009   0.000   0.000  -0.333  -0.000
  0.000  -0.000  -7.674   0.000   0.000   4.274  -0.000  -0.000
  0.036  -0.009   0.000  -7.638  -0.000  -0.000   4.177   0.000
 -0.000   0.000   0.000  -0.000  -7.674  -0.000   0.000   4.274
 -0.000   0.000   4.274  -0.000  -0.000  32.803   0.000   0.000
  0.238  -0.333  -0.000   4.177   0.000   0.000  32.914  -0.000
  0.000  -0.000  -0.000   0.000   4.274   0.000  -0.000  32.803
 total augmentation occupancy for first ion, spin component:           1
  1.867   0.024   0.000  -0.275   0.000   0.000   0.017   0.000
  0.024   0.003  -0.000   0.043  -0.000   0.000   0.002  -0.000
 -0.000   0.000   1.156   0.000   0.000   0.062   0.000   0.000
 -0.275   0.043   0.000   1.546   0.000   0.000   0.039   0.000
  0.000  -0.000   0.000  -0.000   1.156   0.000  -0.000   0.062
  0.000   0.000   0.062   0.000   0.000   0.005   0.000   0.000
  0.017   0.002  -0.000   0.039   0.000   0.000   0.003   0.000
  0.000  -0.000   0.000   0.000   0.062   0.000   0.000   0.005


------------------------ aborting loop because EDIFF is reached ----------------------------------------





 total charge

# of ion       s       p       d       tot
------------------------------------------
    1        1.278   2.296   0.000   3.574
    2        1.278   2.296   0.000   3.574
--------------------------------------------------
tot          2.555   4.592   0.000   7.148
 


--------------------------------------------------------------------------------------------------------



  FREE ENERGIE OF THE ION-ELECTRON SYSTEM (eV)
  ---------------------------------------------------
  free  energy   TOTEN  =       -13.41992178 eV

  energy  without entropy=      -13.41992178  energy(sigma->0) =      -13.41992178
 


--------------------------------------------------------------------------------------------------------




--------------------------------------------------------------------------------------------------------


     LOOP+:  cpu time     25.3237: real time     25.5392
    4ORBIT:  cpu time      0.0000: real time      0.0000



 total charge

# of ion       s       p       d       tot
------------------------------------------
    1        1.278   2.296   0.000   3.574
    2        1.278   2.296   0.000   3.574
--------------------------------------------------
tot          2.555   4.592   0.000   7.148
 

 total amount of memory used by VASP MPI-rank0    42209. kBytes
=======================================================================

   base      :      30000. kBytes
   nonl-proj :       4311. kBytes
   fftplans  :       2470. kBytes
   grid      :       1049. kBytes
   one-center:          3. kBytes
   wavefun   :       4376. kBytes
 
  
  
 General timing and accounting informations for this job:
 ========================================================
  
                  Total CPU time used (sec):       26.529
                            User time (sec):       26.338
                          System time (sec):        0.192
                         Elapsed time (sec):       27.665
  
                   Maximum memory used (kb):      150748.
                   Average memory used (kb):          N/A
  
                          Minor page faults:        12686
                          Major page faults:         3634
                 Voluntary context switches:          326
