PROCAR new format
# of k-points:  154         # of bands:   16         # of ions:    2

 k-point     1 :    0.00000000 0.00000000 0.00000000     weight = 0.00062500

band     1 # energy  -30.03910058 # occ.  2.00000000
 
ion      s      p      d    tot
    1  0.319  0.025  0.000  0.344
    2  0.319  0.025  0.000  0.344
tot    0.638  0.051  0.000  0.689
 
band     2 # energy  -14.50342297 # occ.  2.00000000
 
ion      s      p      d    tot
    1  0.148  0.132  0.000  0.280
    2  0.148  0.132  0.000  0.280
tot    0.296  0.263  0.000  0.560
 
band     3 # energy   -8.39486235 # occ.  2.00000000
 
ion      s      p      d    tot
    1  0.000  0.424  0.000  0.424
    2  0.000  0.424  0.000  0.424
tot    0.000  0.847  0.000  0.847
 
band     4 # energy   -8.39485876 # occ.  2.00000000
 
ion      s      p      d    tot
    1  0.000  0.424  0.000  0.424
    2  0.000  0.424  0.000  0.424
tot    0.000  0.847  0.000  0.847
 
band     5 # energy   -5.63255960 # occ.  2.00000000
 
ion      s      p      d    tot
    1  0.003  0.276  0.000  0.279
    2  0.003  0.276  0.000  0.279
tot    0.006  0.553  0.000  0.558
 
band     6 # energy   -0.03729459 # occ.  0.00000000
 
ion      s      p      d    tot
    1  0.000  0.390  0.000  0.390
    2  0.000  0.390  0.000  0.390
tot    0.000  0.780  0.000  0.780
 
band     7 # energy   -0.03729006 # occ.  0.00000000
 
ion      s      p      d    tot
    1  0.000  0.390  0.000  0.390
    2  0.000  0.390  0.000  0.390
tot    0.000  0.780  0.000  0.780
 
band     8 # energy    0.31279000 # occ.  0.00000000
 
ion      s      p      d    tot
    1  0.297  0.147  0.000  0.444
    2  0.297  0.147  0.000  0.444
tot    0.595  0.294  0.000  0.889
 
band     9 # energy    2.07810739 # occ.  0.00000000
 
ion      s      p      d    tot
    1  0.001  0.012  0.000  0.013
    2  0.001  0.012  0.000  0.013
tot    0.002  0.024  0.000  0.025
 
band    10 # energy    2.23233046 # occ.  0.00000000
 
ion      s      p      d    tot
    1  0.002  0.016  0.000  0.018
    2  0.002  0.016  0.000  0.018
tot    0.003  0.033  0.000  0.036
 
band    11 # energy    3.31234739 # occ.  0.00000000
 
ion      s      p      d    tot
    1  0.002  0.020  0.000  0.022
    2  0.002  0.020  0.000  0.022
tot    0.005  0.039  0.000  0.044
 
band    12 # energy    4.30111772 # occ.  0.00000000
 
ion      s      p      d    tot
    1  0.002  0.007  0.000  0.010
    2  0.002  0.007  0.000  0.010
tot    0.005  0.014  0.000  0.019
 
band    13 # energy    6.11861291 # occ.  0.00000000
 
ion      s      p      d    tot
    1  0.006  0.030  0.000  0.035
    2  0.006  0.030  0.000  0.035
tot    0.011  0.059  0.000  0.071
 
band    14 # energy    7.73097304 # occ.  0.00000000
 
ion      s      p      d    tot
    1  0.005  0.010  0.000  0.015
    2  0.005  0.010  0.000  0.015
tot    0.011  0.020  0.000  0.031
 
band    15 # energy   10.13059457 # occ.  0.00000000
 
ion      s      p      d    tot
    1  0.011  0.033  0.000  0.044
    2  0.011  0.033  0.000  0.044
tot    0.022  0.065  0.000  0.088
 
band    16 # energy   12.51990757 # occ.  0.00000000
 
ion      s      p      d    tot
    1  0.008  0.014  0.000  0.022
    2  0.008  0.014  0.000  0.022
tot    0.015  0.028  0.000  0.044
 

 k-point     2 :    0.02500000 0.00000000 0.00000000     weight = 0.00375000

band     1 # energy  -30.02108335 # occ.  2.00000000
 
ion      s      p      d    tot
    1  0.319  0.026  0.000  0.344
    2  0.319  0.026  0.000  0.344
tot    0.637  0.051  0.000  0.689
 
band     2 # energy  -14.48679764 # occ.  2.00000000
 
ion      s      p      d    tot
    1  0.148  0.132  0.000  0.280
    2  0.148  0.132  0.000  0.280
tot    0.297  0.263  0.000  0.560
 
band     3 # energy   -8.49893911 # occ.  2.00000000
 
ion      s      p      d    tot
    1  0.004  0.419  0.000  0.423
    2  0.004  0.419  0.000  0.423
tot    0.007  0.838  0.000  0.846
 
band     4 # energy   -8.42744608 # occ.  2.00000000
 
ion      s      p      d    tot
    1  0.000  0.423  0.000  0.423
    2  0.000  0.423  0.000  0.423
tot    0.000  0.846  0.000  0.846
 
band     5 # energy   -5.62368317 # occ.  2.00000000
 
ion      s      p      d    tot
    1  0.003  0.277  0.000  0.280
    2  0.003  0.277  0.000  0.280
tot    0.006  0.554  0.000  0.559
 
band     6 # energy   -0.04344366 # occ.  0.00000000
 
ion      s      p      d    tot
    1  0.003  0.387  0.000  0.390
    2  0.003  0.387  0.000  0.390
tot    0.007  0.773  0.000  0.780
 
band     7 # energy   -0.00165535 # occ.  0.00000000
 
ion      s      p      d    tot
    1  0.000  0.391  0.000  0.391
    2  0.000  0.391  0.000  0.391
tot    0.000  0.782  0.000  0.782
 
band     8 # energy    0.37791236 # occ.  0.00000000
 
ion      s      p      d    tot
    1  0.291  0.153  0.000  0.444
    2  0.291  0.153  0.000  0.444
tot    0.582  0.306  0.000  0.888
 
band     9 # energy    2.10144604 # occ.  0.00000000
 
ion      s      p      d    tot
    1  0.001  0.012  0.000  0.013
    2  0.001  0.012  0.000  0.013
tot    0.002  0.024  0.000  0.026
 
band    10 # energy    2.25513354 # occ.  0.00000000
 
ion      s      p      d    tot
    1  0.002  0.017  0.000  0.018
    2  0.002  0.017  0.000  0.018
tot    0.003  0.033  0.000  0.036
 
band    11 # energy    3.33462834 # occ.  0.00000000
 
ion      s      p      d    tot
    1  0.002  0.020  0.000  0.022
    2  0.002  0.020  0.000  0.022
tot    0.005  0.039  0.000  0.044
 
band    12 # energy    4.32433073 # occ.  0.00000000
 
ion      s      p      d    tot
    1  0.002  0.007  0.000  0.010
    2  0.002  0.007  0.000  0.010
tot    0.005  0.014  0.000  0.019
 
band    13 # energy    6.13901045 # occ.  0.00000000
 
ion      s      p      d    tot
    1  0.006  0.030  0.000  0.035
    2  0.006  0.030  0.000  0.035
tot    0.011  0.059  0.000  0.071
 
band    14 # energy    7.75354396 # occ.  0.00000000
 
ion      s      p      d    tot
    1  0.005  0.010  0.000  0.016
    2  0.005  0.010  0.000  0.016
tot    0.011  0.020  0.000  0.031
 
band    15 # energy   10.14827471 # occ.  0.00000000
 
ion      s      p      d    tot
    1  0.011  0.032  0.000  0.044
    2  0.011  0.032  0.000  0.044
tot    0.022  0.065  0.000  0.087
 
band    16 # energy   12.54107765 # occ.  0.00000000
 
ion      s      p      d    tot
    1  0.008  0.014  0.000  0.022
    2  0.008  0.014  0.000  0.022
tot    0.015  0.029  0.000  0.044
 

 k-point     3 :    0.05000000 0.00000000 0.00000000     weight = 0.00375000

band     1 # energy  -29.96705079 # occ.  2.00000000
 
ion      s      p      d    tot
    1  0.318  0.026  0.000  0.345
    2  0.318  0.026  0.000  0.345
tot    0.637  0.053  0.000  0.689
 
band     2 # energy  -14.43716135 # occ.  2.00000000
 
ion      s      p      d    tot
    1  0.149  0.132  0.000  0.281
    2  0.149  0.132  0.000  0.281
tot    0.298  0.263  0.000  0.561
 
band     3 # energy   -8.79768818 # occ.  2.00000000
 
ion      s      p      d    tot
    1  0.013  0.407  0.000  0.421
    2  0.013  0.407  0.000  0.421
tot    0.027  0.814  0.000  0.841
 
band     4 # energy   -8.52187872 # occ.  2.00000000
 
ion      s      p      d    tot
    1  0.000  0.422  0.000  0.422
    2  0.000  0.422  0.000  0.422
tot    0.000  0.844  0.000  0.844
 
band     5 # energy   -5.59738737 # occ.  2.00000000
 
ion      s      p      d    tot
    1  0.003  0.278  0.000  0.281
    2  0.003  0.278  0.000  0.281
tot    0.006  0.556  0.000  0.563
 
band     6 # energy   -0.08103503 # occ.  0.00000000
 
ion      s      p      d    tot
    1  0.018  0.372  0.000  0.390
    2  0.018  0.372  0.000  0.390
tot    0.037  0.743  0.000  0.780
 
band     7 # energy    0.10239084 # occ.  0.00000000
 
ion      s      p      d    tot
    1  0.000  0.393  0.000  0.393
    2  0.000  0.393  0.000  0.393
tot    0.000  0.785  0.000  0.785
 
band     8 # energy    0.58036849 # occ.  0.00000000
 
ion      s      p      d    tot
    1  0.268  0.176  0.000  0.443
    2  0.268  0.176  0.000  0.443
tot    0.535  0.352  0.000  0.887
 
band     9 # energy    2.17142750 # occ.  0.00000000
 
ion      s      p      d    tot
    1  0.001  0.012  0.000  0.013
    2  0.001  0.012  0.000  0.013
tot    0.002  0.025  0.000  0.026
 
band    10 # energy    2.32351350 # occ.  0.00000000
 
ion      s      p      d    tot
    1  0.002  0.017  0.000  0.018
    2  0.002  0.017  0.000  0.018
tot    0.003  0.034  0.000  0.037
 
band    11 # energy    3.40146579 # occ.  0.00000000
 
ion      s      p      d    tot
    1  0.002  0.020  0.000  0.022
    2  0.002  0.020  0.000  0.022
tot    0.005  0.039  0.000  0.044
 
band    12 # energy    4.39394441 # occ.  0.00000000
 
ion      s      p      d    tot
    1  0.002  0.007  0.000  0.010
    2  0.002  0.007  0.000  0.010
tot    0.005  0.014  0.000  0.019
 
band    13 # energy    6.20016056 # occ.  0.00000000
 
ion      s      p      d    tot
    1  0.006  0.030  0.000  0.035
    2  0.006  0.030  0.000  0.035
tot    0.011  0.059  0.000  0.070
 
band    14 # energy    7.82121382 # occ.  0.00000000
 
ion      s      p      d    tot
    1  0.005  0.010  0.000  0.016
    2  0.005  0.010  0.000  0.016
tot    0.011  0.021  0.000  0.031
 
band    15 # energy   10.20115762 # occ.  0.00000000
 
ion      s      p      d    tot
    1  0.011  0.032  0.000  0.043
    2  0.011  0.032  0.000  0.043
tot    0.022  0.064  0.000  0.086
 
band    16 # energy   12.60444186 # occ.  0.00000000
 
ion      s      p      d    tot
    1  0.008  0.014  0.000  0.022
    2  0.008  0.014  0.000  0.022
tot    0.016  0.029  0.000  0.044
 

 k-point     4 :    0.07500000-0.00000000 0.00000000     weight = 0.00375000

band     1 # energy  -29.87698338 # occ.  2.00000000
 
ion      s      p      d    tot
    1  0.317  0.028  0.000  0.345
    2  0.317  0.028  0.000  0.345
tot    0.635  0.055  0.000  0.690
 
band     2 # energy  -14.35493470 # occ.  2.00000000
 
ion      s      p      d    tot
    1  0.150  0.131  0.000  0.282
    2  0.150  0.131  0.000  0.282
tot    0.301  0.263  0.000  0.564
 
band     3 # energy   -9.25964084 # occ.  2.00000000
 
ion      s      p      d    tot
    1  0.026  0.391  0.000  0.417
    2  0.026  0.391  0.000  0.417
tot    0.052  0.782  0.000  0.834
 
band     4 # energy   -8.67136183 # occ.  2.00000000
 
ion      s      p      d    tot
    1  0.000  0.420  0.000  0.420
    2  0.000  0.420  0.000  0.420
tot    0.000  0.840  0.000  0.840
 
band     5 # energy   -5.55487032 # occ.  2.00000000
 
ion      s      p      d    tot
    1  0.004  0.281  0.000  0.284
    2  0.004  0.281  0.000  0.284
tot    0.007  0.561  0.000  0.568
 
band     6 # energy   -0.15997577 # occ.  0.00000000
 
ion      s      p      d    tot
    1  0.035  0.354  0.000  0.388
    2  0.035  0.354  0.000  0.388
tot    0.069  0.708  0.000  0.777
 
band     7 # energy    0.26656007 # occ.  0.00000000
 
ion      s      p      d    tot
    1  0.000  0.396  0.000  0.396
    2  0.000  0.396  0.000  0.396
tot    0.000  0.791  0.000  0.791
 
band     8 # energy    0.89940753 # occ.  0.00000000
 
ion      s      p      d    tot
    1  0.240  0.203  0.000  0.443
    2  0.240  0.203  0.000  0.443
tot    0.480  0.406  0.000  0.886
 
band     9 # energy    2.28792217 # occ.  0.00000000
 
ion      s      p      d    tot
    1  0.001  0.013  0.000  0.014
    2  0.001  0.013  0.000  0.014
tot    0.001  0.026  0.000  0.027
 
band    10 # energy    2.43748317 # occ.  0.00000000
 
ion      s      p      d    tot
    1  0.002  0.017  0.000  0.019
    2  0.002  0.017  0.000  0.019
tot    0.003  0.035  0.000  0.038
 
band    11 # energy    3.51288196 # occ.  0.00000000
 
ion      s      p      d    tot
    1  0.002  0.020  0.000  0.022
    2  0.002  0.020  0.000  0.022
tot    0.004  0.040  0.000  0.044
 
band    12 # energy    4.50988389 # occ.  0.00000000
 
ion      s      p      d    tot
    1  0.002  0.007  0.000  0.010
    2  0.002  0.007  0.000  0.010
tot    0.005  0.015  0.000  0.019
 
band    13 # energy    6.30195113 # occ.  0.00000000
 
ion      s      p      d    tot
    1  0.005  0.030  0.000  0.035
    2  0.005  0.030  0.000  0.035
tot    0.011  0.059  0.000  0.070
 
band    14 # energy    7.93385283 # occ.  0.00000000
 
ion      s      p      d    tot
    1  0.005  0.010  0.000  0.016
    2  0.005  0.010  0.000  0.016
tot    0.011  0.021  0.000  0.032
 
band    15 # energy   10.28878472 # occ.  0.00000000
 
ion      s      p      d    tot
    1  0.010  0.032  0.000  0.042
    2  0.010  0.032  0.000  0.042
tot    0.021  0.064  0.000  0.085
 
band    16 # energy   12.70953599 # occ.  0.00000000
 
ion      s      p      d    tot
    1  0.008  0.015  0.000  0.023
    2  0.008  0.015  0.000  0.023
tot    0.016  0.030  0.000  0.045
 

 k-point     5 :    0.10000000 0.00000000 0.00000000     weight = 0.00375000

band     1 # energy  -29.75113884 # occ.  2.00000000
 
ion      s      p      d    tot
    1  0.316  0.029  0.000  0.346
    2  0.316  0.029  0.000  0.346
tot    0.633  0.059  0.000  0.691
 
band     2 # energy  -14.24047177 # occ.  2.00000000
 
ion      s      p      d    tot
    1  0.153  0.131  0.000  0.284
    2  0.153  0.131  0.000  0.284
tot    0.305  0.262  0.000  0.567
 
band     3 # energy   -9.84808705 # occ.  2.00000000
 
ion      s      p      d    tot
    1  0.039  0.373  0.000  0.413
    2  0.039  0.373  0.000  0.413
tot    0.079  0.747  0.000  0.826
 
band     4 # energy   -8.86592959 # occ.  2.00000000
 
ion      s      p      d    tot
    1  0.000  0.417  0.000  0.417
    2  0.000  0.417  0.000  0.417
tot    0.000  0.835  0.000  0.835
 
band     5 # energy   -5.49882631 # occ.  2.00000000
 
ion      s      p      d    tot
    1  0.004  0.284  0.000  0.288
    2  0.004  0.284  0.000  0.288
tot    0.008  0.568  0.000  0.576
 
band     6 # energy   -0.27257682 # occ.  0.00000000
 
ion      s      p      d    tot
    1  0.048  0.337  0.000  0.385
    2  0.048  0.337  0.000  0.385
tot    0.096  0.674  0.000  0.770
 
band     7 # energy    0.47894106 # occ.  0.00000000
 
ion      s      p      d    tot
    1  0.000  0.399  0.000  0.399
    2  0.000  0.399  0.000  0.399
tot    0.000  0.798  0.000  0.798
 
band     8 # energy    1.29022860 # occ.  0.00000000
 
ion      s      p      d    tot
    1  0.215  0.227  0.000  0.442
    2  0.215  0.227  0.000  0.442
tot    0.430  0.455  0.000  0.884
 
band     9 # energy    2.45061030 # occ.  0.00000000
 
ion      s      p      d    tot
    1  0.001  0.014  0.000  0.015
    2  0.001  0.014  0.000  0.015
tot    0.001  0.028  0.000  0.029
 
band    10 # energy    2.59740707 # occ.  0.00000000
 
ion      s      p      d    tot
    1  0.001  0.019  0.000  0.020
    2  0.001  0.019  0.000  0.020
tot    0.003  0.037  0.000  0.040
 
band    11 # energy    3.66904578 # occ.  0.00000000
 
ion      s      p      d    tot
    1  0.002  0.020  0.000  0.022
    2  0.002  0.020  0.000  0.022
tot    0.004  0.040  0.000  0.044
 
band    12 # energy    4.67203203 # occ.  0.00000000
 
ion      s      p      d    tot
    1  0.003  0.007  0.000  0.010
    2  0.003  0.007  0.000  0.010
tot    0.005  0.015  0.000  0.020
 
band    13 # energy    6.44427302 # occ.  0.00000000
 
ion      s      p      d    tot
    1  0.005  0.029  0.000  0.035
    2  0.005  0.029  0.000  0.035
tot    0.010  0.059  0.000  0.069
 
band    14 # energy    8.09125153 # occ.  0.00000000
 
ion      s      p      d    tot
    1  0.006  0.010  0.000  0.016
    2  0.006  0.010  0.000  0.016
tot    0.011  0.021  0.000  0.032
 
band    15 # energy   10.41048540 # occ.  0.00000000
 
ion      s      p      d    tot
    1  0.010  0.031  0.000  0.041
    2  0.010  0.031  0.000  0.041
tot    0.020  0.062  0.000  0.082
 
band    16 # energy   12.85551318 # occ.  0.00000000
 
ion      s      p      d    tot
    1  0.008  0.015  0.000  0.023
    2  0.008  0.015  0.000  0.023
tot    0.016  0.030  0.000  0.047
 

 k-point     6 :    0.12500000 0.00000000 0.00000000     weight = 0.00375000

band     1 # energy  -29.58971013 # occ.  2.00000000
 
ion      s      p      d    tot
    1  0.315  0.031  0.000  0.346
    2  0.315  0.031  0.000  0.346
tot    0.630  0.063  0.000  0.693
 
band     2 # energy  -14.09581790 # occ.  2.00000000
 
ion      s      p      d    tot
    1  0.157  0.129  0.000  0.286
    2  0.157  0.129  0.000  0.286
tot    0.313  0.259  0.000  0.572
 
band     3 # energy  -10.52673107 # occ.  2.00000000
 
ion      s      p      d    tot
    1  0.050  0.357  0.000  0.408
    2  0.050  0.357  0.000  0.408
tot    0.101  0.714  0.000  0.815
 
band     4 # energy   -9.09441839 # occ.  2.00000000
 
ion      s      p      d    tot
    1  0.000  0.415  0.000  0.415
    2  0.000  0.415  0.000  0.415
tot    0.000  0.829  0.000  0.829
 
band     5 # energy   -5.43320336 # occ.  2.00000000
 
ion      s      p      d    tot
    1  0.005  0.288  0.000  0.293
    2  0.005  0.288  0.000  0.293
tot    0.010  0.576  0.000  0.587
 
band     6 # energy   -0.40932035 # occ.  0.00000000
 
ion      s      p      d    tot
    1  0.059  0.321  0.000  0.380
    2  0.059  0.321  0.000  0.380
tot    0.118  0.642  0.000  0.760
 
band     7 # energy    0.72607633 # occ.  0.00000000
 
ion      s      p      d    tot
    1  0.000  0.403  0.000  0.403
    2  0.000  0.403  0.000  0.403
tot    0.000  0.805  0.000  0.805
 
band     8 # energy    1.70887890 # occ.  0.00000000
 
ion      s      p      d    tot
    1  0.192  0.248  0.000  0.440
    2  0.192  0.248  0.000  0.440
tot    0.384  0.495  0.000  0.879
 
band     9 # energy    2.65880428 # occ.  0.00000000
 
ion      s      p      d    tot
    1  0.000  0.015  0.000  0.015
    2  0.000  0.015  0.000  0.015
tot    0.001  0.030  0.000  0.031
 
band    10 # energy    2.80450651 # occ.  0.00000000
 
ion      s      p      d    tot
    1  0.002  0.021  0.000  0.023
    2  0.002  0.021  0.000  0.023
tot    0.003  0.042  0.000  0.045
 
band    11 # energy    3.87043160 # occ.  0.00000000
 
ion      s      p      d    tot
    1  0.002  0.020  0.000  0.022
    2  0.002  0.020  0.000  0.022
tot    0.004  0.041  0.000  0.045
 
band    12 # energy    4.88023735 # occ.  0.00000000
 
ion      s      p      d    tot
    1  0.003  0.007  0.000  0.010
    2  0.003  0.007  0.000  0.010
tot    0.005  0.015  0.000  0.020
 
band    13 # energy    6.62713652 # occ.  0.00000000
 
ion      s      p      d    tot
    1  0.005  0.029  0.000  0.034
    2  0.005  0.029  0.000  0.034
tot    0.010  0.058  0.000  0.068
 
band    14 # energy    8.29311714 # occ.  0.00000000
 
ion      s      p      d    tot
    1  0.006  0.011  0.000  0.016
    2  0.006  0.011  0.000  0.016
tot    0.011  0.021  0.000  0.033
 
band    15 # energy   10.56551619 # occ.  0.00000000
 
ion      s      p      d    tot
    1  0.009  0.030  0.000  0.039
    2  0.009  0.030  0.000  0.039
tot    0.019  0.060  0.000  0.079
 
band    16 # energy   13.04099670 # occ.  0.00000000
 
ion      s      p      d    tot
    1  0.009  0.016  0.000  0.024
    2  0.009  0.016  0.000  0.024
tot    0.017  0.031  0.000  0.049
 

 k-point     7 :    0.15000000 0.00000000 0.00000000     weight = 0.00375000

band     1 # energy  -29.39291304 # occ.  2.00000000
 
ion      s      p      d    tot
    1  0.313  0.034  0.000  0.347
    2  0.313  0.034  0.000  0.347
tot    0.626  0.068  0.000  0.694
 
band     2 # energy  -13.92451221 # occ.  2.00000000
 
ion      s      p      d    tot
    1  0.164  0.126  0.000  0.290
    2  0.164  0.126  0.000  0.290
tot    0.329  0.252  0.000  0.581
 
band     3 # energy  -11.26533666 # occ.  2.00000000
 
ion      s      p      d    tot
    1  0.057  0.344  0.000  0.401
    2  0.057  0.344  0.000  0.401
tot    0.114  0.688  0.000  0.802
 
band     4 # energy   -9.34567027 # occ.  2.00000000
 
ion      s      p      d    tot
    1  0.000  0.412  0.000  0.412
    2  0.000  0.412  0.000  0.412
tot    0.000  0.824  0.000  0.824
 
band     5 # energy   -5.36290107 # occ.  2.00000000
 
ion      s      p      d    tot
    1  0.006  0.293  0.000  0.300
    2  0.006  0.293  0.000  0.300
tot    0.013  0.587  0.000  0.600
 
band     6 # energy   -0.56126428 # occ.  0.00000000
 
ion      s      p      d    tot
    1  0.069  0.305  0.000  0.374
    2  0.069  0.305  0.000  0.374
tot    0.137  0.610  0.000  0.747
 
band     7 # energy    0.99438654 # occ.  0.00000000
 
ion      s      p      d    tot
    1  0.000  0.406  0.000  0.406
    2  0.000  0.406  0.000  0.406
tot    0.000  0.813  0.000  0.813
 
band     8 # energy    2.11666943 # occ.  0.00000000
 
ion      s      p      d    tot
    1  0.170  0.263  0.000  0.433
    2  0.170  0.263  0.000  0.433
tot    0.339  0.526  0.000  0.865
 
band     9 # energy    2.91152467 # occ.  0.00000000
 
ion      s      p      d    tot
    1  0.001  0.015  0.000  0.015
    2  0.001  0.015  0.000  0.015
tot    0.001  0.029  0.000  0.031
 
band    10 # energy    3.06105066 # occ.  0.00000000
 
ion      s      p      d    tot
    1  0.003  0.026  0.000  0.028
    2  0.003  0.026  0.000  0.028
tot    0.005  0.051  0.000  0.057
 
band    11 # energy    4.11787202 # occ.  0.00000000
 
ion      s      p      d    tot
    1  0.002  0.021  0.000  0.023
    2  0.002  0.021  0.000  0.023
tot    0.004  0.043  0.000  0.046
 
band    12 # energy    5.13436868 # occ.  0.00000000
 
ion      s      p      d    tot
    1  0.003  0.007  0.000  0.010
    2  0.003  0.007  0.000  0.010
tot    0.006  0.014  0.000  0.020
 
band    13 # energy    6.85077270 # occ.  0.00000000
 
ion      s      p      d    tot
    1  0.005  0.029  0.000  0.034
    2  0.005  0.029  0.000  0.034
tot    0.009  0.058  0.000  0.067
 
band    14 # energy    8.53911297 # occ.  0.00000000
 
ion      s      p      d    tot
    1  0.006  0.011  0.000  0.017
    2  0.006  0.011  0.000  0.017
tot    0.012  0.021  0.000  0.033
 
band    15 # energy   10.75325593 # occ.  0.00000000
 
ion      s      p      d    tot
    1  0.009  0.029  0.000  0.037
    2  0.009  0.029  0.000  0.037
tot    0.017  0.057  0.000  0.075
 
band    16 # energy   13.26385810 # occ.  0.00000000
 
ion      s      p      d    tot
    1  0.009  0.016  0.000  0.026
    2  0.009  0.016  0.000  0.026
tot    0.018  0.033  0.000  0.051
 

 k-point     8 :    0.17500000 0.00000000 0.00000000     weight = 0.00375000

band     1 # energy  -29.16104387 # occ.  2.00000000
 
ion      s      p      d    tot
    1  0.311  0.037  0.000  0.348
    2  0.311  0.037  0.000  0.348
tot    0.622  0.074  0.000  0.696
 
band     2 # energy  -13.73761617 # occ.  2.00000000
 
ion      s      p      d    tot
    1  0.181  0.117  0.000  0.299
    2  0.181  0.117  0.000  0.299
tot    0.363  0.234  0.000  0.597
 
band     3 # energy  -12.03243386 # occ.  2.00000000
 
ion      s      p      d    tot
    1  0.053  0.338  0.000  0.391
    2  0.053  0.338  0.000  0.391
tot    0.106  0.675  0.000  0.781
 
band     4 # energy   -9.61013285 # occ.  2.00000000
 
ion      s      p      d    tot
    1  0.000  0.409  0.000  0.409
    2  0.000  0.409  0.000  0.409
tot    0.000  0.819  0.000  0.819
 
band     5 # energy   -5.29519974 # occ.  2.00000000
 
ion      s      p      d    tot
    1  0.008  0.299  0.000  0.307
    2  0.008  0.299  0.000  0.307
tot    0.017  0.598  0.000  0.615
 
band     6 # energy   -0.71919667 # occ.  0.00000000
 
ion      s      p      d    tot
    1  0.078  0.289  0.000  0.367
    2  0.078  0.289  0.000  0.367
tot    0.155  0.578  0.000  0.733
 
band     7 # energy    1.27124879 # occ.  0.00000000
 
ion      s      p      d    tot
    1  0.000  0.410  0.000  0.410
    2  0.000  0.410  0.000  0.410
tot    0.000  0.819  0.000  0.819
 
band     8 # energy    2.48059309 # occ.  0.00000000
 
ion      s      p      d    tot
    1  0.147  0.272  0.000  0.420
    2  0.147  0.272  0.000  0.420
tot    0.295  0.545  0.000  0.840
 
band     9 # energy    3.20852785 # occ.  0.00000000
 
ion      s      p      d    tot
    1  0.001  0.013  0.000  0.014
    2  0.001  0.013  0.000  0.014
tot    0.003  0.025  0.000  0.028
 
band    10 # energy    3.36851573 # occ.  0.00000000
 
ion      s      p      d    tot
    1  0.004  0.033  0.000  0.038
    2  0.004  0.033  0.000  0.038
tot    0.009  0.067  0.000  0.076
 
band    11 # energy    4.41222186 # occ.  0.00000000
 
ion      s      p      d    tot
    1  0.002  0.023  0.000  0.025
    2  0.002  0.023  0.000  0.025
tot    0.004  0.046  0.000  0.050
 
band    12 # energy    5.43438251 # occ.  0.00000000
 
ion      s      p      d    tot
    1  0.003  0.007  0.000  0.010
    2  0.003  0.007  0.000  0.010
tot    0.006  0.014  0.000  0.020
 
band    13 # energy    7.11563622 # occ.  0.00000000
 
ion      s      p      d    tot
    1  0.004  0.029  0.000  0.034
    2  0.004  0.029  0.000  0.034
tot    0.009  0.058  0.000  0.067
 
band    14 # energy    8.82889133 # occ.  0.00000000
 
ion      s      p      d    tot
    1  0.006  0.011  0.000  0.017
    2  0.006  0.011  0.000  0.017
tot    0.013  0.022  0.000  0.034
 
band    15 # energy   10.97344071 # occ.  0.00000000
 
ion      s      p      d    tot
    1  0.008  0.027  0.000  0.035
    2  0.008  0.027  0.000  0.035
tot    0.016  0.054  0.000  0.070
 
band    16 # energy   13.52078887 # occ.  0.00000000
 
ion      s      p      d    tot
    1  0.010  0.017  0.000  0.027
    2  0.010  0.017  0.000  0.027
tot    0.020  0.034  0.000  0.054
 

 k-point     9 :    0.20000000 0.00000000 0.00000000     weight = 0.00375000

band     1 # energy  -28.89458863 # occ.  2.00000000
 
ion      s      p      d    tot
    1  0.309  0.040  0.000  0.349
    2  0.309  0.040  0.000  0.349
tot    0.618  0.081  0.000  0.698
 
band     2 # energy  -13.60039107 # occ.  2.00000000
 
ion      s      p      d    tot
    1  0.229  0.100  0.000  0.329
    2  0.229  0.100  0.000  0.329
tot    0.459  0.200  0.000  0.658
 
band     3 # energy  -12.74882468 # occ.  2.00000000
 
ion      s      p      d    tot
    1  0.017  0.342  0.000  0.358
    2  0.017  0.342  0.000  0.358
tot    0.033  0.683  0.000  0.717
 
band     4 # energy   -9.87922814 # occ.  2.00000000
 
ion      s      p      d    tot
    1  0.000  0.407  0.000  0.407
    2  0.000  0.407  0.000  0.407
tot    0.000  0.814  0.000  0.814
 
band     5 # energy   -5.23904362 # occ.  2.00000000
 
ion      s      p      d    tot
    1  0.011  0.305  0.000  0.316
    2  0.011  0.305  0.000  0.316
tot    0.022  0.610  0.000  0.633
 
band     6 # energy   -0.87349598 # occ.  0.00000000
 
ion      s      p      d    tot
    1  0.086  0.273  0.000  0.359
    2  0.086  0.273  0.000  0.359
tot    0.172  0.546  0.000  0.717
 
band     7 # energy    1.54578712 # occ.  0.00000000
 
ion      s      p      d    tot
    1  0.000  0.413  0.000  0.413
    2  0.000  0.413  0.000  0.413
tot    0.000  0.825  0.000  0.825
 
band     8 # energy    2.77658850 # occ.  0.00000000
 
ion      s      p      d    tot
    1  0.126  0.277  0.000  0.403
    2  0.126  0.277  0.000  0.403
tot    0.252  0.555  0.000  0.806
 
band     9 # energy    3.55137617 # occ.  0.00000000
 
ion      s      p      d    tot
    1  0.003  0.010  0.000  0.013
    2  0.003  0.010  0.000  0.013
tot    0.005  0.021  0.000  0.026
 
band    10 # energy    3.72404133 # occ.  0.00000000
 
ion      s      p      d    tot
    1  0.006  0.041  0.000  0.047
    2  0.006  0.041  0.000  0.047
tot    0.012  0.083  0.000  0.094
 
band    11 # energy    4.75356984 # occ.  0.00000000
 
ion      s      p      d    tot
    1  0.002  0.025  0.000  0.027
    2  0.002  0.025  0.000  0.027
tot    0.004  0.050  0.000  0.055
 
band    12 # energy    5.78039315 # occ.  0.00000000
 
ion      s      p      d    tot
    1  0.004  0.007  0.000  0.010
    2  0.004  0.007  0.000  0.010
tot    0.007  0.014  0.000  0.021
 
band    13 # energy    7.42223916 # occ.  0.00000000
 
ion      s      p      d    tot
    1  0.004  0.030  0.000  0.034
    2  0.004  0.030  0.000  0.034
tot    0.008  0.059  0.000  0.067
 
band    14 # energy    9.16214824 # occ.  0.00000000
 
ion      s      p      d    tot
    1  0.007  0.011  0.000  0.018
    2  0.007  0.011  0.000  0.018
tot    0.014  0.022  0.000  0.036
 
band    15 # energy   11.22634818 # occ.  0.00000000
 
ion      s      p      d    tot
    1  0.007  0.026  0.000  0.033
    2  0.007  0.026  0.000  0.033
tot    0.014  0.051  0.000  0.065
 
band    16 # energy   13.80654198 # occ.  0.00000000
 
ion      s      p      d    tot
    1  0.011  0.018  0.000  0.029
    2  0.011  0.018  0.000  0.029
tot    0.022  0.037  0.000  0.059
 

 k-point    10 :    0.22500000 0.00000000 0.00000000     weight = 0.00375000

band     1 # energy  -28.59414303 # occ.  2.00000000
 
ion      s      p      d    tot
    1  0.306  0.044  0.000  0.351
    2  0.306  0.044  0.000  0.351
tot    0.613  0.088  0.000  0.701
 
band     2 # energy  -13.92798698 # occ.  2.00000000
 
ion      s      p      d    tot
    1  0.218  0.176  0.000  0.395
    2  0.218  0.176  0.000  0.395
tot    0.437  0.353  0.000  0.790
 
band     3 # energy  -12.98702417 # occ.  2.00000000
 
ion      s      p      d    tot
    1  0.038  0.253  0.000  0.292
    2  0.038  0.253  0.000  0.292
tot    0.077  0.507  0.000  0.583
 
band     4 # energy  -10.14476949 # occ.  2.00000000
 
ion      s      p      d    tot
    1  0.000  0.405  0.000  0.405
    2  0.000  0.405  0.000  0.405
tot    0.000  0.809  0.000  0.809
 
band     5 # energy   -5.20458507 # occ.  2.00000000
 
ion      s      p      d    tot
    1  0.015  0.311  0.000  0.326
    2  0.015  0.311  0.000  0.326
tot    0.030  0.622  0.000  0.652
 
band     6 # energy   -1.01392857 # occ.  0.00000000
 
ion      s      p      d    tot
    1  0.093  0.258  0.000  0.350
    2  0.093  0.258  0.000  0.350
tot    0.186  0.515  0.000  0.701
 
band     7 # energy    1.80918129 # occ.  0.00000000
 
ion      s      p      d    tot
    1  0.000  0.415  0.000  0.415
    2  0.000  0.415  0.000  0.415
tot    0.000  0.830  0.000  0.830
 
band     8 # energy    2.99194971 # occ.  0.00000000
 
ion      s      p      d    tot
    1  0.107  0.280  0.000  0.387
    2  0.107  0.280  0.000  0.387
tot    0.213  0.560  0.000  0.773
 
band     9 # energy    3.94141945 # occ.  0.00000000
 
ion      s      p      d    tot