<?xml version="1.0" encoding="ISO-8859-1"?>
<modeling>
 <generator>
  <i name="program" type="string">vasp </i>
  <i name="version" type="string">6.4.2  </i>
  <i name="subversion" type="string">20Jul23 (build Nov 14 2023 12:59:38) complex                          parallel </i>
  <i name="platform" type="string">LinuxIFC </i>
  <i name="date" type="string">2023 12 17 </i>
  <i name="time" type="string">08:38:40 </i>
 </generator>
 <incar>
  <i type="string" name="PREC">Accurate</i>
  <i type="string" name="ALGO">Normal</i>
  <i type="logical" name="ADDGRID"> T  </i>
  <i type="int" name="ISPIN">     1</i>
  <i name="AMIX">      0.10000000</i>
  <i name="BMIX">      0.00010000</i>
  <i type="int" name="NELM">   200</i>
  <i type="int" name="NELMDL">   -12</i>
  <i type="int" name="NELMIN">     6</i>
  <i type="int" name="IBRION">     2</i>
  <i name="EDIFF">      0.00000100</i>
  <i name="EDIFFG">     -0.01000000</i>
  <i type="int" name="NSW">     0</i>
  <i type="int" name="ISIF">    -1</i>
  <i name="ENCUT">    473.51475000</i>
  <i type="int" name="NBANDS">    16</i>
  <i name="POTIM">      0.50000000</i>
  <i type="int" name="NEDOS">  6001</i>
  <i type="logical" name="LPLANE"> T  </i>
  <i type="int" name="ISMEAR">     0</i>
  <i name="SIGMA">      0.01000000</i>
  <i type="int" name="NWRITE">     1</i>
  <i type="logical" name="LWAVE"> F  </i>
  <i type="logical" name="LCHARG"> F  </i>
  <i type="int" name="LORBIT">    10</i>
  <i type="logical" name="LASPH"> T  </i>
  <i type="int" name="IVDW">     0</i>
 </incar>
 <primitive_cell>
  <structure name="primitive_cell" >
   <crystal>
    <varray name="basis" >
     <v>       2.29449859       0.00000000       0.00000000 </v>
     <v>      -1.14724930       1.98709407       0.00000000 </v>
     <v>       0.00000000       0.00000000      16.00000000 </v>
    </varray>
    <i name="volume">     72.95015287 </i>
    <varray name="rec_basis" >
     <v>       0.43582507       0.25162372       0.00000000 </v>
     <v>       0.00000000       0.50324744       0.00000000 </v>
     <v>       0.00000000       0.00000000       0.06250000 </v>
    </varray>
   </crystal>
   <varray name="positions" >
    <v>       0.66666667       0.33333333       0.47822185 </v>
    <v>       0.33333333       0.66666667       0.52177815 </v>
   </varray>
  </structure>
  <varray name="primitive_index" >
   <v type="int" >        1 </v>
   <v type="int" >        2 </v>
  </varray>
 </primitive_cell>
 <kpoints>
  <generation param="Gamma">
   <v type="int" name="divisions">      40       40        1 </v>
   <v name="usershift">      0.00000000       0.00000000       0.00000000 </v>
   <v name="genvec1">      0.02500000       0.00000000       0.00000000 </v>
   <v name="genvec2">      0.00000000       0.02500000       0.00000000 </v>
   <v name="genvec3">      0.00000000       0.00000000       1.00000000 </v>
   <v name="shift">      0.00000000       0.00000000       0.00000000 </v>
  </generation>
  <varray name="kpointlist" >
   <v>       0.00000000       0.00000000       0.00000000 </v>
   <v>       0.02500000       0.00000000       0.00000000 </v>
   <v>       0.05000000       0.00000000       0.00000000 </v>
   <v>       0.07500000      -0.00000000       0.00000000 </v>
   <v>       0.10000000       0.00000000       0.00000000 </v>
   <v>       0.12500000       0.00000000       0.00000000 </v>
   <v>       0.15000000       0.00000000       0.00000000 </v>
   <v>       0.17500000       0.00000000       0.00000000 </v>
   <v>       0.20000000       0.00000000       0.00000000 </v>
   <v>       0.22500000       0.00000000       0.00000000 </v>
   <v>       0.25000000       0.00000000       0.00000000 </v>
   <v>       0.27500000       0.00000000       0.00000000 </v>
   <v>       0.30000000       0.00000000       0.00000000 </v>
   <v>       0.32500000       0.00000000       0.00000000 </v>
   <v>       0.35000000      -0.00000000       0.00000000 </v>
   <v>       0.37500000      -0.00000000       0.00000000 </v>
   <v>       0.40000000       0.00000000       0.00000000 </v>
   <v>       0.42500000      -0.00000000       0.00000000 </v>
   <v>       0.45000000       0.00000000       0.00000000 </v>
   <v>       0.47500000       0.00000000       0.00000000 </v>
   <v>       0.50000000       0.00000000       0.00000000 </v>
   <v>       0.02500000       0.02500000       0.00000000 </v>
   <v>       0.05000000       0.02500000       0.00000000 </v>
   <v>       0.07500000       0.02500000       0.00000000 </v>
   <v>       0.10000000       0.02500000       0.00000000 </v>
   <v>       0.12500000       0.02500000       0.00000000 </v>
   <v>       0.15000000       0.02500000       0.00000000 </v>
   <v>       0.17500000       0.02500000       0.00000000 </v>
   <v>       0.20000000       0.02500000       0.00000000 </v>
   <v>       0.22500000       0.02500000       0.00000000 </v>
   <v>       0.25000000       0.02500000       0.00000000 </v>
   <v>       0.27500000       0.02500000       0.00000000 </v>
   <v>       0.30000000       0.02500000       0.00000000 </v>
   <v>       0.32500000       0.02500000       0.00000000 </v>
   <v>       0.35000000       0.02500000       0.00000000 </v>
   <v>       0.37500000       0.02500000       0.00000000 </v>
   <v>       0.40000000       0.02500000       0.00000000 </v>
   <v>       0.42500000       0.02500000       0.00000000 </v>
   <v>       0.45000000       0.02500000       0.00000000 </v>
   <v>       0.47500000       0.02500000       0.00000000 </v>
   <v>       0.05000000       0.05000000       0.00000000 </v>
   <v>       0.07500000       0.05000000       0.00000000 </v>
   <v>       0.10000000       0.05000000       0.00000000 </v>
   <v>       0.12500000       0.05000000       0.00000000 </v>
   <v>       0.15000000       0.05000000       0.00000000 </v>
   <v>       0.17500000       0.05000000       0.00000000 </v>
   <v>       0.20000000       0.05000000       0.00000000 </v>
   <v>       0.22500000       0.05000000       0.00000000 </v>
   <v>       0.25000000       0.05000000       0.00000000 </v>
   <v>       0.27500000       0.05000000       0.00000000 </v>
   <v>       0.30000000       0.05000000       0.00000000 </v>
   <v>       0.32500000       0.05000000       0.00000000 </v>
   <v>       0.35000000       0.05000000       0.00000000 </v>
   <v>       0.37500000       0.05000000       0.00000000 </v>
   <v>       0.40000000       0.05000000       0.00000000 </v>
   <v>       0.42500000       0.05000000       0.00000000 </v>
   <v>       0.45000000       0.05000000       0.00000000 </v>
   <v>       0.47500000       0.05000000       0.00000000 </v>
   <v>       0.07500000       0.07500000       0.00000000 </v>
   <v>       0.10000000       0.07500000       0.00000000 </v>
   <v>       0.12500000       0.07500000       0.00000000 </v>
   <v>       0.15000000       0.07500000       0.00000000 </v>
   <v>       0.17500000       0.07500000       0.00000000 </v>
   <v>       0.20000000       0.07500000       0.00000000 </v>
   <v>       0.22500000       0.07500000       0.00000000 </v>
   <v>       0.25000000       0.07500000       0.00000000 </v>
   <v>       0.27500000       0.07500000       0.00000000 </v>
   <v>       0.30000000       0.07500000       0.00000000 </v>
   <v>       0.32500000       0.07500000       0.00000000 </v>
   <v>       0.35000000       0.07500000       0.00000000 </v>
   <v>       0.37500000       0.07500000       0.00000000 </v>
   <v>       0.40000000       0.07500000       0.00000000 </v>
   <v>       0.42500000       0.07500000       0.00000000 </v>
   <v>       0.45000000       0.07500000       0.00000000 </v>
   <v>       0.10000000       0.10000000       0.00000000 </v>
   <v>       0.12500000       0.10000000       0.00000000 </v>
   <v>       0.15000000       0.10000000       0.00000000 </v>
   <v>       0.17500000       0.10000000       0.00000000 </v>
   <v>       0.20000000       0.10000000       0.00000000 </v>
   <v>       0.22500000       0.10000000       0.00000000 </v>
   <v>       0.25000000       0.10000000       0.00000000 </v>
   <v>       0.27500000       0.10000000       0.00000000 </v>
   <v>       0.30000000       0.10000000       0.00000000 </v>
   <v>       0.32500000       0.10000000       0.00000000 </v>
   <v>       0.35000000       0.10000000       0.00000000 </v>
   <v>       0.37500000       0.10000000       0.00000000 </v>
   <v>       0.40000000       0.10000000       0.00000000 </v>
   <v>       0.42500000       0.10000000       0.00000000 </v>
   <v>       0.45000000       0.10000000       0.00000000 </v>
   <v>       0.12500000       0.12500000       0.00000000 </v>
   <v>       0.15000000       0.12500000       0.00000000 </v>
   <v>       0.17500000       0.12500000       0.00000000 </v>
   <v>       0.20000000       0.12500000       0.00000000 </v>
   <v>       0.22500000       0.12500000       0.00000000 </v>
   <v>       0.25000000       0.12500000       0.00000000 </v>
   <v>       0.27500000       0.12500000       0.00000000 </v>
   <v>       0.30000000       0.12500000       0.00000000 </v>
   <v>       0.32500000       0.12500000       0.00000000 </v>
   <v>       0.35000000       0.12500000       0.00000000 </v>
   <v>       0.37500000       0.12500000       0.00000000 </v>
   <v>       0.40000000       0.12500000       0.00000000 </v>
   <v>       0.42500000       0.12500000       0.00000000 </v>
   <v>       0.15000000       0.15000000       0.00000000 </v>
   <v>       0.17500000       0.15000000       0.00000000 </v>
   <v>       0.20000000       0.15000000       0.00000000 </v>
   <v>       0.22500000       0.15000000       0.00000000 </v>
   <v>       0.25000000       0.15000000       0.00000000 </v>
   <v>       0.27500000       0.15000000       0.00000000 </v>
   <v>       0.30000000       0.15000000       0.00000000 </v>
   <v>       0.32500000       0.15000000       0.00000000 </v>
   <v>       0.35000000       0.15000000       0.00000000 </v>
   <v>       0.37500000       0.15000000       0.00000000 </v>
   <v>       0.40000000       0.15000000       0.00000000 </v>
   <v>       0.42500000       0.15000000       0.00000000 </v>
   <v>       0.17500000       0.17500000       0.00000000 </v>
   <v>       0.20000000       0.17500000       0.00000000 </v>
   <v>       0.22500000       0.17500000       0.00000000 </v>
   <v>       0.25000000       0.17500000       0.00000000 </v>
   <v>       0.27500000       0.17500000       0.00000000 </v>
   <v>       0.30000000       0.17500000       0.00000000 </v>
   <v>       0.32500000       0.17500000       0.00000000 </v>
   <v>       0.35000000       0.17500000       0.00000000 </v>
   <v>       0.37500000       0.17500000       0.00000000 </v>
   <v>       0.40000000       0.17500000       0.00000000 </v>
   <v>       0.20000000       0.20000000       0.00000000 </v>
   <v>       0.22500000       0.20000000       0.00000000 </v>
   <v>       0.25000000       0.20000000       0.00000000 </v>
   <v>       0.27500000       0.20000000       0.00000000 </v>
   <v>       0.30000000       0.20000000       0.00000000 </v>
   <v>       0.32500000       0.20000000       0.00000000 </v>
   <v>       0.35000000       0.20000000       0.00000000 </v>
   <v>       0.37500000       0.20000000       0.00000000 </v>
   <v>       0.40000000       0.20000000       0.00000000 </v>
   <v>       0.22500000       0.22500000       0.00000000 </v>
   <v>       0.25000000       0.22500000       0.00000000 </v>
   <v>       0.27500000       0.22500000       0.00000000 </v>
   <v>       0.30000000       0.22500000       0.00000000 </v>
   <v>       0.32500000       0.22500000       0.00000000 </v>
   <v>       0.35000000       0.22500000       0.00000000 </v>
   <v>       0.37500000       0.22500000       0.00000000 </v>
   <v>       0.25000000       0.25000000       0.00000000 </v>
   <v>       0.27500000       0.25000000       0.00000000 </v>
   <v>       0.30000000       0.25000000       0.00000000 </v>
   <v>       0.32500000       0.25000000       0.00000000 </v>
   <v>       0.35000000       0.25000000       0.00000000 </v>
   <v>       0.37500000       0.25000000       0.00000000 </v>
   <v>       0.27500000       0.27500000       0.00000000 </v>
   <v>       0.30000000       0.27500000       0.00000000 </v>
   <v>       0.32500000       0.27500000       0.00000000 </v>
   <v>       0.35000000       0.27500000       0.00000000 </v>
   <v>       0.30000000       0.30000000       0.00000000 </v>
   <v>       0.32500000       0.30000000       0.00000000 </v>
   <v>       0.35000000       0.30000000       0.00000000 </v>
   <v>       0.32500000       0.32500000       0.00000000 </v>
  </varray>
  <varray name="weights" >
   <v>       0.00062500 </v>
   <v>       0.00375000 </v>
   <v>       0.00375000 </v>
   <v>       0.00375000 </v>
   <v>       0.00375000 </v>
   <v>       0.00375000 </v>
   <v>       0.00375000 </v>
   <v>       0.00375000 </v>
   <v>       0.00375000 </v>
   <v>       0.00375000 </v>
   <v>       0.00375000 </v>
   <v>       0.00375000 </v>
   <v>       0.00375000 </v>
   <v>       0.00375000 </v>
   <v>       0.00375000 </v>
   <v>       0.00375000 </v>
   <v>       0.00375000 </v>
   <v>       0.00375000 </v>
   <v>       0.00375000 </v>
   <v>       0.00375000 </v>
   <v>       0.00187500 </v>
   <v>       0.00375000 </v>
   <v>       0.00750000 </v>
   <v>       0.00750000 </v>
   <v>       0.00750000 </v>
   <v>       0.00750000 </v>
   <v>       0.00750000 </v>
   <v>       0.00750000 </v>
   <v>       0.00750000 </v>
   <v>       0.00750000 </v>
   <v>       0.00750000 </v>
   <v>       0.00750000 </v>
   <v>       0.00750000 </v>
   <v>       0.00750000 </v>
   <v>       0.00750000 </v>
   <v>       0.00750000 </v>
   <v>       0.00750000 </v>
   <v>       0.00750000 </v>
   <v>       0.00750000 </v>
   <v>       0.00750000 </v>
   <v>       0.00375000 </v>
   <v>       0.00750000 </v>
   <v>       0.00750000 </v>
   <v>       0.00750000 </v>
   <v>       0.00750000 </v>
   <v>       0.00750000 </v>
   <v>       0.00750000 </v>
   <v>       0.00750000 </v>
   <v>       0.00750000 </v>
   <v>       0.00750000 </v>
   <v>       0.00750000 </v>
   <v>       0.00750000 </v>
   <v>       0.00750000 </v>
   <v>       0.00750000 </v>
   <v>       0.00750000 </v>
   <v>       0.00750000 </v>
   <v>       0.00750000 </v>
   <v>       0.00375000 </v>
   <v>       0.00375000 </v>
   <v>       0.00750000 </v>
   <v>       0.00750000 </v>
   <v>       0.00750000 </v>
   <v>       0.00750000 </v>
   <v>       0.00750000 </v>
   <v>       0.00750000 </v>
   <v>       0.00750000 </v>
   <v>       0.00750000 </v>
   <v>       0.00750000 </v>
   <v>       0.00750000 </v>
   <v>       0.00750000 </v>
   <v>       0.00750000 </v>
   <v>       0.00750000 </v>
   <v>       0.00750000 </v>
   <v>       0.00750000 </v>
   <v>       0.00375000 </v>
   <v>       0.00750000 </v>
   <v>       0.00750000 </v>
   <v>       0.00750000 </v>
   <v>       0.00750000 </v>
   <v>       0.00750000 </v>
   <v>       0.00750000 </v>
   <v>       0.00750000 </v>
   <v>       0.00750000 </v>
   <v>       0.00750000 </v>
   <v>       0.00750000 </v>
   <v>       0.00750000 </v>
   <v>       0.00750000 </v>
   <v>       0.00750000 </v>
   <v>       0.00375000 </v>
   <v>       0.00375000 </v>
   <v>       0.00750000 </v>
   <v>       0.00750000 </v>
   <v>       0.00750000 </v>
   <v>       0.00750000 </v>
   <v>       0.00750000 </v>
   <v>       0.00750000 </v>
   <v>       0.00750000 </v>
   <v>       0.00750000 </v>
   <v>       0.00750000 </v>
   <v>       0.00750000 </v>
   <v>       0.00750000 </v>
   <v>       0.00750000 </v>
   <v>       0.00375000 </v>
   <v>       0.00750000 </v>
   <v>       0.00750000 </v>
   <v>       0.00750000 </v>
   <v>       0.00750000 </v>
   <v>       0.00750000 </v>
   <v>       0.00750000 </v>
   <v>       0.00750000 </v>
   <v>       0.00750000 </v>
   <v>       0.00750000 </v>
   <v>       0.00750000 </v>
   <v>       0.00375000 </v>
   <v>       0.00375000 </v>
   <v>       0.00750000 </v>
   <v>       0.00750000 </v>
   <v>       0.00750000 </v>
   <v>       0.00750000 </v>
   <v>       0.00750000 </v>
   <v>       0.00750000 </v>
   <v>       0.00750000 </v>
   <v>       0.00750000 </v>
   <v>       0.00750000 </v>
   <v>       0.00375000 </v>
   <v>       0.00750000 </v>
   <v>       0.00750000 </v>
   <v>       0.00750000 </v>
   <v>       0.00750000 </v>
   <v>       0.00750000 </v>
   <v>       0.00750000 </v>
   <v>       0.00750000 </v>
   <v>       0.00375000 </v>
   <v>       0.00375000 </v>
   <v>       0.00750000 </v>
   <v>       0.00750000 </v>
   <v>       0.00750000 </v>
   <v>       0.00750000 </v>
   <v>       0.00750000 </v>
   <v>       0.00750000 </v>
   <v>       0.00375000 </v>
   <v>       0.00750000 </v>
   <v>       0.00750000 </v>
   <v>       0.00750000 </v>
   <v>       0.00750000 </v>
   <v>       0.00375000 </v>
   <v>       0.00375000 </v>
   <v>       0.00750000 </v>
   <v>       0.00750000 </v>
   <v>       0.00750000 </v>
   <v>       0.00375000 </v>
   <v>       0.00750000 </v>
   <v>       0.00375000 </v>
   <v>       0.00375000 </v>
  </varray>
 </kpoints>
 <parameters>
  <separator name="general" >
   <i type="string" name="SYSTEM">unknown system</i>
   <i type="logical" name="LCOMPAT"> F  </i>
  </separator>
  <separator name="electronic" >
   <i type="string" name="PREC">accura</i>
   <i name="ENMAX">    473.51475000</i>
   <i name="ENAUG">    904.64000000</i>
   <i name="EDIFF">      0.00000100</i>
   <i type="int" name="IALGO">    38</i>
   <i type="int" name="IWAVPR">    10</i>
   <i type="int" name="NBANDS">    16</i>
   <i type="int" name="NBANDSLOW">    -1</i>
   <i type="int" name="NBANDSHIGH">    -1</i>
   <i name="NELECT">     10.00000000</i>
   <i type="int" name="TURBO">     0</i>
   <i type="int" name="IRESTART">     0</i>
   <i type="int" name="NREBOOT">     0</i>
   <i type="int" name="NMIN">     0</i>
   <i name="EREF">      0.00000000</i>
   <separator name="electronic smearing" >
    <i type="int" name="ISMEAR">     0</i>
    <i name="SIGMA">      0.01000000</i>
    <i name="KSPACING">      0.50000000</i>
    <i type="logical" name="KGAMMA"> T  </i>
    <i type="logical" name="KBLOWUP"> T  </i>
   </separator>
   <separator name="electronic projectors" >
    <i type="logical" name="LREAL"> F  </i>
    <v name="ROPT">      0.00000000</v>
    <i type="int" name="LMAXPAW">  -100</i>
    <i type="int" name="LMAXMIX">     2</i>
    <i type="logical" name="NLSPLINE"> F  </i>
   </separator>
   <separator name="electronic startup" >
    <i type="int" name="ISTART">     0</i>
    <i type="int" name="ICHARG">     2</i>
    <i type="int" name="INIWAV">     1</i>
   </separator>
   <separator name="electronic spin" >
    <i type="int" name="ISPIN">     1</i>
    <i type="logical" name="LNONCOLLINEAR"> F  </i>
    <v name="MAGMOM">      1.00000000      1.00000000</v>
    <i name="NUPDOWN">     -1.00000000</i>
    <i type="logical" name="LSORBIT"> F  </i>
    <v name="SAXIS">      0.00000000      0.00000000      1.00000000</v>
    <i type="logical" name="LSPIRAL"> F  </i>
    <v name="QSPIRAL">      0.00000000      0.00000000      0.00000000</v>
    <i type="logical" name="LZEROZ"> F  </i>
   </separator>
   <separator name="electronic exchange-correlation" >
    <i type="logical" name="LASPH"> T  </i>
    <i type="logical" name="LMETAGGA"> F  </i>
   </separator>
   <separator name="electronic convergence" >
    <i type="int" name="NELM">   200</i>
    <i type="int" name="NELMDL">   -12</i>
    <i type="int" name="NELMIN">     6</i>
    <i name="ENINI">    473.51475000</i>
    <separator name="electronic convergence detail" >
     <i type="logical" name="LDIAG"> T  </i>
     <i type="logical" name="LSUBROT"> F  </i>
     <i name="WEIMIN">      0.00000000</i>
     <i name="EBREAK">      0.00000002</i>
     <i name="DEPER">      0.30000000</i>
     <i type="int" name="NRMM">     4</i>
     <i name="TIME">      0.40000000</i>
    </separator>
   </separator>
   <separator name="electronic mixer" >
    <i name="AMIX">      0.10000000</i>
    <i name="BMIX">      0.00010000</i>
    <i name="AMIN">      0.10000000</i>
    <i name="AMIX_MAG">      0.40000000</i>
    <i name="BMIX_MAG">      0.00010000</i>
    <separator name="electronic mixer details" >
     <i type="int" name="IMIX">     4</i>
     <i type="logical" name="MIXFIRST"> F  </i>
     <i type="int" name="MAXMIX">   -45</i>
     <i name="WC">    100.00000000</i>
     <i type="int" name="INIMIX">     1</i>
     <i type="int" name="MIXPRE">     1</i>
     <i type="int" name="MREMOVE">     5</i>
    </separator>
   </separator>
   <separator name="electronic dipolcorrection" >
    <i type="logical" name="LDIPOL"> F  </i>
    <i type="logical" name="LMONO"> F  </i>
    <i type="int" name="IDIPOL">     0</i>
    <i name="EPSILON">      1.00000000</i>
    <v name="DIPOL">   -100.00000000   -100.00000000   -100.00000000</v>
    <i name="EFIELD">      0.00000000</i>
   </separator>
  </separator>
  <separator name="grids" >
   <i type="int" name="NGX">    16</i>
   <i type="int" name="NGY">    16</i>
   <i type="int" name="NGZ">   120</i>
   <i type="int" name="NGXF">    32</i>
   <i type="int" name="NGYF">    32</i>
   <i type="int" name="NGZF">   240</i>
   <i type="logical" name="ADDGRID"> T  </i>
  </separator>
  <separator name="ionic" >
   <i type="int" name="NSW">     0</i>
   <i type="int" name="IBRION">    -1</i>
   <i type="int" name="MDALGO">     0</i>
   <i type="int" name="ISIF">    -1</i>
   <i name="PSTRESS">      0.00000000</i>
   <i name="EDIFFG">     -0.01000000</i>
   <i type="int" name="NFREE">     1</i>
   <i name="POTIM">      0.50000000</i>
   <i name="SMASS">     -3.00000000</i>
   <i name="SCALEE">      1.00000000</i>
  </separator>
  <separator name="ionic md" >
   <i name="TEBEG">      0.00010000</i>
   <i name="TEEND">      0.00010000</i>
   <i type="int" name="NBLOCK">     1</i>
   <i type="int" name="KBLOCK">     1</i>
   <i type="int" name="NPACO">   256</i>
   <i name="APACO">     10.00000000</i>
  </separator>
  <separator name="symmetry" >
   <i type="int" name="ISYM">     2</i>
   <i name="SYMPREC">      0.00001000</i>
  </separator>
  <separator name="dos" >
   <i type="int" name="LORBIT">    10</i>
   <v name="RWIGS">     -1.00000000</v>
   <i type="int" name="NEDOS">  6001</i>
   <i name="EMIN">     10.00000000</i>
   <i name="EMAX">    -10.00000000</i>
   <i name="EFERMI">      0.00000000</i>
  </separator>
  <separator name="writing" >
   <i type="int" name="NWRITE">     1</i>
   <i type="logical" name="LWAVE"> F  </i>
   <i type="logical" name="LDOWNSAMPLE"> F  </i>
   <i type="logical" name="LCHARG"> F  </i>
   <i type="logical" name="LPARD"> F  </i>
   <i type="logical" name="LVTOT"> F  </i>
   <i type="logical" name="LVHAR"> F  </i>
   <i type="logical" name="LELF"> F  </i>
   <i type="logical" name="LOPTICS"> F  </i>
   <v name="STM">      0.00000000      0.00000000      0.00000000      0.00000000      0.00000000      0.00000000      0.00000000</v>
  </separator>
  <separator name="performance" >
   <i type="int" name="NPAR">     4</i>
   <i type="int" name="NSIM">     4</i>
   <i type="int" name="NBLK">    -1</i>
   <i type="logical" name="LPLANE"> T  </i>
   <i type="logical" name="LSCALAPACK"> T  </i>
   <i type="logical" name="LSCAAWARE"> F  </i>
   <i type="logical" name="LSCALU"> F  </i>
   <i type="logical" name="LASYNC"> F  </i>
   <i type="logical" name="LORBITALREAL"> F  </i>
  </separator>
  <separator name="miscellaneous" >
   <i type="int" name="IDIOT">     3</i>
   <i type="int" name="PHON_NSTRUCT">    -1</i>
   <i type="logical" name="LMUSIC"> F  </i>
   <v name="POMASS">     14.00100000</v>
   <v name="DARWINR">      0.00000000</v>
   <v name="DARWINV">      1.00000000</v>
   <i type="logical" name="LCORR"> T  </i>
  </separator>
  <i type="logical" name="GGA_COMPAT"> T  </i>
  <i type="logical" name="LBERRY"> F  </i>
  <i type="int" name="ICORELEVEL">     0</i>
  <i type="logical" name="LDAU"> F  </i>
  <i type="int" name="I_CONSTRAINED_M">     0</i>
  <separator name="electronic exchange-correlation" >
   <i type="string" name="GGA">--</i>
   <i type="int" name="VOSKOWN">     0</i>
   <i type="logical" name="LHFCALC"> F  </i>
   <i type="string" name="PRECFOCK"></i>
   <i type="logical" name="LSYMGRAD"> F  </i>
   <i type="logical" name="LHFONE"> F  </i>
   <i type="logical" name="LRHFCALC"> F  </i>
   <i type="logical" name="LTHOMAS"> F  </i>
   <i type="logical" name="LMODELHF"> F  </i>
   <i type="logical" name="LFOCKACE"> F  </i>
   <i name="ENCUT4O">     -1.00000000</i>
   <i type="int" name="EXXOEP">     0</i>
   <i type="int" name="FOURORBIT">     0</i>
   <i name="AEXX">      0.00000000</i>
   <i name="HFALPHA">      0.00000000</i>
   <i name="MCALPHA">      0.00000000</i>
   <i name="ALDAX">      1.00000000</i>
   <i name="AGGAX">      1.00000000</i>
   <i name="ALDAC">      1.00000000</i>
   <i name="AGGAC">      1.00000000</i>
   <i type="int" name="NKREDX">     1</i>
   <i type="int" name="NKREDY">     1</i>
   <i type="int" name="NKREDZ">     1</i>
   <i type="logical" name="SHIFTRED"> F  </i>
   <i type="logical" name="ODDONLY"> F  </i>
   <i type="logical" name="EVENONLY"> F  </i>
   <i type="int" name="LMAXFOCK">     0</i>
   <i type="int" name="NMAXFOCKAE">     0</i>
   <i type="logical" name="LFOCKAEDFT"> F  </i>
   <i name="HFSCREEN">      0.00000000</i>
   <i name="HFSCREENC">      0.00000000</i>
   <i type="int" name="NBANDSGWLOW">     0</i>
  </separator>
  <separator name="vdW DFT" >
   <i type="logical" name="LUSE_VDW"> F  </i>
   <i type="int" name="IVDW_NL">     1</i>
   <i type="logical" name="LSPIN_VDW"> F  </i>
   <i name="Zab_VDW">     -0.84910000</i>
   <i name="PARAM1">      0.12340000</i>
   <i name="PARAM2">      1.00000000</i>
   <i name="PARAM3">      0.00000000</i>
  </separator>
  <separator name="model GW" >
   <i type="int" name="MODEL_GW">     0</i>
   <i name="MODEL_EPS0">     21.88504586</i>
   <i name="MODEL_ALPHA">      1.00000000</i>
  </separator>
  <separator name="linear response parameters" >
   <i type="logical" name="LEPSILON"> F  </i>
   <i type="logical" name="LRPA"> F  </i>
   <i type="logical" name="LNABLA"> F  </i>
   <i type="logical" name="LVEL"> F  </i>
   <i name="CSHIFT">      0.10000000</i>
   <i name="OMEGAMAX">     -1.00000000</i>
   <i name="DEG_THRESHOLD">      0.00200000</i>
   <i name="RTIME">     -0.10000000</i>
   <i name="WPLASMAI">      0.00000000</i>
   <v name="DFIELD">      0.00000000      0.00000000      0.00000000</v>
   <v name="WPLASMA">      0.00000000      0.00000000      0.00000000      0.00000000      0.00000000      0.00000000      0.00000000      0.00000000      0.00000000</v>
  </separator>
  <separator name="orbital magnetization" >
   <i type="logical" name="NUCIND"> F  </i>
   <v name="MAGPOS">      0.00000000      0.00000000      0.00000000</v>
   <i type="logical" name="LNICSALL"> T  </i>
   <i type="logical" name="ORBITALMAG"> F  </i>
   <i type="logical" name="LMAGBLOCH"> F  </i>
   <i type="logical" name="LCHIMAG"> F  </i>
   <i type="logical" name="LGAUGE"> T  </i>
   <i type="int" name="MAGATOM">     0</i>
   <v name="MAGDIPOL">      0.00000000      0.00000000      0.00000000</v>
   <v name="AVECCONST">      0.00000000      0.00000000      0.00000000</v>
  </separator>
  <separator name="response functions" >
   <i type="logical" name="LALL_IN_ONE"> F  </i>
   <i type="int" name="IALL_IN_ONE">    -1</i>
   <i type="int" name="NBANDS_WAVE">    -1</i>
   <i type="logical" name="LFINITE_TEMPERATURE"> F  </i>
   <i type="logical" name="LADDER"> F  </i>
   <i type="logical" name="LRPAFORCE"> F  </i>
   <i type="logical" name="LFXC"> F  </i>
   <i type="logical" name="LHARTREE"> T  </i>
   <i type="int" name="IBSE">     0</i>
   <v type="int" name="KPOINT">    -1     0     0     0</v>
   <i type="logical" name="LTCTC"> F  </i>
   <i type="logical" name="LTCTE"> F  </i>
   <i type="logical" name="LTETE"> F  </i>
   <i type="logical" name="LTRIPLET"> F  </i>
   <i type="logical" name="LFXCEPS"> F  </i>
   <i type="logical" name="LFXHEG"> F  </i>
   <i type="int" name="NATURALO">     2</i>
   <i type="logical" name="LHOLEGF"> F  </i>
   <i type="logical" name="L2ORDER"> F  </i>
   <i type="logical" name="LDMP1"> F  </i>
   <i type="logical" name="LMP2LT"> F  </i>
   <i type="logical" name="LSMP2LT"> F  </i>
   <i type="logical" name="LGWLF"> F  </i>
   <i name="ENCUTGW">     -1.60000002</i>
   <i name="ENCUTGWSOFT">     -1.60000002</i>
   <i name="ENCUTLF">     -1.00000000</i>
   <i type="logical" name="LESF_SPLINES"> F  </i>
   <i type="int" name="LMAXMP2">    -1</i>
   <i name="SCISSOR">      0.00000000</i>
   <i type="int" name="NOMEGA">     0</i>
   <i type="int" name="NOMEGAR">     0</i>
   <i type="int" name="NBANDSGW">    -1</i>
   <i type="int" name="NBANDSO">    -1</i>
   <i type="int" name="NBANDSV">    -1</i>
   <i type="int" name="NELMGW">     1</i>
   <i type="int" name="NELMHF">     1</i>
   <i type="int" name="DIM">     3</i>
   <i type="int" name="IESPILON">     4</i>
   <i type="int" name="ANTIRES">     0</i>
   <i name="OMEGAMAX">    -30.00000000</i>
   <i name="OMEGAMIN">    -30.00000000</i>
   <i name="OMEGATL">   -200.00000000</i>
   <i type="int" name="OMEGAGRID">     0</i>
   <i name="CSHIFT">     -0.10000000</i>
   <i type="logical" name="LSELFENERGY"> F  </i>
   <i type="logical" name="LSPECTRAL"> F  </i>
   <i type="logical" name="LSPECTRALGW"> F  </i>
   <i type="logical" name="LSINGLES"> F  </i>
   <i type="logical" name="LFERMIGW"> F  </i>
   <i type="logical" name="ODDONLYGW"> F  </i>
   <i type="logical" name="EVENONLYGW"> F  </i>
   <i type="int" name="NKREDLFX">     1</i>
   <i type="int" name="NKREDLFY">     1</i>
   <i type="int" name="NKREDLFZ">     1</i>
   <i type="int" name="MAXMEM">  2800</i>
   <i type="int" name="TELESCOPE">     0</i>
   <i type="int" name="NTAUPAR">    -1</i>
   <i type="int" name="NOMEGAPAR">    -1</i>
   <i name="DAMP_NEWTON">      0.80000001</i>
   <i name="LAMBDA">      1.00000000</i>
  </separator>
  <separator name="External order field" >
   <i name="OFIELD_KAPPA">      0.00000000</i>
   <v name="OFIELD_K">      0.00000000      0.00000000      0.00000000</v>
   <i name="OFIELD_Q6_NEAR">      0.00000000</i>
   <i name="OFIELD_Q6_FAR">      0.00000000</i>
   <i name="OFIELD_A">      0.00000000</i>
  </separator>
  <separator name="optional k-points parameters" >
   <i type="int" name="KPOINTS_OPT_MODE">     1</i>
   <i type="logical" name="LKPOINTS_OPT"> F  </i>
  </separator>
 </parameters>
 <atominfo>
  <atoms>       2 </atoms>
  <types>       1 </types>
  <array name="atoms" >
   <dimension dim="1">ion</dimension>
   <field type="string">element</field>
   <field type="int">atomtype</field>
   <set>
    <rc><c>N </c><c>   1</c></rc>
    <rc><c>N </c><c>   1</c></rc>
   </set>
  </array>
  <array name="atomtypes" >
   <dimension dim="1">type</dimension>
   <field type="int">atomspertype</field>
   <field type="string">element</field>
   <field>mass</field>
   <field>valence</field>
   <field type="string">pseudopotential</field>
   <set>
    <rc><c>   2</c><c>N </c><c>     14.00100000</c><c>      5.00000000</c><c>  PAW_PBE N_GW 10Apr2007                </c></rc>
   </set>
  </array>
 </atominfo>
 <structure name="initialpos" >
  <crystal>
   <varray name="basis" >
    <v>       2.29449859       0.00000000       0.00000000 </v>
    <v>      -1.14724930       1.98709407       0.00000000 </v>
    <v>       0.00000000       0.00000000      16.00000000 </v>
   </varray>
   <i name="volume">     72.95015287 </i>
   <varray name="rec_basis" >
    <v>       0.43582507       0.25162372       0.00000000 </v>
    <v>       0.00000000       0.50324744       0.00000000 </v>
    <v>       0.00000000       0.00000000       0.06250000 </v>
   </varray>
  </crystal>
  <varray name="positions" >
   <v>       0.66666667       0.33333333       0.47822185 </v>
   <v>       0.33333333       0.66666667       0.52177815 </v>
  </varray>
 </structure>
 <calculation>
  <scstep>
   <time name="dav">    1.41    1.42</time>
   <time name="total">    1.54    1.54</time>
   <energy>
    <i name="alphaZ">      5.96913924 </i>
    <i name="ewald">   1610.65328944 </i>
    <i name="hartreedc">  -2055.25523171 </i>
    <i name="XCdc">     40.24275613 </i>
    <i name="pawpsdc">    409.78799272 </i>
    <i name="pawaedc">   -412.24743296 </i>
    <i name="eentropy">     -0.00008485 </i>
    <i name="bandstr">    -56.46589681 </i>
    <i name="atom">    529.06779047 </i>
    <i name="e_fr_energy">     71.75232166 </i>
    <i name="e_wo_entrp">     71.75240651 </i>
    <i name="e_0_energy">     71.75236409 </i>
   </energy>
  </scstep>
  <scstep>
   <time name="dav">    1.72    1.72</time>
   <time name="total">    1.72    1.73</time>
   <energy>
    <i name="e_fr_energy">     -9.32944423 </i>
    <i name="e_wo_entrp">     -9.32944423 </i>
    <i name="e_0_energy">     -9.32944423 </i>
   </energy>
  </scstep>
  <scstep>
   <time name="dav">    1.44    1.44</time>
   <time name="total">    1.45    1.45</time>
   <energy>
    <i name="e_fr_energy">    -14.01051885 </i>
    <i name="e_wo_entrp">    -14.01051885 </i>
    <i name="e_0_energy">    -14.01051885 </i>
   </energy>
  </scstep>
  <scstep>
   <time name="dav">    1.55    1.55</time>
   <time name="total">    1.55    1.56</time>
   <energy>
    <i name="e_fr_energy">    -14.04416369 </i>
    <i name="e_wo_entrp">    -14.04416369 </i>
    <i name="e_0_energy">    -14.04416369 </i>
   </energy>
  </scstep>
  <scstep>
   <time name="dav">    1.51    1.51</time>
   <time name="total">    1.51    1.51</time>
   <energy>
    <i name="e_fr_energy">    -14.04453869 </i>
    <i name="e_wo_entrp">    -14.04453869 </i>
    <i name="e_0_energy">    -14.04453869 </i>
   </energy>
  </scstep>
  <scstep>
   <time name="dav">    1.60    1.61</time>
   <time name="total">    1.61    1.61</time>
   <energy>
    <i name="e_fr_energy">    -14.04454535 </i>
    <i name="e_wo_entrp">    -14.04454535 </i>
    <i name="e_0_energy">    -14.04454535 </i>
   </energy>
  </scstep>
  <scstep>
   <time name="dav">    1.64    1.64</time>
   <time name="total">    1.64    1.64</time>
   <energy>
    <i name="e_fr_energy">    -14.04454554 </i>
    <i name="e_wo_entrp">    -14.04454554 </i>
    <i name="e_0_energy">    -14.04454554 </i>
   </energy>
  </scstep>
  <scstep>
   <time name="dav">    1.08    1.08</time>
   <time name="total">    1.08    1.08</time>
   <energy>
    <i name="e_fr_energy">    -14.04454555 </i>
    <i name="e_wo_entrp">    -14.04454555 </i>
    <i name="e_0_energy">    -14.04454555 </i>
   </energy>
  </scstep>
  <scstep>
   <time name="dav">    0.70    0.70</time>
   <time name="total">    0.70    0.70</time>
   <energy>
    <i name="e_fr_energy">    -14.04454555 </i>
    <i name="e_wo_entrp">    -14.04454555 </i>
    <i name="e_0_energy">    -14.04454555 </i>
   </energy>
  </scstep>
  <scstep>
   <time name="dav">    0.66    0.66</time>
   <time name="total">    0.66    0.66</time>
   <energy>
    <i name="e_fr_energy">    -14.04454555 </i>
    <i name="e_wo_entrp">    -14.04454555 </i>
    <i name="e_0_energy">    -14.04454555 </i>
   </energy>
  </scstep>
  <scstep>
   <time name="dav">    0.60    0.60</time>
   <time name="total">    0.61    0.61</time>
   <energy>
    <i name="e_fr_energy">    -14.04454555 </i>
    <i name="e_wo_entrp">    -14.04454555 </i>
    <i name="e_0_energy">    -14.04454555 </i>
   </energy>
  </scstep>
  <scstep>
   <time name="dav">    0.57    0.58</time>
   <time name="total">    0.62    0.62</time>
   <energy>
    <i name="e_fr_energy">    -14.04454555 </i>
    <i name="e_wo_entrp">    -14.04454555 </i>
    <i name="e_0_energy">    -14.04454555 </i>
   </energy>
  </scstep>
  <scstep>
   <time name="dav">    0.95    0.95</time>
   <time name="total">    1.07    1.07</time>
   <energy>
    <i name="e_fr_energy">    -13.85771523 </i>
    <i name="e_wo_entrp">    -13.85771523 </i>
    <i name="e_0_energy">    -13.85771523 </i>
   </energy>
  </scstep>
  <scstep>
   <time name="dav">    1.03    1.03</time>
   <time name="total">    1.16    1.16</time>
   <energy>
    <i name="e_fr_energy">    -13.41677572 </i>
    <i name="e_wo_entrp">    -13.41677572 </i>
    <i name="e_0_energy">    -13.41677572 </i>
   </energy>
  </scstep>
  <scstep>
   <time name="dav">    0.85    0.85</time>
   <time name="total">    0.97    0.97</time>
   <energy>
    <i name="e_fr_energy">    -13.41746484 </i>
    <i name="e_wo_entrp">    -13.41746484 </i>
    <i name="e_0_energy">    -13.41746484 </i>
   </energy>
  </scstep>
  <scstep>
   <time name="dav">    0.93    0.93</time>
   <time name="total">    1.06    1.06</time>
   <energy>
    <i name="e_fr_energy">    -13.42021075 </i>
    <i name="e_wo_entrp">    -13.42021075 </i>
    <i name="e_0_energy">    -13.42021075 </i>
   </energy>
  </scstep>
  <scstep>
   <time name="dav">    1.00    1.00</time>
   <time name="total">    1.12    1.13</time>
   <energy>
    <i name="e_fr_energy">    -13.41990096 </i>
    <i name="e_wo_entrp">    -13.41990096 </i>
    <i name="e_0_energy">    -13.41990096 </i>
   </energy>
  </scstep>
  <scstep>
   <time name="dav">    1.09    1.09</time>
   <time name="total">    1.21    1.22</time>
   <energy>
    <i name="e_fr_energy">    -13.41991658 </i>
    <i name="e_wo_entrp">    -13.41991658 </i>
    <i name="e_0_energy">    -13.41991658 </i>
   </energy>
  </scstep>
  <scstep>
   <time name="dav">    1.02    1.02</time>
   <time name="total">    1.15    1.15</time>
   <energy>
    <i name="e_fr_energy">    -13.41992246 </i>
    <i name="e_wo_entrp">    -13.41992246 </i>
    <i name="e_0_energy">    -13.41992246 </i>
   </energy>
  </scstep>
  <scstep>
   <time name="dav">    0.85    0.93</time>
   <time name="total">    0.98    1.06</time>
   <energy>
    <i name="e_fr_energy">    -13.41992313 </i>
    <i name="e_wo_entrp">    -13.41992313 </i>
    <i name="e_0_energy">    -13.41992313 </i>
   </energy>
  </scstep>
  <scstep>
   <time name="dav">    0.85    0.85</time>
   <time name="total">    0.97    0.97</time>
   <energy>
    <i name="e_fr_energy">    -13.41992178 </i>
    <i name="e_wo_entrp">    -13.41992178 </i>
    <i name="e_0_energy">    -13.41992178 </i>
   </energy>
  </scstep>
  <scstep>
   <time name="dav">    0.83    0.83</time>
   <time name="total">    0.91    0.91</time>
   <energy>
    <i name="alphaZ">      5.96913924 </i>
    <i name="ewald">   1610.65328944 </i>
    <i name="hartreedc">  -2051.53484736 </i>
    <i name="XCdc">     40.83881787 </i>
    <i name="pawpsdc">    530.72699681 </i>
    <i name="pawaedc">   -533.13956845 </i>
    <i name="eentropy">     -0.00000000 </i>
    <i name="bandstr">   -146.00153982 </i>
    <i name="atom">    529.06779047 </i>
    <i name="e_fr_energy">    -13.41992178 </i>
    <i name="e_wo_entrp">    -13.41992178 </i>
    <i name="e_0_energy">    -13.41992178 </i>
   </energy>
  </scstep>
  <structure>
   <crystal>
    <varray name="basis" >
     <v>       2.29449859       0.00000000       0.00000000 </v>
     <v>      -1.14724930       1.98709407       0.00000000 </v>
     <v>       0.00000000       0.00000000      16.00000000 </v>
    </varray>
    <i name="volume">     72.95015287 </i>
    <varray name="rec_basis" >
     <v>       0.43582507       0.25162372       0.00000000 </v>
     <v>       0.00000000       0.50324744       0.00000000 </v>
     <v>       0.00000000       0.00000000       0.06250000 </v>
    </varray>
   </crystal>
   <varray name="positions" >
    <v>       0.66666667       0.33333333       0.47822185 </v>
    <v>       0.33333333       0.66666667       0.52177815 </v>
   </varray>
  </structure>
  <varray name="forces" >
   <v>       0.00000000       0.00000000       0.00000000 </v>
   <v>       0.00000000       0.00000000       0.00000000 </v>
  </varray>
  <varray name="stress" >
   <v>       0.00000000       0.00000000       0.00000000 </v>
   <v>       0.00000000       0.00000000       0.00000000 </v>
   <v>       0.00000000       0.00000000       0.00000000 </v>
  </varray>
  <energy>
   <i name="e_fr_energy">    -13.41992178 </i>
   <i name="e_wo_entrp">    -13.41992178 </i>
   <i name="e_0_energy">    -13.41992178 </i>
  </energy>
  <time name="totalsc">   25.32   25.54</time>
  <eigenvalues>
   <array>
    <dimension dim="1">band</dimension>
    <dimension dim="2">kpoint</dimension>
    <dimension dim="3">spin</dimension>
    <field>eigene</field>
    <field>occ</field>
    <set>
     <set comment="spin 1">
      <set comment="kpoint 1">
       <r>  -30.0391    1.0000 </r>
       <r>  -14.5034    1.0000 </r>
       <r>   -8.3949    1.0000 </r>
       <r>   -8.3949    1.0000 </r>
       <r>   -5.6326    1.0000 </r>
       <r>   -0.0373    0.0000 </r>
       <r>   -0.0373    0.0000 </r>
       <r>    0.3128    0.0000 </r>
       <r>    2.0781    0.0000 </r>
       <r>    2.2323    0.0000 </r>
       <r>    3.3123    0.0000 </r>
       <r>    4.3011    0.0000 </r>
       <r>    6.1186    0.0000 </r>
       <r>    7.7310    0.0000 </r>
       <r>   10.1306    0.0000 </r>
       <r>   12.5199    0.0000 </r>
      </set>
      <set comment="kpoint 2">
       <r>  -30.0211    1.0000 </r>
       <r>  -14.4868    1.0000 </r>
       <r>   -8.4989    1.0000 </r>
       <r>   -8.4274    1.0000 </r>
       <r>   -5.6237    1.0000 </r>
       <r>   -0.0434    0.0000 </r>
       <r>   -0.0017    0.0000 </r>
       <r>    0.3779    0.0000 </r>
       <r>    2.1014    0.0000 </r>
       <r>    2.2551    0.0000 </r>
       <r>    3.3346    0.0000 </r>
       <r>    4.3243    0.0000 </r>
       <r>    6.1390    0.0000 </r>
       <r>    7.7535    0.0000 </r>
       <r>   10.1483    0.0000 </r>
       <r>   12.5411    0.0000 </r>
      </set>
      <set comment="kpoint 3">
       <r>  -29.9671    1.0000 </r>
       <r>  -14.4372    1.0000 </r>
       <r>   -8.7977    1.0000 </r>
       <r>   -8.5219    1.0000 </r>
       <r>   -5.5974    1.0000 </r>
       <r>   -0.0810    0.0000 </r>
       <r>    0.1024    0.0000 </r>
       <r>    0.5804    0.0000 </r>
       <r>    2.1714    0.0000 </r>
       <r>    2.3235    0.0000 </r>
       <r>    3.4015    0.0000 </r>
       <r>    4.3939    0.0000 </r>
       <r>    6.2002    0.0000 </r>
       <r>    7.8212    0.0000 </r>
       <r>   10.2012    0.0000 </r>
       <r>   12.6044    0.0000 </r>
      </set>
      <set comment="kpoint 4">
       <r>  -29.8770    1.0000 </r>
       <r>  -14.3549    1.0000 </r>
       <r>   -9.2596    1.0000 </r>
       <r>   -8.6714    1.0000 </r>
       <r>   -5.5549    1.0000 </r>
       <r>   -0.1600    0.0000 </r>
       <r>    0.2666    0.0000 </r>
       <r>    0.8994    0.0000 </r>
       <r>    2.2879    0.0000 </r>
       <r>    2.4375    0.0000 </r>
       <r>    3.5129    0.0000 </r>
       <r>    4.5099    0.0000 </r>
       <r>    6.3020    0.0000 </r>
       <r>    7.9339    0.0000 </r>
       <r>   10.2888    0.0000 </r>
       <r>   12.7095    0.0000 </r>
      </set>
      <set comment="kpoint 5">
       <r>  -29.7511    1.0000 </r>
       <r>  -14.2405    1.0000 </r>
       <r>   -9.8481    1.0000 </r>
       <r>   -8.8659    1.0000 </r>
       <r>   -5.4988    1.0000 </r>
       <r>   -0.2726    0.0000 </r>
       <r>    0.4789    0.0000 </r>
       <r>    1.2902    0.0000 </r>
       <r>    2.4506    0.0000 </r>
       <r>    2.5974    0.0000 </r>
       <r>    3.6690    0.0000 </r>
       <r>    4.6720    0.0000 </r>
       <r>    6.4443    0.0000 </r>
       <r>    8.0913    0.0000 </r>
       <r>   10.4105    0.0000 </r>
       <r>   12.8555    0.0000 </r>
      </set>
      <set comment="kpoint 6">
       <r>  -29.5897    1.0000 </r>
       <r>  -14.0958    1.0000 </r>
       <r>  -10.5267    1.0000 </r>
       <r>   -9.0944    1.0000 </r>
       <r>   -5.4332    1.0000 </r>
       <r>   -0.4093    0.0000 </r>
       <r>    0.7261    0.0000 </r>
       <r>    1.7089    0.0000 </r>
       <r>    2.6588    0.0000 </r>
       <r>    2.8045    0.0000 </r>
       <r>    3.8704    0.0000 </r>
       <r>    4.8802    0.0000 </r>
       <r>    6.6271    0.0000 </r>
       <r>    8.2931    0.0000 </r>
       <r>   10.5655    0.0000 </r>
       <r>   13.0410    0.0000 </r>
      </set>
      <set comment="kpoint 7">
       <r>  -29.3929    1.0000 </r>
       <r>  -13.9245    1.0000 </r>
       <r>  -11.2653    1.0000 </r>
       <r>   -9.3457    1.0000 </r>
       <r>   -5.3629    1.0000 </r>
       <r>   -0.5613    0.0000 </r>
       <r>    0.9944    0.0000 </r>
       <r>    2.1167    0.0000 </r>
       <r>    2.9115    0.0000 </r>
       <r>    3.0611    0.0000 </r>
       <r>    4.1179    0.0000 </r>
       <r>    5.1344    0.0000 </r>
       <r>    6.8508    0.0000 </r>
       <r>    8.5391    0.0000 </r>
       <r>   10.7533    0.0000 </r>
       <r>   13.2639    0.0000 </r>
      </set>
      <set comment="kpoint 8">
       <r>  -29.1610    1.0000 </r>
       <r>  -13.7376    1.0000 </r>
       <r>  -12.0324    1.0000 </r>
       <r>   -9.6101    1.0000 </r>
       <r>   -5.2952    1.0000 </r>
       <r>   -0.7192    0.0000 </r>
       <r>    1.2712    0.0000 </r>
       <r>    2.4806    0.0000 </r>
       <r>    3.2085    0.0000 </r>
       <r>    3.3685    0.0000 </r>
       <r>    4.4122    0.0000 </r>
       <r>    5.4344    0.0000 </r>
       <r>    7.1156    0.0000 </r>
       <r>    8.8289    0.0000 </r>
       <r>   10.9734    0.0000 </r>
       <r>   13.5208    0.0000 </r>
      </set>
      <set comment="kpoint 9">
       <r>  -28.8946    1.0000 </r>
       <r>  -13.6004    1.0000 </r>
       <r>  -12.7488    1.0000 </r>
       <r>   -9.8792    1.0000 </r>
       <r>   -5.2390    1.0000 </r>
       <r>   -0.8735    0.0000 </r>
       <r>    1.5458    0.0000 </r>
       <r>    2.7766    0.0000 </r>
       <r>    3.5514    0.0000 </r>
       <r>    3.7240    0.0000 </r>
       <r>    4.7536    0.0000 </r>
       <r>    5.7804    0.0000 </r>
       <r>    7.4222    0.0000 </r>
       <r>    9.1621    0.0000 </r>
       <r>   11.2263    0.0000 </r>
       <r>   13.8065    0.0000 </r>
      </set>
      <set comment="kpoint 10">
       <r>  -28.5941    1.0000 </r>
       <r>  -13.9280    1.0000 </r>
       <r>  -12.9870    1.0000 </r>
       <r>  -10.1448    1.0000 </r>
       <r>   -5.2046    1.0000 </r>
       <r>   -1.0139    0.0000 </r>
       <r>    1.8092    0.0000 </r>
       <r>    2.9919    0.0000 </r>
       <r>    3.9414    0.0000 </r>
       <r>    4.1215    0.0000 </r>
       <r>    5.1406    0.0000 </r>
       <r>    6.1727    0.0000 </r>
       <r>    7.7708    0.0000 </r>
       <r>    9.5387    0.0000 </r>
       <r>   11.5129    0.0000 </r>
       <r>   14.1125    0.0000 </r>
      </set>
      <set comment="kpoint 11">
       <r>  -28.2603    1.0000 </r>
       <r>  -14.6860    1.0000 </r>
       <r>  -12.7748    1.0000 </r>
       <r>  -10.4020    1.0000 </r>
       <r>   -5.2035    1.0000 </r>
       <r>   -1.1309    0.0000 </r>
       <r>    2.0545    0.0000 </r>
       <r>    3.1233    0.0000 </r>
       <r>    4.3778    0.0000 </r>
       <r>    4.5570    0.0000 </r>
       <r>    5.5710    0.0000 </r>
       <r>    6.6114    0.0000 </r>
       <r>    8.1607    0.0000 </r>
       <r>    9.9583    0.0000 </r>
       <r>   11.8340    0.0000 </r>
       <r>   14.4242    0.0000 </r>
      </set>
      <set comment="kpoint 12">
       <r>  -27.8943    1.0000 </r>
       <r>  -15.5067    1.0000 </r>
       <r>  -12.4736    1.0000 </r>
       <r>  -10.6454    1.0000 </r>
       <r>   -5.2471    1.0000 </r>
       <r>   -1.2163    0.0000 </r>
       <r>    2.2770    0.0000 </r>
       <r>    3.1746    0.0000 </r>
       <r>    4.8585    0.0000 </r>
       <r>    5.0304    0.0000 </r>
       <r>    6.0428    0.0000 </r>
       <r>    7.0967    0.0000 </r>
       <r>    8.5904    0.0000 </r>
       <r>   10.4205    0.0000 </r>
       <r>   12.1901    0.0000 </r>
       <r>   14.7181    0.0000 </r>
      </set>
      <set comment="kpoint 13">
       <r>  -27.4972    1.0000 </r>
       <r>  -16.3331    1.0000 </r>
       <r>  -12.1357    1.0000 </r>
       <r>  -10.8716    1.0000 </r>
       <r>   -5.3433    1.0000 </r>
       <r>   -1.2654    0.0000 </r>
       <r>    2.4738    0.0000 </r>
       <r>    3.1568    0.0000 </r>
       <r>    5.3803    0.0000 </r>
       <r>    5.5431    0.0000 </r>
       <r>    6.5554    0.0000 </r>
       <r>    7.6283    0.0000 </r>
       <r>    9.0576    0.0000 </r>
       <r>   10.9244    0.0000 </r>
       <r>   12.5797    0.0000 </r>
       <r>   14.9625    0.0000 </r>
      </set>
      <set comment="kpoint 14">
       <r>  -27.0712    1.0000 </r>
       <r>  -17.1507    1.0000 </r>
       <r>  -11.7739    1.0000 </r>
       <r>  -11.0773    1.0000 </r>
       <r>   -5.4956    1.0000 </r>
       <r>   -1.2788    0.0000 </r>
       <r>    2.6437    0.0000 </r>
       <r>    3.0870    0.0000 </r>
       <r>    5.9385    0.0000 </r>
       <r>    6.0981    0.0000 </r>
       <r>    7.1091    0.0000 </r>
       <r>    8.2055    0.0000 </r>
       <r>    9.5599    0.0000 </r>
       <r>   11.4675    0.0000 </r>
       <r>   12.9972    0.0000 </r>
       <r>   15.1177    0.0000 </r>
      </set>
      <set comment="kpoint 15">
       <r>  -26.6190    1.0000 </r>
       <r>  -17.9494    1.0000 </r>
       <r>  -11.3954    1.0000 </r>
       <r>  -11.2598    1.0000 </r>
       <r>   -5.7015    1.0000 </r>
       <r>   -1.2621    0.0000 </r>
       <r>    2.7867    0.0000 </r>
       <r>    2.9851    0.0000 </r>
       <r>    6.5254    0.0000 </r>
       <r>    6.6994    0.0000 </r>
       <r>    7.7049    0.0000 </r>
       <r>    8.8274    0.0000 </r>
       <r>   10.0944    0.0000 </r>
       <r>   12.0436    0.0000 </r>
       <r>   13.4278    0.0000 </r>
       <r>   15.1065    0.0000 </r>
      </set>
      <set comment="kpoint 16">
       <r>  -26.1453    1.0000 </r>
       <r>  -18.7212    1.0000 </r>
       <r>  -11.4171    1.0000 </r>
       <r>  -11.0083    1.0000 </r>
       <r>   -5.9524    1.0000 </r>
       <r>   -1.2247    0.0000 </r>
       <r>    2.8705    0.0000 </r>
       <r>    2.9037    0.0000 </r>
       <r>    7.1325    0.0000 </r>
       <r>    7.3506    0.0000 </r>
       <r>    8.3439    0.0000 </r>
       <r>    9.4926    0.0000 </r>
       <r>   10.6568    0.0000 </r>
       <r>   12.6341    0.0000 </r>
       <r>   13.8237    0.0000 </r>
       <r>   14.8427    0.0000 </r>
      </set>
      <set comment="kpoint 17">
       <r>  -25.6586    1.0000 </r>
       <r>  -19.4555    1.0000 </r>
       <r>  -11.5487    1.0000 </r>
       <r>  -10.6235    1.0000 </r>
       <r>   -6.2349    1.0000 </r>
       <r>   -1.1773    0.0000 </r>
       <r>    2.7595    0.0000 </r>
       <r>    2.9962    0.0000 </r>
       <r>    7.7531    0.0000 </r>
       <r>    8.0511    0.0000 </r>
       <r>    9.0270    0.0000 </r>
       <r>   10.1979    0.0000 </r>
       <r>   11.2366    0.0000 </r>
       <r>   13.1466    0.0000 </r>
       <r>   14.0025    0.0000 </r>
       <r>   14.5189    0.0000 </r>
      </set>
      <set comment="kpoint 18">
       <r>  -25.1739    1.0000 </r>
       <r>  -20.1345    1.0000 </r>
       <r>  -11.6515    1.0000 </r>
       <r>  -10.2567    1.0000 </r>
       <r>   -6.5273    1.0000 </r>
       <r>   -1.1300    0.0000 </r>
       <r>    2.6642    0.0000 </r>
       <r>    3.0658    0.0000 </r>
       <r>    8.3791    0.0000 </r>
       <r>    8.7978    0.0000 </r>
       <r>    9.7530    0.0000 </r>
       <r>   10.9343    0.0000 </r>
       <r>   11.7907    0.0000 </r>
       <r>   13.1574    0.0000 </r>
       <r>   13.8871    0.0000 </r>
       <r>   14.3811    0.0000 </r>
      </set>
      <set comment="kpoint 19">
       <r>  -24.7222    1.0000 </r>
       <r>  -20.7252    1.0000 </r>
       <r>  -11.7253    1.0000 </r>
       <r>   -9.9350    1.0000 </r>
       <r>   -6.7992    1.0000 </r>
       <r>   -1.0907    0.0000 </r>
       <r>    2.5923    0.0000 </r>
       <r>    3.1143    0.0000 </r>
       <r>    8.9919    0.0000 </r>
       <r>    9.5863    0.0000 </r>
       <r>   10.5126    0.0000 </r>
       <r>   11.6300    0.0000 </r>
       <r>   12.1232    0.0000 </r>
       <r>   12.8806    0.0000 </r>
       <r>   13.2913    0.0000 </r>
       <r>   14.2284    0.0000 </r>
      </set>
      <set comment="kpoint 20">
       <r>  -24.3701    1.0000 </r>
       <r>  -21.1616    1.0000 </r>
       <r>  -11.7703    1.0000 </r>
       <r>   -9.7026    1.0000 </r>
       <r>   -7.0034    1.0000 </r>
       <r>   -1.0651    0.0000 </r>
       <r>    2.5479    0.0000 </r>
       <r>    3.1428    0.0000 </r>
       <r>    9.5331    0.0000 </r>
       <r>   10.4091    0.0000 </r>
       <r>   11.1965    0.0000 </r>
       <r>   11.7356    0.0000 </r>
       <r>   12.1558    0.0000 </r>
       <r>   12.6576    0.0000 </r>
       <r>   13.2149    0.0000 </r>
       <r>   13.6128    0.0000 </r>
      </set>
      <set comment="kpoint 21">
       <r>  -24.2288    1.0000 </r>
       <r>  -21.3321    1.0000 </r>
       <r>  -11.7853    1.0000 </r>
       <r>   -9.6154    1.0000 </r>
       <r>   -7.0816    1.0000 </r>
       <r>   -1.0562    0.0000 </r>
       <r>    2.5330    0.0000 </r>
       <r>    3.1522    0.0000 </r>
       <r>    9.7956    0.0000 </r>
       <r>   11.1279    0.0000 </r>
       <r>   11.2759    0.0000 </r>
       <r>   11.3917    0.0000 </r>
       <r>   12.2268    0.0000 </r>
       <r>   12.4424    0.0000 </r>
       <r>   13.4289    0.0000 </r>
       <r>   13.4920    0.0000 </r>
      </set>
      <set comment="kpoint 22">
       <r>  -29.9851    1.0000 </r>
       <r>  -14.4537    1.0000 </r>
       <r>   -8.6986    1.0000 </r>
       <r>   -8.4924    1.0000 </r>
       <r>   -5.6061    1.0000 </r>
       <r>   -0.0451    0.0000 </r>
       <r>    0.0426    0.0000 </r>
       <r>    0.5172    0.0000 </r>
       <r>    2.1481    0.0000 </r>
       <r>    2.3007    0.0000 </r>
       <r>    3.3792    0.0000 </r>
       <r>    4.3707    0.0000 </r>
       <r>    6.1798    0.0000 </r>
       <r>    7.7987    0.0000 </r>
       <r>   10.1836    0.0000 </r>
       <r>   12.5833    0.0000 </r>
      </set>
      <set comment="kpoint 23">
       <r>  -29.9130    1.0000 </r>
       <r>  -14.3878    1.0000 </r>
       <r>   -9.0744    1.0000 </r>
       <r>   -8.6189    1.0000 </r>
       <r>   -5.5717    1.0000 </r>
       <r>   -0.0810    0.0000 </r>
       <r>    0.1420    0.0000 </r>
       <r>    0.7901    0.0000 </r>
       <r>    2.2414    0.0000 </r>
       <r>    2.3918    0.0000 </r>
       <r>    3.4683    0.0000 </r>
       <r>    4.4635    0.0000 </r>
       <r>    6.2612    0.0000 </r>
       <r>    7.8888    0.0000 </r>
       <r>   10.2538    0.0000 </r>
       <r>   12.6676    0.0000 </r>
      </set>
      <set comment="kpoint 24">
       <r>  -29.8050    1.0000 </r>
       <r>  -14.2894    1.0000 </r>
       <r>   -9.5933    1.0000 </r>
       <r>   -8.7968    1.0000 </r>
       <r>   -5.5223    1.0000 </r>
       <r>   -0.1683    0.0000 </r>
       <r>    0.3146    0.0000 </r>
       <r>    1.1524    0.0000 </r>
       <r>    2.3810    0.0000 </r>
       <r>    2.5285    0.0000 </r>
       <r>    3.6020    0.0000 </r>
       <r>    4.6026    0.0000 </r>
       <r>    6.3832    0.0000 </r>
       <r>    8.0238    0.0000 </r>
       <r>   10.3584    0.0000 </r>
       <r>   12.7932    0.0000 </r>
      </set>
      <set comment="kpoint 25">
       <r>  -29.6614    1.0000 </r>
       <r>  -14.1597    1.0000 </r>
       <r>  -10.2204    1.0000 </r>
       <r>   -9.0149    1.0000 </r>
       <r>   -5.4613    1.0000 </r>
       <r>   -0.2889    0.0000 </r>
       <r>    0.5400    0.0000 </r>
       <r>    1.5584    0.0000 </r>
       <r>    2.5665    0.0000 </r>
       <r>    2.7115    0.0000 </r>
       <r>    3.7805    0.0000 </r>
       <r>    4.7878    0.0000 </r>
       <r>    6.5457    0.0000 </r>
       <r>    8.2035    0.0000 </r>
       <r>   10.4967    0.0000 </r>
       <r>   12.9590    0.0000 </r>
      </set>
      <set comment="kpoint 26">
       <r>  -29.4823    1.0000 </r>
       <r>  -14.0014    1.0000 </r>
       <r>  -10.9228    1.0000 </r>
       <r>   -9.2614    1.0000 </r>
       <r>   -5.3932    1.0000 </r>
       <r>   -0.4307    0.0000 </r>
       <r>    0.7993    0.0000 </r>
       <r>    1.9693    0.0000 </r>
       <r>    2.7970    0.0000 </r>
       <r>    2.9424    0.0000 </r>
       <r>    4.0046    0.0000 </r>
       <r>    5.0189    0.0000 </r>
       <r>    6.7488    0.0000 </r>
       <r>    8.4275    0.0000 </r>
       <r>   10.6679    0.0000 </r>
       <r>   13.1635    0.0000 </r>
      </set>
      <set comment="kpoint 27">
       <r>  -29.2680    1.0000 </r>
       <r>  -13.8205    1.0000 </r>
       <r>  -11.6719    1.0000 </r>
       <r>   -9.5256    1.0000 </r>
       <r>   -5.3242    1.0000 </r>
       <r>   -0.5837    0.0000 </r>
       <r>    1.0766    0.0000 </r>
       <r>    2.3510    0.0000 </r>
       <r>    3.0717    0.0000 </r>
       <r>    3.2236    0.0000 </r>
       <r>    4.2751    0.0000 </r>
       <r>    5.2960    0.0000 </r>
       <r>    6.9927    0.0000 </r>
       <r>    8.6954    0.0000 </r>
       <r>   10.8715    0.0000 </r>
       <r>   13.4039    0.0000 </r>
      </set>
      <set comment="kpoint 28">
       <r>  -29.0188    1.0000 </r>
       <r>  -13.6428    1.0000 </r>
       <r>  -12.4242    1.0000 </r>
       <r>   -9.7977    1.0000 </r>
       <r>   -5.2619    1.0000 </r>
       <r>   -0.7382    0.0000 </r>
       <r>    1.3587    0.0000 </r>
       <r>    2.6753    0.0000 </r>
       <r>    3.3914    0.0000 </r>
       <r>    3.5548    0.0000 </r>
       <r>    4.5926    0.0000 </r>
       <r>    5.6190    0.0000 </r>
       <r>    7.2781    0.0000 </r>
       <r>    9.0070    0.0000 </r>
       <r>   11.1076    0.0000 </r>
       <r>   13.6763    0.0000 </r>
      </set>
      <set comment="kpoint 29">
       <r>  -28.7353    1.0000 </r>
       <r>  -13.6722    1.0000 </r>
       <r>  -12.9631    1.0000 </r>
       <r>  -10.0701    1.0000 </r>
       <r>   -5.2159    1.0000 </r>
       <r>   -0.8843    0.0000 </r>
       <r>    1.6344    0.0000 </r>
       <r>    2.9243    0.0000 </r>
       <r>    3.7580    0.0000 </r>
       <r>    3.9313    0.0000 </r>
       <r>    4.9567    0.0000 </r>
       <r>    5.9882    0.0000 </r>
       <r>    7.6054    0.0000 </r>
       <r>    9.3620    0.0000 </r>
       <r>   11.3767    0.0000 </r>
       <r>   13.9739    0.0000 </r>
      </set>
      <set comment="kpoint 30">
       <r>  -28.4181    1.0000 </r>
       <r>  -14.2985    1.0000 </r>
       <r>  -12.8893    1.0000 </r>
       <r>  -10.3359    1.0000 </r>
       <r>   -5.1974    1.0000 </r>
       <r>   -1.0118    0.0000 </r>
       <r>    1.8955    0.0000 </r>
       <r>    3.0905    0.0000 </r>
       <r>    4.1717    0.0000 </r>
       <r>    4.3478    0.0000 </r>
       <r>    5.3654    0.0000 </r>
       <r>    6.4038    0.0000 </r>
       <r>    7.9744    0.0000 </r>
       <r>    9.7601    0.0000 </r>
       <r>   11.6799    0.0000 </r>
       <r>   14.2856    0.0000 </r>
      </set>
      <set comment="kpoint 31">
       <r>  -28.0681    1.0000 </r>
       <r>  -15.0991    1.0000 </r>
       <r>  -12.6181    1.0000 </r>
       <r>  -10.5900    1.0000 </r>
       <r>   -5.2178    1.0000 </r>
       <r>   -1.1118    0.0000 </r>
       <r>    2.1358    0.0000 </r>
       <r>    3.1744    0.0000 </r>
       <r>    4.6307    0.0000 </r>
       <r>    4.8023    0.0000 </r>
       <r>    5.8168    0.0000 </r>
       <r>    6.8659    0.0000 </r>
       <r>    8.3843    0.0000 </r>
       <r>   10.2012    0.0000 </r>
       <r>   12.0181    0.0000 </r>
       <r>   14.5920    0.0000 </r>
      </set>
      <set comment="kpoint 32">
       <r>  -27.6863    1.0000 </r>
       <r>  -15.9229    1.0000 </r>
       <r>  -12.2965    1.0000 </r>
       <r>  -10.8276    1.0000 </r>
       <r>   -5.2871    1.0000 </r>
       <r>   -1.1776    0.0000 </r>
       <r>    2.3508    0.0000 </r>
       <r>    3.1840    0.0000 </r>
       <r>    5.1325    0.0000 </r>
       <r>    5.2955    0.0000 </r>
       <r>    6.3093    0.0000 </r>
       <r>    7.3744    0.0000 </r>
       <r>    8.8330    0.0000 </r>
       <r>   10.6845    0.0000 </r>
       <r>   12.3910    0.0000 </r>
       <r>   14.8637    0.0000 </r>
      </set>
      <set comment="kpoint 33">
       <r>  -27.2746    1.0000 </r>
       <r>  -16.7439    1.0000 </r>
       <r>  -11.9468    1.0000 </r>
       <r>  -11.0454    1.0000 </r>
       <r>   -5.4112    1.0000 </r>
       <r>   -1.2070    0.0000 </r>
       <r>    2.5373    0.0000 </r>
       <r>    3.1349    0.0000 </r>
       <r>    5.6735    0.0000 </r>
       <r>    5.8295    0.0000 </r>
       <r>    6.8428    0.0000 </r>
       <r>    7.9288    0.0000 </r>
       <r>    9.3184    0.0000 </r>
       <r>   11.2083    0.0000 </r>
       <r>   12.7957    0.0000 </r>
       <r>   15.0651    0.0000 </r>
      </set>
      <set comment="kpoint 34">
       <r>  -26.8352    1.0000 </r>
       <r>  -17.5512    1.0000 </r>
       <r>  -11.5805    1.0000 </r>
       <r>  -11.2372    1.0000 </r>
       <r>   -5.5907    1.0000 </r>
       <r>   -1.2029    0.0000 </r>
       <r>    2.6899    0.0000 </r>
       <r>    3.0505    0.0000 </r>
       <r>    6.2471    0.0000 </r>
       <r>    6.4075    0.0000 </r>
       <r>    7.4179    0.0000 </r>
       <r>    8.5284    0.0000 </r>
       <r>    9.8375    0.0000 </r>
       <r>   11.7689    0.0000 </r>
       <r>   13.2232    0.0000 </r>
       <r>   15.1457    0.0000 </r>
      </set>
      <set comment="kpoint 35">
       <r>  -26.3716    1.0000 </r>
       <r>  -18.3360    1.0000 </r>
       <r>  -11.4268    1.0000 </r>
       <r>  -11.1790    1.0000 </r>
       <r>   -5.8201    1.0000 </r>
       <r>   -1.1728    0.0000 </r>
       <r>    2.7814    0.0000 </r>
       <r>    2.9784    0.0000 </r>
       <r>    6.8451    0.0000 </r>
       <r>    7.0340    0.0000 </r>
       <r>    8.0356    0.0000 </r>
       <r>    9.1721    0.0000 </r>
       <r>   10.3874    0.0000 </r>
       <r>   12.3557    0.0000 </r>
       <r>   13.6485    0.0000 </r>
       <r>   15.0063    0.0000 </r>
      </set>
      <set comment="kpoint 36">
       <r>  -25.8900    1.0000 </r>
       <r>  -19.0894    1.0000 </r>
       <r>  -11.5653    1.0000 </r>
       <r>  -10.7982    1.0000 </r>
       <r>   -6.0883    1.0000 </r>
       <r>   -1.1270    0.0000 </r>
       <r>    2.7419    0.0000 </r>
       <r>    3.0078    0.0000 </r>
       <r>    7.4597    0.0000 </r>
       <r>    7.7105    0.0000 </r>
       <r>    8.6969    0.0000 </r>
       <r>    9.8578    0.0000 </r>
       <r>   10.9615    0.0000 </r>
       <r>   12.9301    0.0000 </r>
       <r>   13.9752    0.0000 </r>
       <r>   14.6637    0.0000 </r>
      </set>
      <set comment="kpoint 37">
       <r>  -25.4019    1.0000 </r>
       <r>  -19.7977    1.0000 </r>
       <r>  -11.6819    1.0000 </r>
       <r>  -10.4209    1.0000 </r>
       <r>   -6.3786    1.0000 </r>
       <r>   -1.0762    0.0000 </r>
       <r>    2.6477    0.0000 </r>
       <r>    3.0780    0.0000 </r>
       <r>    8.0844    0.0000 </r>
       <r>    8.4348    0.0000 </r>
       <r>    9.4021    0.0000 </r>
       <r>   10.5805    0.0000 </r>
       <r>   11.5397    0.0000 </r>
       <r>   13.2544    0.0000 </r>
       <r>   14.0126    0.0000 </r>
       <r>   14.4034    0.0000 </r>
      </set>
      <set comment="kpoint 38">
       <r>  -24.9281    1.0000 </r>
       <r>  -20.4378    1.0000 </r>
       <r>  -11.7708    1.0000 </r>
       <r>  -10.0725    1.0000 </r>
       <r>   -6.6655    1.0000 </r>
       <r>   -1.0298    0.0000 </r>
       <r>    2.5625    0.0000 </r>
       <r>    3.1372    0.0000 </r>
       <r>    8.7073    0.0000 </r>
       <r>    9.2031    0.0000 </r>
       <r>   10.1477    0.0000 </r>
       <r>   11.3187    0.0000 </r>
       <r>   12.0234    0.0000 </r>
       <r>   13.0175    0.0000 </r>
       <r>   13.5976    0.0000 </r>
       <r>   14.5245    0.0000 </r>
      </set>
      <set comment="kpoint 39">
       <r>  -24.5148    1.0000 </r>
       <r>  -20.9626    1.0000 </r>
       <r>  -11.8306    1.0000 </r>
       <r>   -9.7885    1.0000 </r>
       <r>   -6.9109    1.0000 </r>
       <r>   -0.9951    0.0000 </r>
       <r>    2.5013    0.0000 </r>
       <r>    3.1777    0.0000 </r>
       <r>    9.2970    0.0000 </r>
       <r>   10.0101    0.0000 </r>
       <r>   10.9060    0.0000 </r>
       <r>   11.7781    0.0000 </r>
       <r>   12.2890    0.0000 </r>
       <r>   12.6284    0.0000 </r>
       <r>   13.2946    0.0000 </r>
       <r>   13.8140    0.0000 </r>
      </set>
      <set comment="kpoint 40">
       <r>  -24.2526    1.0000 </r>
       <r>  -21.2815    1.0000 </r>
       <r>  -11.8606    1.0000 </r>
       <r>   -9.6216    1.0000 </r>
       <r>   -7.0592    1.0000 </r>
       <r>   -0.9766    0.0000 </r>
       <r>    2.4698    0.0000 </r>
       <r>    3.1980    0.0000 </r>
       <r>    9.7411    0.0000 </r>
       <r>   10.8386    0.0000 </r>
       <r>   11.2905    0.0000 </r>
       <r>   11.7204    0.0000 </r>
       <r>   11.9809    0.0000 </r>
       <r>   12.7560    0.0000 </r>
       <r>   13.1290    0.0000 </r>
       <r>   13.7087    0.0000 </r>
      </set>
      <set comment="kpoint 41">
       <r>  -29.8230    1.0000 </r>
       <r>  -14.3055    1.0000 </r>
       <r>   -9.4994    1.0000 </r>
       <r>   -8.7807    1.0000 </r>
       <r>   -5.5302    1.0000 </r>
       <r>   -0.0589    0.0000 </r>
       <r>    0.1730    0.0000 </r>
       <r>    1.1171    0.0000 </r>
       <r>    2.3578    0.0000 </r>
       <r>    2.5055    0.0000 </r>
       <r>    3.5796    0.0000 </r>
       <r>    4.5794    0.0000 </r>
       <r>    6.3629    0.0000 </r>
       <r>    8.0014    0.0000 </r>
       <r>   10.3410    0.0000 </r>
       <r>   12.7724    0.0000 </r>
      </set>
      <set comment="kpoint 42">
       <r>  -29.6972    1.0000 </r>
       <r>  -14.1918    1.0000 </r>
       <r>  -10.0453    1.0000 </r>
       <r>   -8.9945    1.0000 </r>
       <r>   -5.4758    1.0000 </r>
       <r>   -0.1090    0.0000 </r>
       <r>    0.3060    0.0000 </r>
       <r>    1.5028    0.0000 </r>
       <r>    2.5203    0.0000 </r>
       <r>    2.6646    0.0000 </r>
       <r>    3.7354    0.0000 </r>
       <r>    4.7415    0.0000 </r>
       <r>    6.5049    0.0000 </r>
       <r>    8.1587    0.0000 </r>
       <r>   10.4621    0.0000 </r>
       <r>   12.9180    0.0000 </r>
      </set>
      <set comment="kpoint 43">
       <r>  -29.5360    1.0000 </r>
       <r>  -14.0483    1.0000 </r>
       <r>  -10.6827    1.0000 </r>
       <r>   -9.2449    1.0000 </r>
       <r>   -5.4125    1.0000 </r>
       <r>   -0.2183    0.0000 </r>
       <r>    0.5260    0.0000 </r>
       <r>    1.9044    0.0000 </r>
       <r>    2.7283    0.0000 </r>
       <r>    2.8700    0.0000 </r>
       <r>    3.9362    0.0000 </r>
       <r>    4.9497    0.0000 </r>
       <r>    6.6873    0.0000 </r>
       <r>    8.3605    0.0000 </r>
       <r>   10.6163    0.0000 </r>
       <r>   13.1031    0.0000 </r>
      </set>
      <set comment="kpoint 44">
       <r>  -29.3393    1.0000 </r>
       <r>  -13.8788    1.0000 </r>
       <r>  -11.3833    1.0000 </r>
       <r>   -9.5180    1.0000 </r>
       <r>   -5.3451    1.0000 </r>
       <r>   -0.3533    0.0000 </r>
       <r>    0.7913    0.0000 </r>
       <r>    2.2886    0.0000 </r>
       <r>    2.9808    0.0000 </r>
       <r>    3.1237    0.0000 </r>
       <r>    4.1826    0.0000 </r>
       <r>    5.2038    0.0000 </r>
       <r>    6.9102    0.0000 </r>
       <r>    8.6065    0.0000 </r>
       <r>   10.8029    0.0000 </r>
       <r>   13.3259    0.0000 </r>
      </set>
      <set comment="kpoint 45">
       <r>  -29.1076    1.0000 </r>
       <r>  -13.6973    1.0000 </r>
       <r>  -12.1156    1.0000 </r>
       <r>   -9.8032    1.0000 </r>
       <r>   -5.2809    1.0000 </r>
       <r>   -0.4979    0.0000 </r>
       <r>    1.0778    0.0000 </r>
       <r>    2.6265    0.0000 </r>
       <r>    3.2777    0.0000 </r>
       <r>    3.4274    0.0000 </r>
       <r>    4.4755    0.0000 </r>
       <r>    5.5039    0.0000 </r>
       <r>    7.1741    0.0000 </r>
       <r>    8.8963    0.0000 </r>
       <r>   11.0217    0.0000 </r>
       <r>   13.5833    0.0000 </r>
      </set>
      <set comment="kpoint 46">
       <r>  -28.8413    1.0000 </r>
       <r>  -13.5845    1.0000 </r>
       <r>  -12.7823    1.0000 </r>
       <r>  -10.0904    1.0000 </r>
       <r>   -5.2279    1.0000 </r>
       <r>   -0.6407    0.0000 </r>
       <r>    1.3688    0.0000 </r>
       <r>    2.8961    0.0000 </r>
       <r>    3.6210    0.0000 </r>
       <r>    3.7794    0.0000 </r>
       <r>    4.8153    0.0000 </r>
       <r>    5.8502    0.0000 </r>
       <r>    7.4794    0.0000 </r>
       <r>    9.2298    0.0000 </r>
       <r>   11.2729    0.0000 </r>
       <r>   13.8702    0.0000 </r>
      </set>
      <set comment="kpoint 47">
       <r>  -28.5411    1.0000 </r>
       <r>  -13.9651    1.0000 </r>
       <r>  -12.9482    1.0000 </r>
       <r>  -10.3726    1.0000 </r>
       <r>   -5.1967    1.0000 </r>
       <r>   -0.7710    0.0000 </r>
       <r>    1.6519    0.0000 </r>
       <r>    3.0856    0.0000 </r>
       <r>    4.0119    0.0000 </r>
       <r>    4.1749    0.0000 </r>
       <r>    5.2010    0.0000 </r>
       <r>    6.2427    0.0000 </r>
       <r>    7.8267    0.0000 </r>
       <r>    9.6066    0.0000 </r>
       <r>   11.5574    0.0000 </r>
       <r>   14.1781    0.0000 </r>
      </set>
      <set comment="kpoint 48">
       <r>  -28.2076    1.0000 </r>
       <r>  -14.7157    1.0000 </r>
       <r>  -12.7273    1.0000 </r>
       <r>  -10.6438    1.0000 </r>
       <r>   -5.1983    1.0000 </r>
       <r>   -0.8792    0.0000 </r>
       <r>    1.9179    0.0000 </r>
       <r>    3.1928    0.0000 </r>
       <r>    4.4490    0.0000 </r>
       <r>    4.6103    0.0000 </r>
       <r>    5.6310    0.0000 </r>
       <r>    6.6817    0.0000 </r>
       <r>    8.2155    0.0000 </r>
       <r>   10.0265    0.0000 </r>
       <r>   11.8765    0.0000 </r>
       <r>   14.4915    0.0000 </r>
      </set>
      <set comment="kpoint 49">
       <r>  -27.8417    1.0000 </r>
       <r>  -15.5238    1.0000 </r>
       <r>  -12.4266    1.0000 </r>
       <r>  -10.8984    1.0000 </r>
       <r>   -5.2434    1.0000 </r>
       <r>   -0.9571    0.0000 </r>
       <r>    2.1600    0.0000 </r>
       <r>    3.2231    0.0000 </r>
       <r>    4.9303    0.0000 </r>
       <r>    5.0850    0.0000 </r>
       <r>    6.1035    0.0000 </r>
       <r>    7.1671    0.0000 </r>
       <r>    8.6447    0.0000 </r>
       <r>   10.4889    0.0000 </r>
       <r>   12.2310    0.0000 </r>
       <r>   14.7828    0.0000 </r>
      </set>
      <set comment="kpoint 50">
       <r>  -27.4450    1.0000 </r>
       <r>  -16.3396    1.0000 </r>
       <r>  -12.0919    1.0000 </r>
       <r>  -11.1324    1.0000 </r>
       <r>   -5.3398    1.0000 </r>
       <r>   -0.9998    0.0000 </r>
       <r>    2.3721    0.0000 </r>
       <r>    3.1903    0.0000 </r>
       <r>    5.4526    0.0000 </r>
       <r>    5.5996    0.0000 </r>
       <r>    6.6175    0.0000 </r>
       <r>    7.6985    0.0000 </r>
       <r>    9.1123    0.0000 </r>
       <r>   10.9927    0.0000 </r>
       <r>   12.6198    0.0000 </r>
       <r>   15.0139    0.0000 </r>
      </set>
      <set comment="kpoint 51">
       <r>  -27.0193    1.0000 </r>
       <r>  -17.1480    1.0000 </r>
       <r>  -11.7422    1.0000 </r>
       <r>  -11.3349    1.0000 </r>
       <r>   -5.4910    1.0000 </r>
       <r>   -1.0074    0.0000 </r>
       <r>    2.5449    0.0000 </r>
       <r>    3.1188    0.0000 </r>
       <r>    6.0111    0.0000 </r>
       <r>    6.1565    0.0000 </r>
       <r>    7.1730    0.0000 </r>
       <r>    8.2755    0.0000 </r>
       <r>    9.6159    0.0000 </r>
       <r>   11.5351    0.0000 </r>
       <r>   13.0382    0.0000 </r>
       <r>   15.1477    0.0000 </r>
      </set>
      <set comment="kpoint 52">
       <r>  -26.5676    1.0000 </r>
       <r>  -17.9398    1.0000 </r>
       <r>  -11.5783    1.0000 </r>
       <r>  -11.3107    1.0000 </r>
       <r>   -5.6951    1.0000 </r>
       <r>   -0.9845    0.0000 </r>
       <r>    2.6522    0.0000 </r>
       <r>    3.0538    0.0000 </r>
       <r>    6.5980    0.0000 </r>
       <r>    6.7599    0.0000 </r>
       <r>    7.7706    0.0000 </r>
       <r>    8.8971    0.0000 </r>
       <r>   10.1524    0.0000 </r>
       <r>   12.1099    0.0000 </r>
       <r>   13.4724    0.0000 </r>
       <r>   15.1187    0.0000 </r>
      </set>
      <set comment="kpoint 53">
       <r>  -26.0942    1.0000 </r>
       <r>  -18.7060    1.0000 </r>
       <r>  -11.7186    1.0000 </r>
       <r>  -10.9463    1.0000 </r>
       <r>   -5.9442    1.0000 </r>
       <r>   -0.9397    0.0000 </r>
       <r>    2.6480    0.0000 </r>
       <r>    3.0607    0.0000 </r>
       <r>    7.2050    0.0000 </r>
       <r>    7.4127    0.0000 </r>
       <r>    8.4112    0.0000 </r>
       <r>    9.5618    0.0000 </r>
       <r>   10.7176    0.0000 </r>
       <r>   12.6975    0.0000 </r>
       <r>   13.8778    0.0000 </r>
       <r>   14.8470    0.0000 </r>
      </set>
      <set comment="kpoint 54">
       <r>  -25.6077    1.0000 </r>
       <r>  -19.4356    1.0000 </r>
       <r>  -11.8499    1.0000 </r>
       <r>  -10.5647    1.0000 </r>
       <r>   -6.2248    1.0000 </r>
       <r>   -0.8837    0.0000 </r>
       <r>    2.5617    0.0000 </r>
       <r>    3.1276    0.0000 </r>
       <r>    7.8254    0.0000 </r>
       <r>    8.1143    0.0000 </r>
       <r>    9.0956    0.0000 </r>
       <r>   10.2666    0.0000 </r>
       <r>   11.3009    0.0000 </r>
       <r>   13.2013    0.0000 </r>
       <r>   14.0727    0.0000 </r>
       <r>   14.5280    0.0000 </r>
      </set>
      <set comment="kpoint 55">
       <r>  -25.1230    1.0000 </r>
       <r>  -20.1115    1.0000 </r>
       <r>  -11.9547    1.0000 </r>
       <r>  -10.1986    1.0000 </r>
       <r>   -6.5168    1.0000 </r>
       <r>   -0.8272    0.0000 </r>
       <r>    2.4606    0.0000 </r>
       <r>    3.2008    0.0000 </r>
       <r>    8.4513    0.0000 </r>
       <r>    8.8615    0.0000 </r>
       <r>    9.8227    0.0000 </r>
       <r>   11.0018    0.0000 </r>
       <r>   11.8603    0.0000 </r>
       <r>   13.1950    0.0000 </r>
       <r>   13.9495    0.0000 </r>
       <r>   14.4394    0.0000 </r>
      </set>
      <set comment="kpoint 56">
       <r>  -24.6713    1.0000 </r>
       <r>  -20.7009    1.0000 </r>
       <r>  -12.0307    1.0000 </r>
       <r>   -9.8762    1.0000 </r>
       <r>   -6.7894    1.0000 </r>
       <r>   -0.7795    0.0000 </r>
       <r>    2.3761    0.0000 </r>
       <r>    3.2591    0.0000 </r>
       <r>    9.0643    0.0000 </r>
       <r>    9.6498    0.0000 </r>
       <r>   10.5836    0.0000 </r>
       <r>   11.6930    0.0000 </r>
       <r>   12.1958    0.0000 </r>
       <r>   12.9192    0.0000 </r>
       <r>   13.3587    0.0000 </r>
       <r>   14.2948    0.0000 </r>
      </set>
      <set comment="kpoint 57">
       <r>  -24.3182    1.0000 </r>
       <r>  -21.1365    1.0000 </r>
       <r>  -12.0763    1.0000 </r>
       <r>   -9.6420    1.0000 </r>
       <r>   -6.9946    1.0000 </r>
       <r>   -0.7478    0.0000 </r>
       <r>    2.3215    0.0000 </r>
       <r>    3.2957    0.0000 </r>
       <r>    9.6068    0.0000 </r>
       <r>   10.4710    0.0000 </r>
       <r>   11.2679    0.0000 </r>
       <r>   11.7893    0.0000 </r>
       <r>   12.2197    0.0000 </r>
       <r>   12.7259    0.0000 </r>
       <r>   13.2870    0.0000 </r>
       <r>   13.6679    0.0000 </r>
      </set>
      <set comment="kpoint 58">
       <r>  -24.1764    1.0000 </r>
       <r>  -21.3068    1.0000 </r>
       <r>  -12.0916    1.0000 </r>
       <r>   -9.5537    1.0000 </r>
       <r>   -7.0736    1.0000 </r>
       <r>   -0.7367    0.0000 </r>
       <r>    2.3026    0.0000 </r>
       <r>    3.3082    0.0000 </r>
       <r>    9.8712    0.0000 </r>
       <r>   11.1738    0.0000 </r>
       <r>   11.3457    0.0000 </r>
       <r>   11.4590    0.0000 </r>
       <r>   12.2988    0.0000 </r>
       <r>   12.5055    0.0000 </r>
       <r>   13.4964    0.0000 </r>
       <r>   13.5567    0.0000 </r>
      </set>
      <set comment="kpoint 59">
       <r>  -29.5538    1.0000 </r>
       <r>  -14.0638    1.0000 </r>
       <r>  -10.5935    1.0000 </r>
       <r>   -9.2485    1.0000 </r>
       <r>   -5.4190    1.0000 </r>
       <r>   -0.0543    0.0000 </r>
       <r>    0.3372    0.0000 </r>
       <r>    1.8879    0.0000 </r>
       <r>    2.7054    0.0000 </r>
       <r>    2.8456    0.0000 </r>
       <r>    3.9133    0.0000 </r>
       <r>    4.9266    0.0000 </r>
       <r>    6.6668    0.0000 </r>
       <r>    8.3381    0.0000 </r>
       <r>   10.5990    0.0000 </r>
       <r>   13.0830    0.0000 </r>
      </set>
      <set comment="kpoint 60">
       <r>  -29.3750    1.0000 </r>
       <r>  -13.9088    1.0000 </r>
       <r>  -11.2171    1.0000 </r>
       <r>   -9.5386    1.0000 </r>
       <r>   -5.3563    1.0000 </r>
       <r>   -0.0949    0.0000 </r>
       <r>    0.4994    0.0000 </r>
       <r>    2.2672    0.0000 </r>
       <r>    2.9354    0.0000 </r>
       <r>    3.0725    0.0000 </r>
       <r>    4.1360    0.0000 </r>
       <r>    5.1577    0.0000 </r>
       <r>    6.8688    0.0000 </r>
       <r>    8.5620    0.0000 </r>
       <r>   10.7684    0.0000 </r>
       <r>   13.2869    0.0000 </r>
      </set>
      <set comment="kpoint 61">
       <r>  -29.1610    1.0000 </r>
       <r>  -13.7350    1.0000 </r>
       <r>  -11.8908    1.0000 </r>
       <r>   -9.8472    1.0000 </r>
       <r>   -5.2933    1.0000 </r>
       <r>   -0.1985    0.0000 </r>
       <r>    0.7515    0.0000 </r>
       <r>    2.6110    0.0000 </r>
       <r>    3.2098    0.0000 </r>
       <r>    3.3472    0.0000 </r>
       <r>    4.4042    0.0000 </r>
       <r>    5.4349    0.0000 </r>
       <r>    7.1111    0.0000 </r>
       <r>    8.8300    0.0000 </r>
       <r>   10.9697    0.0000 </r>
       <r>   13.5274    0.0000 </r>
      </set>
      <set comment="kpoint 62">
       <r>  -28.9121    1.0000 </r>
       <r>  -13.5829    1.0000 </r>
       <r>  -12.5597    1.0000 </r>
       <r>  -10.1614    1.0000 </r>
       <r>   -5.2378    1.0000 </r>
       <r>   -0.3212    0.0000 </r>
       <r>    1.0401    0.0000 </r>
       <r>    2.8944    0.0000 </r>
       <r>    3.5300    0.0000 </r>
       <r>    3.6711    0.0000 </r>
       <r>    4.7189    0.0000 </r>
       <r>    5.7583    0.0000 </r>
       <r>    7.3944    0.0000 </r>
       <r>    9.1419    0.0000 </r>
       <r>   11.2028    0.0000 </r>
       <r>   13.8011    0.0000 </r>
      </set>
      <set comment="kpoint 63">
       <r>  -28.6291    1.0000 </r>
       <r>  -13.7284    1.0000 </r>
       <r>  -12.9348    1.0000 </r>
       <r>  -10.4714    1.0000 </r>
       <r>   -5.1988    1.0000 </r>
       <r>   -0.4427    0.0000 </r>
       <r>    1.3381    0.0000 </r>
       <r>    3.1014    0.0000 </r>
       <r>    3.8980    0.0000 </r>
       <r>    4.0419    0.0000 </r>
       <r>    5.0802    0.0000 </r>
       <r>    6.1279    0.0000 </r>
       <r>    7.7192    0.0000 </r>
       <r>    9.4973    0.0000 </r>
       <r>   11.4683    0.0000 </r>
       <r>   14.1017    0.0000 </r>
      </set>
      <set comment="kpoint 64">
       <r>  -28.3124    1.0000 </r>
       <r>  -14.3796    1.0000 </r>
       <r>  -12.7977    1.0000 </r>
       <r>  -10.7693    1.0000 </r>
[...]
       </set>
       <set comment="band 13">
        <r>  0.0009  0.0362  0.0000 </r>
        <r>  0.0009  0.0362  0.0000 </r>
       </set>
       <set comment="band 14">
        <r>  0.0013  0.0317  0.0000 </r>
        <r>  0.0013  0.0317  0.0000 </r>
       </set>
       <set comment="band 15">
        <r>  0.0018  0.0191  0.0000 </r>
        <r>  0.0018  0.0191  0.0000 </r>
       </set>
       <set comment="band 16">
        <r>  0.0003  0.0035  0.0000 </r>
        <r>  0.0003  0.0035  0.0000 </r>
       </set>
      </set>
      <set comment="kpoint 146">
       <set comment="band 1">
        <r>  0.2852  0.0991  0.0000 </r>
        <r>  0.2852  0.0991  0.0000 </r>
       </set>
       <set comment="band 2">
        <r>  0.2387  0.1413  0.0000 </r>
        <r>  0.2387  0.1413  0.0000 </r>
       </set>
       <set comment="band 3">
        <r>  0.0136  0.3180  0.0000 </r>
        <r>  0.0136  0.3180  0.0000 </r>
       </set>
       <set comment="band 4">
        <r>  0.0963  0.2532  0.0000 </r>
        <r>  0.0963  0.2532  0.0000 </r>
       </set>
       <set comment="band 5">
        <r>  0.0757  0.2811  0.0000 </r>
        <r>  0.0757  0.2811  0.0000 </r>
       </set>
       <set comment="band 6">
        <r>  0.0002  0.2925  0.0000 </r>
        <r>  0.0002  0.2925  0.0000 </r>
       </set>
       <set comment="band 7">
        <r>  0.0693  0.3441  0.0000 </r>
        <r>  0.0693  0.3441  0.0000 </r>
       </set>
       <set comment="band 8">
        <r>  0.0423  0.3553  0.0000 </r>
        <r>  0.0423  0.3553  0.0000 </r>
       </set>
       <set comment="band 9">
        <r>  0.0008  0.0324  0.0000 </r>
        <r>  0.0008  0.0324  0.0000 </r>
       </set>
       <set comment="band 10">
        <r>  0.0001  0.0605  0.0000 </r>
        <r>  0.0001  0.0605  0.0000 </r>
       </set>
       <set comment="band 11">
        <r>  0.0016  0.0306  0.0000 </r>
        <r>  0.0016  0.0306  0.0000 </r>
       </set>
       <set comment="band 12">
        <r>  0.0027  0.0265  0.0000 </r>
        <r>  0.0027  0.0265  0.0000 </r>
       </set>
       <set comment="band 13">
        <r>  0.0002  0.0220  0.0000 </r>
        <r>  0.0002  0.0220  0.0000 </r>
       </set>
       <set comment="band 14">
        <r>  0.0001  0.0055  0.0000 </r>
        <r>  0.0001  0.0055  0.0000 </r>
       </set>
       <set comment="band 15">
        <r>  0.0004  0.0199  0.0000 </r>
        <r>  0.0004  0.0199  0.0000 </r>
       </set>
       <set comment="band 16">
        <r>  0.0012  0.0210  0.0000 </r>
        <r>  0.0012  0.0210  0.0000 </r>
       </set>
      </set>
      <set comment="kpoint 147">
       <set comment="band 1">
        <r>  0.2798  0.0947  0.0000 </r>
        <r>  0.2798  0.0947  0.0000 </r>
       </set>
       <set comment="band 2">
        <r>  0.2447  0.1465  0.0000 </r>
        <r>  0.2447  0.1465  0.0000 </r>
       </set>
       <set comment="band 3">
        <r>  0.0102  0.3220  0.0000 </r>
        <r>  0.0102  0.3220  0.0000 </r>
       </set>
       <set comment="band 4">
        <r>  0.0982  0.2380  0.0000 </r>
        <r>  0.0982  0.2380  0.0000 </r>
       </set>
       <set comment="band 5">
        <r>  0.0698  0.2966  0.0000 </r>
        <r>  0.0698  0.2966  0.0000 </r>
       </set>
       <set comment="band 6">
        <r>  0.0019  0.3013  0.0000 </r>
        <r>  0.0019  0.3013  0.0000 </r>
       </set>
       <set comment="band 7">
        <r>  0.0439  0.3240  0.0000 </r>
        <r>  0.0439  0.3240  0.0000 </r>
       </set>
       <set comment="band 8">
        <r>  0.0716  0.3604  0.0000 </r>
        <r>  0.0716  0.3604  0.0000 </r>
       </set>
       <set comment="band 9">
        <r>  0.0001  0.0457  0.0000 </r>
        <r>  0.0001  0.0457  0.0000 </r>
       </set>
       <set comment="band 10">
        <r>  0.0043  0.0213  0.0000 </r>
        <r>  0.0043  0.0213  0.0000 </r>
       </set>
       <set comment="band 11">
        <r>  0.0000  0.0080  0.0000 </r>
        <r>  0.0000  0.0080  0.0000 </r>
       </set>
       <set comment="band 12">
        <r>  0.0023  0.0177  0.0000 </r>
        <r>  0.0023  0.0177  0.0000 </r>
       </set>
       <set comment="band 13">
        <r>  0.0001  0.0303  0.0000 </r>
        <r>  0.0001  0.0303  0.0000 </r>
       </set>
       <set comment="band 14">
        <r>  0.0000  0.0520  0.0000 </r>
        <r>  0.0000  0.0520  0.0000 </r>
       </set>
       <set comment="band 15">
        <r>  0.0000  0.0214  0.0000 </r>
        <r>  0.0000  0.0214  0.0000 </r>
       </set>
       <set comment="band 16">
        <r>  0.0028  0.0470  0.0000 </r>
        <r>  0.0028  0.0470  0.0000 </r>
       </set>
      </set>
      <set comment="kpoint 148">
       <set comment="band 1">
        <r>  0.2788  0.0989  0.0000 </r>
        <r>  0.2788  0.0989  0.0000 </r>
       </set>
       <set comment="band 2">
        <r>  0.2498  0.1399  0.0000 </r>
        <r>  0.2498  0.1399  0.0000 </r>
       </set>
       <set comment="band 3">
        <r>  0.0085  0.3203  0.0000 </r>
        <r>  0.0085  0.3203  0.0000 </r>
       </set>
       <set comment="band 4">
        <r>  0.0964  0.2452  0.0000 </r>
        <r>  0.0964  0.2452  0.0000 </r>
       </set>
       <set comment="band 5">
        <r>  0.0738  0.2905  0.0000 </r>
        <r>  0.0738  0.2905  0.0000 </r>
       </set>
       <set comment="band 6">
        <r>  0.0010  0.2947  0.0000 </r>
        <r>  0.0010  0.2947  0.0000 </r>
       </set>
       <set comment="band 7">
        <r>  0.0489  0.3363  0.0000 </r>
        <r>  0.0489  0.3363  0.0000 </r>
       </set>
       <set comment="band 8">
        <r>  0.0642  0.3616  0.0000 </r>
        <r>  0.0642  0.3616  0.0000 </r>
       </set>
       <set comment="band 9">
        <r>  0.0000  0.0466  0.0000 </r>
        <r>  0.0000  0.0466  0.0000 </r>
       </set>
       <set comment="band 10">
        <r>  0.0039  0.0250  0.0000 </r>
        <r>  0.0039  0.0250  0.0000 </r>
       </set>
       <set comment="band 11">
        <r>  0.0000  0.0068  0.0000 </r>
        <r>  0.0000  0.0068  0.0000 </r>
       </set>
       <set comment="band 12">
        <r>  0.0008  0.0342  0.0000 </r>
        <r>  0.0008  0.0342  0.0000 </r>
       </set>
       <set comment="band 13">
        <r>  0.0005  0.0430  0.0000 </r>
        <r>  0.0005  0.0430  0.0000 </r>
       </set>
       <set comment="band 14">
        <r>  0.0002  0.0179  0.0000 </r>
        <r>  0.0002  0.0179  0.0000 </r>
       </set>
       <set comment="band 15">
        <r>  0.0005  0.0222  0.0000 </r>
        <r>  0.0005  0.0222  0.0000 </r>
       </set>
       <set comment="band 16">
        <r>  0.0010  0.0413  0.0000 </r>
        <r>  0.0010  0.0413  0.0000 </r>
       </set>
      </set>
      <set comment="kpoint 149">
       <set comment="band 1">
        <r>  0.2789  0.1023  0.0000 </r>
        <r>  0.2789  0.1023  0.0000 </r>
       </set>
       <set comment="band 2">
        <r>  0.2522  0.1351  0.0000 </r>
        <r>  0.2522  0.1351  0.0000 </r>
       </set>
       <set comment="band 3">
        <r>  0.0076  0.3192  0.0000 </r>
        <r>  0.0076  0.3192  0.0000 </r>
       </set>
       <set comment="band 4">
        <r>  0.0947  0.2521  0.0000 </r>
        <r>  0.0947  0.2521  0.0000 </r>
       </set>
       <set comment="band 5">
        <r>  0.0770  0.2844  0.0000 </r>
        <r>  0.0770  0.2844  0.0000 </r>
       </set>
       <set comment="band 6">
        <r>  0.0005  0.2902  0.0000 </r>
        <r>  0.0005  0.2902  0.0000 </r>
       </set>
       <set comment="band 7">
        <r>  0.0588  0.3488  0.0000 </r>
        <r>  0.0588  0.3488  0.0000 </r>
       </set>
       <set comment="band 8">
        <r>  0.0527  0.3591  0.0000 </r>
        <r>  0.0527  0.3591  0.0000 </r>
       </set>
       <set comment="band 9">
        <r>  0.0001  0.0456  0.0000 </r>
        <r>  0.0001  0.0456  0.0000 </r>
       </set>
       <set comment="band 10">
        <r>  0.0033  0.0319  0.0000 </r>
        <r>  0.0033  0.0319  0.0000 </r>
       </set>
       <set comment="band 11">
        <r>  0.0000  0.0472  0.0000 </r>
        <r>  0.0000  0.0472  0.0000 </r>
       </set>
       <set comment="band 12">
        <r>  0.0000  0.0066  0.0000 </r>
        <r>  0.0000  0.0066  0.0000 </r>
       </set>
       <set comment="band 13">
        <r>  0.0001  0.0297  0.0000 </r>
        <r>  0.0001  0.0297  0.0000 </r>
       </set>
       <set comment="band 14">
        <r>  0.0015  0.0273  0.0000 </r>
        <r>  0.0015  0.0273  0.0000 </r>
       </set>
       <set comment="band 15">
        <r>  0.0011  0.0195  0.0000 </r>
        <r>  0.0011  0.0195  0.0000 </r>
       </set>
       <set comment="band 16">
        <r>  0.0010  0.0148  0.0000 </r>
        <r>  0.0010  0.0148  0.0000 </r>
       </set>
      </set>
      <set comment="kpoint 150">
       <set comment="band 1">
        <r>  0.2806  0.1037  0.0000 </r>
        <r>  0.2806  0.1037  0.0000 </r>
       </set>
       <set comment="band 2">
        <r>  0.2516  0.1329  0.0000 </r>
        <r>  0.2516  0.1329  0.0000 </r>
       </set>
       <set comment="band 3">
        <r>  0.0072  0.3185  0.0000 </r>
        <r>  0.0072  0.3185  0.0000 </r>
       </set>
       <set comment="band 4">
        <r>  0.0936  0.2570  0.0000 </r>
        <r>  0.0936  0.2570  0.0000 </r>
       </set>
       <set comment="band 5">
        <r>  0.0788  0.2797  0.0000 </r>
        <r>  0.0788  0.2797  0.0000 </r>
       </set>
       <set comment="band 6">
        <r>  0.0002  0.2879  0.0000 </r>
        <r>  0.0002  0.2879  0.0000 </r>
       </set>
       <set comment="band 7">
        <r>  0.0639  0.3549  0.0000 </r>
        <r>  0.0639  0.3549  0.0000 </r>
       </set>
       <set comment="band 8">
        <r>  0.0467  0.3584  0.0000 </r>
        <r>  0.0467  0.3584  0.0000 </r>
       </set>
       <set comment="band 9">
        <r>  0.0004  0.0409  0.0000 </r>
        <r>  0.0004  0.0409  0.0000 </r>
       </set>
       <set comment="band 10">
        <r>  0.0009  0.0503  0.0000 </r>
        <r>  0.0009  0.0503  0.0000 </r>
       </set>
       <set comment="band 11">
        <r>  0.0011  0.0387  0.0000 </r>
        <r>  0.0011  0.0387  0.0000 </r>
       </set>
       <set comment="band 12">
        <r>  0.0014  0.0311  0.0000 </r>
        <r>  0.0014  0.0311  0.0000 </r>
       </set>
       <set comment="band 13">
        <r>  0.0002  0.0119  0.0000 </r>
        <r>  0.0002  0.0119  0.0000 </r>
       </set>
       <set comment="band 14">
        <r>  0.0013  0.0166  0.0000 </r>
        <r>  0.0013  0.0166  0.0000 </r>
       </set>
       <set comment="band 15">
        <r>  0.0001  0.0051  0.0000 </r>
        <r>  0.0001  0.0051  0.0000 </r>
       </set>
       <set comment="band 16">
        <r>  0.0015  0.0171  0.0000 </r>
        <r>  0.0015  0.0171  0.0000 </r>
       </set>
      </set>
      <set comment="kpoint 151">
       <set comment="band 1">
        <r>  0.2774  0.1034  0.0000 </r>
        <r>  0.2774  0.1034  0.0000 </r>
       </set>
       <set comment="band 2">
        <r>  0.2566  0.1327  0.0000 </r>
        <r>  0.2566  0.1327  0.0000 </r>
       </set>
       <set comment="band 3">
        <r>  0.0052  0.3196  0.0000 </r>
        <r>  0.0052  0.3196  0.0000 </r>
       </set>
       <set comment="band 4">
        <r>  0.0940  0.2525  0.0000 </r>
        <r>  0.0940  0.2525  0.0000 </r>
       </set>
       <set comment="band 5">
        <r>  0.0777  0.2847  0.0000 </r>
        <r>  0.0777  0.2847  0.0000 </r>
       </set>
       <set comment="band 6">
        <r>  0.0005  0.2890  0.0000 </r>
        <r>  0.0005  0.2890  0.0000 </r>
       </set>
       <set comment="band 7">
        <r>  0.0468  0.3458  0.0000 </r>
        <r>  0.0468  0.3458  0.0000 </r>
       </set>
       <set comment="band 8">
        <r>  0.0644  0.3660  0.0000 </r>
        <r>  0.0644  0.3660  0.0000 </r>
       </set>
       <set comment="band 9">
        <r>  0.0000  0.0475  0.0000 </r>
        <r>  0.0000  0.0475  0.0000 </r>
       </set>
       <set comment="band 10">
        <r>  0.0034  0.0297  0.0000 </r>
        <r>  0.0034  0.0297  0.0000 </r>
       </set>
       <set comment="band 11">
        <r>  0.0000  0.0485  0.0000 </r>
        <r>  0.0000  0.0485  0.0000 </r>
       </set>
       <set comment="band 12">
        <r>  0.0000  0.0109  0.0000 </r>
        <r>  0.0000  0.0109  0.0000 </r>
       </set>
       <set comment="band 13">
        <r>  0.0000  0.0224  0.0000 </r>
        <r>  0.0000  0.0224  0.0000 </r>
       </set>
       <set comment="band 14">
        <r>  0.0014  0.0223  0.0000 </r>
        <r>  0.0014  0.0223  0.0000 </r>
       </set>
       <set comment="band 15">
        <r>  0.0003  0.0191  0.0000 </r>
        <r>  0.0003  0.0191  0.0000 </r>
       </set>
       <set comment="band 16">
        <r>  0.0005  0.0378  0.0000 </r>
        <r>  0.0005  0.0378  0.0000 </r>
       </set>
      </set>
      <set comment="kpoint 152">
       <set comment="band 1">
        <r>  0.2765  0.1073  0.0000 </r>
        <r>  0.2765  0.1073  0.0000 </r>
       </set>
       <set comment="band 2">
        <r>  0.2608  0.1271  0.0000 </r>
        <r>  0.2608  0.1271  0.0000 </r>
       </set>
       <set comment="band 3">
        <r>  0.0030  0.3193  0.0000 </r>
        <r>  0.0030  0.3193  0.0000 </r>
       </set>
       <set comment="band 4">
        <r>  0.0918  0.2591  0.0000 </r>
        <r>  0.0918  0.2591  0.0000 </r>
       </set>
       <set comment="band 5">
        <r>  0.0809  0.2790  0.0000 </r>
        <r>  0.0809  0.2790  0.0000 </r>
       </set>
       <set comment="band 6">
        <r>  0.0002  0.2854  0.0000 </r>
        <r>  0.0002  0.2854  0.0000 </r>
       </set>
       <set comment="band 7">
        <r>  0.0569  0.3594  0.0000 </r>
        <r>  0.0569  0.3594  0.0000 </r>
       </set>
       <set comment="band 8">
        <r>  0.0532  0.3618  0.0000 </r>
        <r>  0.0532  0.3618  0.0000 </r>
       </set>
       <set comment="band 9">
        <r>  0.0001  0.0464  0.0000 </r>
        <r>  0.0001  0.0464  0.0000 </r>
       </set>
       <set comment="band 10">
        <r>  0.0022  0.0391  0.0000 </r>
        <r>  0.0022  0.0391  0.0000 </r>
       </set>
       <set comment="band 11">
        <r>  0.0002  0.0481  0.0000 </r>
        <r>  0.0002  0.0481  0.0000 </r>
       </set>
       <set comment="band 12">
        <r>  0.0005  0.0242  0.0000 </r>
        <r>  0.0005  0.0242  0.0000 </r>
       </set>
       <set comment="band 13">
        <r>  0.0001  0.0063  0.0000 </r>
        <r>  0.0001  0.0063  0.0000 </r>
       </set>
       <set comment="band 14">
        <r>  0.0012  0.0296  0.0000 </r>
        <r>  0.0012  0.0296  0.0000 </r>
       </set>
       <set comment="band 15">
        <r>  0.0011  0.0244  0.0000 </r>
        <r>  0.0011  0.0244  0.0000 </r>
       </set>
       <set comment="band 16">
        <r>  0.0015  0.0103  0.0000 </r>
        <r>  0.0015  0.0103  0.0000 </r>
       </set>
      </set>
      <set comment="kpoint 153">
       <set comment="band 1">
        <r>  0.2769  0.1088  0.0000 </r>
        <r>  0.2769  0.1088  0.0000 </r>
       </set>
       <set comment="band 2">
        <r>  0.2616  0.1249  0.0000 </r>
        <r>  0.2616  0.1249  0.0000 </r>
       </set>
       <set comment="band 3">
        <r>  0.0023  0.3192  0.0000 </r>
        <r>  0.0023  0.3192  0.0000 </r>
       </set>
       <set comment="band 4">
        <r>  0.0906  0.2627  0.0000 </r>
        <r>  0.0906  0.2627  0.0000 </r>
       </set>
       <set comment="band 5">
        <r>  0.0824  0.2757  0.0000 </r>
        <r>  0.0824  0.2757  0.0000 </r>
       </set>
       <set comment="band 6">
        <r>  0.0001  0.2842  0.0000 </r>
        <r>  0.0001  0.2842  0.0000 </r>
       </set>
       <set comment="band 7">
        <r>  0.0599  0.3630  0.0000 </r>
        <r>  0.0599  0.3630  0.0000 </r>
       </set>
       <set comment="band 8">
        <r>  0.0497  0.3616  0.0000 </r>
        <r>  0.0497  0.3616  0.0000 </r>
       </set>
       <set comment="band 9">
        <r>  0.0003  0.0425  0.0000 </r>
        <r>  0.0003  0.0425  0.0000 </r>
       </set>
       <set comment="band 10">
        <r>  0.0001  0.0506  0.0000 </r>
        <r>  0.0001  0.0506  0.0000 </r>
       </set>
       <set comment="band 11">
        <r>  0.0008  0.0427  0.0000 </r>
        <r>  0.0008  0.0427  0.0000 </r>
       </set>
       <set comment="band 12">
        <r>  0.0014  0.0361  0.0000 </r>
        <r>  0.0014  0.0361  0.0000 </r>
       </set>
       <set comment="band 13">
        <r>  0.0020  0.0105  0.0000 </r>
        <r>  0.0020  0.0105  0.0000 </r>
       </set>
       <set comment="band 14">
        <r>  0.0001  0.0074  0.0000 </r>
        <r>  0.0001  0.0074  0.0000 </r>
       </set>
       <set comment="band 15">
        <r>  0.0001  0.0040  0.0000 </r>
        <r>  0.0001  0.0040  0.0000 </r>
       </set>
       <set comment="band 16">
        <r>  0.0011  0.0268  0.0000 </r>
        <r>  0.0011  0.0268  0.0000 </r>
       </set>
      </set>
      <set comment="kpoint 154">
       <set comment="band 1">
        <r>  0.2734  0.1126  0.0000 </r>
        <r>  0.2734  0.1126  0.0000 </r>
       </set>
       <set comment="band 2">
        <r>  0.2674  0.1201  0.0000 </r>
        <r>  0.2674  0.1201  0.0000 </r>
       </set>
       <set comment="band 3">
        <r>  0.0005  0.3195  0.0000 </r>
        <r>  0.0005  0.3195  0.0000 </r>
       </set>
       <set comment="band 4">
        <r>  0.0887  0.2658  0.0000 </r>
        <r>  0.0887  0.2658  0.0000 </r>
       </set>
       <set comment="band 5">
        <r>  0.0845  0.2732  0.0000 </r>
        <r>  0.0845  0.2732  0.0000 </r>
       </set>
       <set comment="band 6">
        <r>  0.0000  0.2830  0.0000 </r>
        <r>  0.0000  0.2830  0.0000 </r>
       </set>
       <set comment="band 7">
        <r>  0.0570  0.3660  0.0000 </r>
        <r>  0.0570  0.3660  0.0000 </r>
       </set>
       <set comment="band 8">
        <r>  0.0522  0.3626  0.0000 </r>
        <r>  0.0522  0.3626  0.0000 </r>
       </set>
       <set comment="band 9">
        <r>  0.0001  0.0458  0.0000 </r>
        <r>  0.0001  0.0458  0.0000 </r>
       </set>
       <set comment="band 10">
        <r>  0.0001  0.0469  0.0000 </r>
        <r>  0.0001  0.0469  0.0000 </r>
       </set>
       <set comment="band 11">
        <r>  0.0009  0.0423  0.0000 </r>
        <r>  0.0009  0.0423  0.0000 </r>
       </set>
       <set comment="band 12">
        <r>  0.0009  0.0354  0.0000 </r>
        <r>  0.0009  0.0354  0.0000 </r>
       </set>
       <set comment="band 13">
        <r>  0.0014  0.0086  0.0000 </r>
        <r>  0.0014  0.0086  0.0000 </r>
       </set>
       <set comment="band 14">
        <r>  0.0014  0.0265  0.0000 </r>
        <r>  0.0014  0.0265  0.0000 </r>
       </set>
       <set comment="band 15">
        <r>  0.0016  0.0052  0.0000 </r>
        <r>  0.0016  0.0052  0.0000 </r>
       </set>
       <set comment="band 16">
        <r>  0.0000  0.0105  0.0000 </r>
        <r>  0.0000  0.0106  0.0000 </r>
       </set>
      </set>
     </set>
    </set>
   </array>
  </projected>
 </calculation>
 <structure name="finalpos" >
  <crystal>
   <varray name="basis" >
    <v>       2.29449859       0.00000000       0.00000000 </v>
    <v>      -1.14724930       1.98709407       0.00000000 </v>
    <v>       0.00000000       0.00000000      16.00000000 </v>
   </varray>
   <i name="volume">     72.95015287 </i>
   <varray name="rec_basis" >
    <v>       0.43582507       0.25162372       0.00000000 </v>
    <v>       0.00000000       0.50324744       0.00000000 </v>
    <v>       0.00000000       0.00000000       0.06250000 </v>
   </varray>
  </crystal>
  <varray name="positions" >
   <v>       0.66666667       0.33333333       0.47822185 </v>
   <v>       0.33333333       0.66666667       0.52177815 </v>
  </varray>
 </structure>
</modeling>
