    2    2    1    1
  0.3647508E+02  0.2294499E-09  0.2294499E-09  0.1600000E-08  0.5000000E-15
  1.000000000000000E-004
  CAR 
 unknown system                          
     10    150     32
 
  0.0000000E+00  0.0000000E+00  0.0000000E+00  0.6666667E-02
      1        -30.037826   1.000000
      2        -30.037644   1.000000
      3        -14.502554   1.000000
      4        -14.502484   1.000000
      5         -8.402035   1.000000
      6         -8.401986   1.000000
      7         -8.385056   1.000000
      8         -8.385008   1.000000
      9         -5.631847   1.000000
     10         -5.631576   1.000000
     11         -0.046064   0.000000
     12         -0.046047   0.000000
     13         -0.026147   0.000000
     14         -0.026123   0.000000
     15          0.313993   0.000000
     16          0.314816   0.000000
     17          2.078632   0.000000
     18          2.079238   0.000000
     19          2.235205   0.000000
     20          2.235703   0.000000
     21          3.317729   0.000000
     22          3.318524   0.000000
     23          4.305319   0.000000
     24          4.305844   0.000000
     25          6.122494   0.000000
     26          6.122583   0.000000
     27          7.734322   0.000000
     28          7.734836   0.000000
     29         10.133706   0.000000
     30         10.134705   0.000000
     31         12.523381   0.000000
     32         12.524043   0.000000
 
  0.1360544E-01 -0.6802721E-02  0.0000000E+00  0.6666667E-02
      1        -30.033815   1.000000
      2        -30.033634   1.000000
      3        -14.498856   1.000000
      4        -14.498785   1.000000
      5         -8.420583   1.000000
      6         -8.420527   1.000000
      7         -8.397228   1.000000
      8         -8.397179   1.000000
      9         -5.629902   1.000000
     10         -5.629631   1.000000
     11         -0.043320   0.000000
     12         -0.043302   0.000000
     13         -0.021751   0.000000
     14         -0.021727   0.000000
     15          0.328112   0.000000
     16          0.328933   0.000000
     17          2.083816   0.000000
     18          2.084422   0.000000
     19          2.240268   0.000000
     20          2.240766   0.000000
     21          3.322679   0.000000
     22          3.323474   0.000000
     23          4.310476   0.000000
     24          4.311000   0.000000
     25          6.127024   0.000000
     26          6.127114   0.000000
     27          7.739336   0.000000
     28          7.739850   0.000000
     29         10.137635   0.000000
     30         10.138634   0.000000
     31         12.528086   0.000000
     32         12.528747   0.000000
 
  0.2721088E-01 -0.1360544E-01  0.0000000E+00  0.6666667E-02
      1        -30.021797   1.000000
      2        -30.021615   1.000000
      3        -14.487767   1.000000
      4        -14.487697   1.000000
      5         -8.487044   1.000000
      6         -8.486982   1.000000
      7         -8.421323   1.000000
      8         -8.421274   1.000000
      9         -5.623940   1.000000
     10         -5.623668   1.000000
     11         -0.041442   0.000000
     12         -0.041424   0.000000
     13         -0.004369   0.000000
     14         -0.004350   0.000000
     15          0.371888   0.000000
     16          0.372699   0.000000
     17          2.099369   0.000000
     18          2.099975   0.000000
     19          2.255460   0.000000
     20          2.255958   0.000000
     21          3.337531   0.000000
     22          3.338326   0.000000
     23          4.325944   0.000000
     24          4.326469   0.000000
     25          6.140617   0.000000
     26          6.140707   0.000000
     27          7.754377   0.000000
     28          7.754891   0.000000
     29         10.149417   0.000000
     30         10.150416   0.000000
     31         12.542192   0.000000
     32         12.542853   0.000000
 
  0.4081633E-01 -0.2040816E-01  0.0000000E+00  0.6666667E-02
      1        -30.001807   1.000000
      2        -30.001626   1.000000
      3        -14.469385   1.000000
      4        -14.469314   1.000000
      5         -8.598906   1.000000
      6         -8.598839   1.000000
      7         -8.457969   1.000000
      8         -8.457921   1.000000
      9         -5.614128   1.000000
     10         -5.613857   1.000000
     11         -0.042958   0.000000
     12         -0.042939   0.000000
     13          0.023444   0.000000
     14          0.023473   0.000000
     15          0.448024   0.000000
     16          0.448810   0.000000
     17          2.125284   0.000000
     18          2.125889   0.000000
     19          2.280769   0.000000
     20          2.281268   0.000000
     21          3.362282   0.000000
     22          3.363077   0.000000
     23          4.351721   0.000000
     24          4.352245   0.000000
     25          6.163263   0.000000
     26          6.163352   0.000000
     27          7.779437   0.000000
     28          7.779952   0.000000
     29         10.169026   0.000000
     30         10.170025   0.000000
     31         12.565679   0.000000
     32         12.566339   0.000000
 
  0.5442177E-01 -0.2721088E-01  0.0000000E+00  0.6666667E-02
      1        -29.973834   1.000000
      2        -29.973653   1.000000
      3        -14.443682   1.000000
      4        -14.443611   1.000000
      5         -8.751216   1.000000
      6         -8.751141   1.000000
      7         -8.508759   1.000000
      8         -8.508712   1.000000
      9         -5.600528   1.000000
     10         -5.600257   1.000000
     11         -0.046077   0.000000
     12         -0.046058   0.000000
     13          0.055456   0.000000
     14          0.055512   0.000000
     15          0.557458   0.000000
     16          0.558206   0.000000
     17          2.161554   0.000000
     18          2.162158   0.000000
     19          2.316187   0.000000
     20          2.316685   0.000000
     21          3.396927   0.000000
     22          3.397723   0.000000
     23          4.387800   0.000000
     24          4.388324   0.000000
     25          6.194950   0.000000
     26          6.195039   0.000000
     27          7.814507   0.000000
     28          7.815023   0.000000
     29         10.196423   0.000000
     30         10.197421   0.000000
     31         12.598511   0.000000
     32         12.599170   0.000000
 
  0.6802721E-01 -0.3401361E-01  0.0000000E+00  0.6666667E-02
      1        -29.937799   1.000000
      2        -29.937618   1.000000
      3        -14.410606   1.000000
      4        -14.410535   1.000000
      5         -8.939580   1.000000
      6         -8.939497   1.000000
      7         -8.573263   1.000000
      8         -8.573217   1.000000
      9         -5.583246   1.000000
     10         -5.582975   1.000000
     11         -0.049857   0.000000
     12         -0.049837   0.000000
     13          0.089179   0.000000
     14          0.089267   0.000000
     15          0.697687   0.000000
     16          0.698393   0.000000
     17          2.208166   0.000000
     18          2.208770   0.000000
     19          2.361698   0.000000
     20          2.362197   0.000000
     21          3.441463   0.000000
     22          3.442260   0.000000
     23          4.434174   0.000000
     24          4.434697   0.000000
     25          6.235663   0.000000
     26          6.235751   0.000000
     27          7.859573   0.000000
     28          7.860089   0.000000
     29         10.231553   0.000000
     30         10.232550   0.000000
     31         12.640638   0.000000
     32         12.641295   0.000000
 
  0.8163265E-01 -0.4081633E-01  0.0000000E+00  0.6666667E-02
      1        -29.893816   1.000000
      2        -29.893634   1.000000
      3        -14.370455   1.000000
      4        -14.370385   1.000000
      5         -9.159322   1.000000
      6         -9.159229   1.000000
      7         -8.651754   1.000000
      8         -8.651709   1.000000
      9         -5.562547   1.000000
     10         -5.562277   1.000000
     11         -0.053703   0.000000
     12         -0.053682   0.000000
     13          0.124158   0.000000
     14          0.124275   0.000000
     15          0.863672   0.000000
     16          0.864338   0.000000
     17          2.265098   0.000000
     18          2.265701   0.000000
     19          2.417283   0.000000
     20          2.417782   0.000000
     21          3.495885   0.000000
     22          3.496682   0.000000
     23          4.490830   0.000000
     24          4.491352   0.000000
     25          6.285381   0.000000
     26          6.285468   0.000000
     27          7.914616   0.000000
     28          7.915133   0.000000
     29         10.274346   0.000000
     30         10.275342   0.000000
     31         12.691995   0.000000
     32         12.692650   0.000000
 
  0.9523810E-01 -0.4761905E-01  0.0000000E+00  0.6666667E-02
      1        -29.841750   1.000000
      2        -29.841569   1.000000
      3        -14.322866   1.000000
      4        -14.322796   1.000000
      5         -9.405787   1.000000
      6         -9.405685   1.000000
      7         -8.743779   1.000000
      8         -8.743734   1.000000
      9         -5.538470   1.000000
     10         -5.538199   1.000000
     11         -0.057024   0.000000
     12         -0.057002   0.000000
     13          0.161111   0.000000
     14          0.161252   0.000000
     15          1.049616   0.000000
     16          1.050247   0.000000
     17          2.332328   0.000000
     18          2.332930   0.000000
     19          2.482924   0.000000
     20          2.483424   0.000000
     21          3.560189   0.000000
     22          3.560987   0.000000
     23          4.557760   0.000000
     24          4.558282   0.000000
     25          6.344081   0.000000
     26          6.344168   0.000000
     27          7.979618   0.000000
     28          7.980137   0.000000
     29         10.324722   0.000000
     30         10.325716   0.000000
     31         12.752504   0.000000
     32         12.753157   0.000000
 
  0.1088435E+00 -0.5442177E-01  0.0000000E+00  0.6666667E-02
      1        -29.781915   1.000000
      2        -29.781733   1.000000
      3        -14.268502   1.000000
      4        -14.268432   1.000000
      5         -9.676020   1.000000
      6         -9.675908   1.000000
      7         -8.849510   1.000000
      8         -8.849465   1.000000
      9         -5.511874   1.000000
     10         -5.511605   1.000000
     11         -0.059348   0.000000
     12         -0.059325   0.000000
     13          0.200486   0.000000
     14          0.200644   0.000000
     15          1.249598   0.000000
     16          1.250199   0.000000
     17          2.409807   0.000000
     18          2.410408   0.000000
     19          2.558590   0.000000
     20          2.559089   0.000000
     21          3.634362   0.000000
     22          3.635162   0.000000
     23          4.634948   0.000000
     24          4.635468   0.000000
     25          6.411732   0.000000
     26          6.411818   0.000000
     27          8.054553   0.000000
     28          8.055074   0.000000
     29         10.382586   0.000000
     30         10.383579   0.000000
     31         12.822069   0.000000
     32         12.822719   0.000000
 
  0.1224490E+00 -0.6122449E-01  0.0000000E+00  0.6666667E-02
      1        -29.714056   1.000000
      2        -29.713874   1.000000
      3        -14.207136   1.000000
      4        -14.207067   1.000000
      5         -9.964847   1.000000
      6         -9.964724   1.000000
      7         -8.968427   1.000000
      8         -8.968384   1.000000
      9         -5.482663   1.000000
     10         -5.482394   1.000000
     11         -0.059944   0.000000
     12         -0.059920   0.000000
     13          0.242864   0.000000
     14          0.243036   0.000000
     15          1.458395   0.000000
     16          1.458970   0.000000
     17          2.497483   0.000000
     18          2.498082   0.000000
     19          2.644262   0.000000
     20          2.644762   0.000000
     21          3.718412   0.000000
     22          3.719212   0.000000
     23          4.722382   0.000000
     24          4.722902   0.000000
     25          6.488311   0.000000
     26          6.488396   0.000000
     27          8.139402   0.000000
     28          8.139924   0.000000
     29         10.447838   0.000000
     30         10.448827   0.000000
     31         12.900586   0.000000
     32         12.901233   0.000000
 
  0.1360544E+00 -0.6802721E-01  0.0000000E+00  0.6666667E-02
      1        -29.638317   1.000000
      2        -29.638135   1.000000
      3        -14.139206   1.000000
      4        -14.139137   1.000000
      5        -10.268418   1.000000
      6        -10.268286   1.000000
      7         -9.099885   1.000000
      8         -9.099842   1.000000
      9         -5.451611   1.000000
     10         -5.451343   1.000000
     11         -0.058136   0.000000
     12         -0.058109   0.000000
     13          0.288448   0.000000
     14          0.288629   0.000000
     15          1.671201   0.000000
     16          1.671755   0.000000
     17          2.595274   0.000000
     18          2.595873   0.000000
     19          2.739908   0.000000
     20          2.740409   0.000000
     21          3.812325   0.000000
     22          3.813127   0.000000
     23          4.820052   0.000000
     24          4.820570   0.000000
     25          6.573788   0.000000
     26          6.573872   0.000000
     27          8.234135   0.000000
     28          8.234659   0.000000
     29         10.520370   0.000000
     30         10.521356   0.000000
     31         12.987925   0.000000
     32         12.988569   0.000000
 
  0.1496599E+00 -0.7482993E-01  0.0000000E+00  0.6666667E-02
      1        -29.554666   1.000000
      2        -29.554484   1.000000
      3        -14.064873   1.000000
      4        -14.064803   1.000000
      5        -10.584260   1.000000
      6        -10.584117   1.000000
      7         -9.243397   1.000000
      8         -9.243355   1.000000
      9         -5.419065   1.000000
     10         -5.418799   1.000000
     11         -0.053383   0.000000
     12         -0.053354   0.000000
     13          0.337317   0.000000
     14          0.337505   0.000000
     15          1.883742   0.000000
     16          1.884278   0.000000
     17          2.703085   0.000000
     18          2.703682   0.000000
     19          2.845502   0.000000
     20          2.846003   0.000000
     21          3.916106   0.000000
     22          3.916910   0.000000
     23          4.927948   0.000000
     24          4.928465   0.000000
     25          6.668133   0.000000
     26          6.668217   0.000000
     27          8.338733   0.000000
     28          8.339259   0.000000
     29         10.600068   0.000000
     30         10.601050   0.000000
     31         13.083956   0.000000
     32         13.084595   0.000000
 
  0.1632653E+00 -0.8163265E-01  0.0000000E+00  0.6666667E-02
      1        -29.463313   1.000000
      2        -29.463131   1.000000
      3        -13.985103   1.000000
      4        -13.985033   1.000000
      5        -10.908933   1.000000
      6        -10.908781   1.000000
      7         -9.398604   1.000000
      8         -9.398563   1.000000
      9         -5.385865   1.000000
     10         -5.385600   1.000000
     11         -0.045051   0.000000
     12         -0.045020   0.000000
     13          0.389394   0.000000
     14          0.389586   0.000000
     15          2.092201   0.000000
     16          2.092721   0.000000
     17          2.820800   0.000000
     18          2.821396   0.000000
     19          2.961007   0.000000
     20          2.961510   0.000000
     21          4.029752   0.000000
     22          4.030558   0.000000
     23          5.046067   0.000000
     24          5.046582   0.000000
     25          6.771317   0.000000
     26          6.771400   0.000000
     27          8.453171   0.000000
     28          8.453699   0.000000
     29         10.686813   0.000000
     30         10.687790   0.000000
     31         13.188527   0.000000
     32         13.189160   0.000000
 
  0.1768707E+00 -0.8843537E-01  0.0000000E+00  0.6666667E-02
      1        -29.364048   1.000000
      2        -29.363866   1.000000
      3        -13.899809   1.000000
      4        -13.899739   1.000000
      5        -11.239266   1.000000
      6        -11.239102   1.000000
      7         -9.564627   1.000000
      8         -9.564587   1.000000
      9         -5.352350   1.000000
     10         -5.352086   1.000000
     11         -0.032410   0.000000
     12         -0.032376   0.000000
     13          0.444711   0.000000
     14          0.444906   0.000000
     15          2.293251   0.000000
     16          2.293759   0.000000
     17          2.948339   0.000000
     18          2.948935   0.000000
     19          3.086397   0.000000
     20          3.086900   0.000000
     21          4.153271   0.000000
     22          4.154080   0.000000
     23          5.174419   0.000000
     24          5.174932   0.000000
     25          6.883319   0.000000
     26          6.883401   0.000000
     27          8.577440   0.000000
     28          8.577971   0.000000
     29         10.780501   0.000000
     30         10.781471   0.000000
     31         13.301482   0.000000
     32         13.302110   0.000000
 
  0.1904762E+00 -0.9523810E-01  0.0000000E+00  0.6666667E-02
      1        -29.257035   1.000000
      2        -29.256852   1.000000
      3        -13.810799   1.000000
      4        -13.810729   1.000000
      5        -11.572471   1.000000
      6        -11.572296   1.000000
      7         -9.741021   1.000000
      8         -9.740982   1.000000
      9         -5.319264   1.000000
     10         -5.319003   1.000000
     11         -0.014898   0.000000
     12         -0.014861   0.000000
     13          0.503054   0.000000
     14          0.503249   0.000000
     15          2.483863   0.000000
     16          2.484361   0.000000
     17          3.085682   0.000000
     18          3.086278   0.000000
     19          3.221633   0.000000
     20          3.222137   0.000000
     21          4.286668   0.000000
     22          4.287479   0.000000
     23          5.313014   0.000000
     24          5.313525   0.000000
     25          7.004114   0.000000
     26          7.004196   0.000000
     27          8.711526   0.000000
     28          8.712060   0.000000
     29         10.881018   0.000000
     30         10.881981   0.000000
     31         13.422649   0.000000
     32         13.423270   0.000000
 
  0.2040816E+00 -0.1020408E+00  0.0000000E+00  0.6666667E-02
      1        -29.142292   1.000000
      2        -29.142109   1.000000
      3        -13.720502   1.000000
      4        -13.720430   1.000000
      5        -11.904690   1.000000
      6        -11.904502   1.000000
      7         -9.927270   1.000000
      8         -9.927231   1.000000
      9         -5.287512   1.000000
     10         -5.287253   1.000000
     11          0.008037   0.000000
     12          0.008078   0.000000
     13          0.564191   0.000000
     14          0.564385   0.000000
     15          2.661182   0.000000
     16          2.661673   0.000000
     17          3.232959   0.000000
     18          3.233556   0.000000
     19          3.366673   0.000000
     20          3.367178   0.000000
     21          4.429949   0.000000
     22          4.430762   0.000000
     23          5.461874   0.000000
     24          5.462382   0.000000
     25          7.133684   0.000000
     26          7.133765   0.000000
     27          8.855422   0.000000
     28          8.855959   0.000000
     29         10.988267   0.000000
     30         10.989221   0.000000
     31         13.551842   0.000000
     32         13.552455   0.000000
 
  0.2176871E+00 -0.1088435E+00  0.0000000E+00  0.6666667E-02
      1        -29.019748   1.000000
      2        -29.019565   1.000000
      3        -13.634285   1.000000
      4        -13.634212   1.000000
      5        -12.228474   1.000000
      6        -12.228271   1.000000
      7        -10.122082   1.000000
      8        -10.122044   1.000000
      9         -5.257815   1.000000
     10         -5.257559   1.000000
     11          0.037128   0.000000
     12          0.037173   0.000000
     13          0.627853   0.000000
     14          0.628046   0.000000
     15          2.822745   0.000000
     16          2.823232   0.000000
     17          3.390470   0.000000
     18          3.391070   0.000000
     19          3.521475   0.000000
     20          3.521980   0.000000
     21          4.583125   0.000000
     22          4.583941   0.000000
     23          5.621027   0.000000
     24          5.621533   0.000000
     25          7.272016   0.000000
     26          7.272097   0.000000
     27          9.009126   0.000000
     28          9.009667   0.000000
     29         11.102167   0.000000
     30         11.103111   0.000000
     31         13.688862   0.000000
     32         13.689466   0.000000
 
  0.2312925E+00 -0.1156463E+00  0.0000000E+00  0.6666667E-02
      1        -28.889664   1.000000
      2        -28.889481   1.000000
      3        -13.566294   1.000000
      4        -13.566218   1.000000
      5        -12.529675   1.000000
      6        -12.529455   1.000000
      7        -10.325234   1.000000
      8        -10.325197   1.000000
      9         -5.231173   1.000000
     10         -5.230920   1.000000
     11          0.072827   0.000000
     12          0.072877   0.000000
     13          0.693642   0.000000
     14          0.693831   0.000000
     15          2.966400   0.000000
     16          2.966882   0.000000
     17          3.558590   0.000000
     18          3.559191   0.000000
     19          3.685987   0.000000
     20          3.686493   0.000000
     21          4.746209   0.000000
     22          4.747028   0.000000
     23          5.790502   0.000000
     24          5.791005   0.000000
     25          7.419103   0.000000
     26          7.419184   0.000000
     27          9.172636   0.000000
     28          9.173180   0.000000
     29         11.222649   0.000000
     30         11.223581   0.000000
     31         13.833482   0.000000
     32         13.834076   0.000000
 
  0.2448980E+00 -0.1224490E+00  0.0000000E+00  0.6666667E-02
      1        -28.752003   1.000000
      2        -28.751820   1.000000
      3        -13.554652   1.000000
      4        -13.554586   1.000000
      5        -12.768573   1.000000
      6        -12.768348   1.000000
      7        -10.535580   1.000000
      8        -10.535543   1.000000
      9         -5.208481   1.000000
     10         -5.208231   1.000000
     11          0.115814   0.000000
     12          0.115869   0.000000
     13          0.761129   0.000000
     14          0.761315   0.000000
     15          3.090600   0.000000
     16          3.091079   0.000000
     17          3.737593   0.000000
     18          3.738195   0.000000
     19          3.860156   0.000000
     20          3.860663   0.000000
     21          4.919215   0.000000
     22          4.920037   0.000000
     23          5.970325   0.000000
     24          5.970825   0.000000
     25          7.574944   0.000000
     26          7.575024   0.000000
     27          9.345950   0.000000
     28          9.346498   0.000000
     29         11.349667   0.000000
     30         11.350584   0.000000
     31         13.985445   0.000000
     32         13.986028   0.000000
 
  0.2585034E+00 -0.1292517E+00  0.0000000E+00  0.6666667E-02
      1        -28.606748   1.000000
      2        -28.606564   1.000000
      3        -13.667722   1.000000
      4        -13.667697   1.000000
      5        -12.875743   1.000000
      6        -12.875556   1.000000
      7        -10.752198   1.000000
      8        -10.752162   1.000000
      9         -5.190410   1.000000
     10         -5.190165   1.000000
     11          0.166696   0.000000
     12          0.166757   0.000000
     13          0.829798   0.000000
     14          0.829978   0.000000
     15          3.194572   0.000000
     16          3.195047   0.000000
     17          3.927541   0.000000
     18          3.928143   0.000000
     19          4.043923   0.000000
     20          4.044431   0.000000
     21          5.102164   0.000000
     22          5.102989   0.000000
     23          6.160513   0.000000
     24          6.161011   0.000000
     25          7.739553   0.000000
     26          7.739634   0.000000
     27          9.529058   0.000000
     28          9.529610   0.000000
     29         11.483212   0.000000
     30         11.484113   0.000000
     31         14.144440   0.000000
     32         14.145009   0.000000
 
  0.2721088E+00 -0.1360544E+00  0.0000000E+00  0.6666667E-02
      1        -28.454117   1.000000
      2        -28.453932   1.000000
      3        -13.907422   1.000000
      4        -13.907361   1.000000
      5        -12.849677   1.000000
      6        -12.849540   1.000000
      7        -10.975070   1.000000
      8        -10.975035   1.000000
      9         -5.178166   1.000000
     10         -5.177926   1.000000
     11          0.225870   0.000000
     12          0.225937   0.000000
     13          0.898953   0.000000
     14          0.899126   0.000000
     15          3.278124   0.000000
     16          3.278595   0.000000
     17          4.128306   0.000000
     18          4.128907   0.000000
     19          4.237219   0.000000
     20          4.237727   0.000000
     21          5.295076   0.000000
     22          5.295904   0.000000
     23          6.361071   0.000000
     24          6.361566   0.000000
     25          7.912947   0.000000
     26          7.913028   0.000000
     27          9.721939   0.000000
     28          9.722496   0.000000
     29         11.623281   0.000000
     30         11.624163   0.000000
     31         14.310073   0.000000
     32         14.310628   0.000000
 
  0.2857143E+00 -0.1428571E+00  0.0000000E+00  0.6666667E-02
      1        -28.294084   1.000000
      2        -28.293899   1.000000
      3        -14.206814   1.000000
      4        -14.206717   1.000000
      5        -12.755650   1.000000
      6        -12.755540   1.000000
      7        -11.202475   1.000000
      8        -11.202440   1.000000
      9         -5.172337   1.000000
     10         -5.172102   1.000000
     11          0.293952   0.000000
     12          0.294026   0.000000
     13          0.967878   0.000000
     14          0.968043   0.000000
     15          3.341871   0.000000
     16          3.342338   0.000000
     17          4.339685   0.000000
     18          4.340284   0.000000
     19          4.439971   0.000000
     20          4.440480   0.000000
     21          5.497977   0.000000
     22          5.498807   0.000000
     23          6.571988   0.000000
     24          6.572480   0.000000
     25          8.095158   0.000000
     26          8.095239   0.000000
     27          9.924555   0.000000
     28          9.925116   0.000000
     29         11.769905   0.000000
     30         11.770765   0.000000
     31         14.481833   0.000000
     32         14.482370   0.000000
 
  0.2993197E+00 -0.1496599E+00  0.0000000E+00  0.6666667E-02
      1        -28.126686   1.000000
      2        -28.126501   1.000000
      3        -14.528426   1.000000
      4        -14.528306   1.000000
      5        -12.631119   1.000000
      6        -12.631023   1.000000
      7        -11.434208   1.000000
      8        -11.434173   1.000000
      9         -5.173644   1.000000
     10         -5.173414   1.000000
     11          0.371324   0.000000
     12          0.371405   0.000000
     13          1.035619   0.000000
     14          1.035775   0.000000
     15          3.386930   0.000000
     16          3.387395   0.000000
     17          4.561480   0.000000
     18          4.562078   0.000000
     19          4.652095   0.000000
     20          4.652604   0.000000
     21          5.710891   0.000000
     22          5.711724   0.000000
     23          6.793238   0.000000
     24          6.793727   0.000000
     25          8.286222   0.000000
     26          8.286303   0.000000
     27         10.136845   0.000000
     28         10.137411   0.000000
     29         11.923115   0.000000
     30         11.923951   0.000000
     31         14.659031   0.000000
     32         14.659548   0.000000
 
  0.3129252E+00 -0.1564626E+00  0.0000000E+00  0.6666667E-02
      1        -27.952074   1.000000
      2        -27.951888   1.000000
      3        -14.858310   1.000000
      4        -14.858175   1.000000
      5        -12.490076   1.000000
      6        -12.489988   1.000000
      7        -11.669123   1.000000
      8        -11.669089   1.000000
      9         -5.183031   1.000000
     10         -5.182807   1.000000
     11          0.458354   0.000000
     12          0.458444   0.000000
     13          1.101093   0.000000
     14          1.101238   0.000000
     15          3.414939   0.000000
     16          3.415403   0.000000
     17          4.793530   0.000000
     18          4.794126   0.000000
     19          4.873498   0.000000
     20          4.874007   0.000000
     21          5.933849   0.000000
     22          5.934684   0.000000
     23          7.024780   0.000000
     24          7.025264   0.000000
     25          8.486193   0.000000
     26          8.486274   0.000000
     27         10.358714   0.000000
     28         10.359286   0.000000