 running   16 mpi-ranks, on    1 nodes
 distrk:  each k-point on   16 cores,    1 groups
 distr:  one band on    4 cores,    4 groups
 vasp.6.4.2 20Jul23 (build Nov 14 2023 13:24:25) complex                        
  
 POSCAR found type information on POSCAR N 
 POSCAR found :  1 types and       2 ions
 Reading from existing POTCAR
 -----------------------------------------------------------------------------
|                                                                             |
|           W    W    AA    RRRRR   N    N  II  N    N   GGGG   !!!           |
|           W    W   A  A   R    R  NN   N  II  NN   N  G    G  !!!           |
|           W    W  A    A  R    R  N N  N  II  N N  N  G       !!!           |
|           W WW W  AAAAAA  RRRRR   N  N N  II  N  N N  G  GGG   !            |
|           WW  WW  A    A  R   R   N   NN  II  N   NN  G    G                |
|           W    W  A    A  R    R  N    N  II  N    N   GGGG   !!!           |
|                                                                             |
|     You use a magnetic or noncollinear calculation, but did not specify     |
|     the initial magnetic moment with the MAGMOM tag. Note that a            |
|     default of 1 will be used for all atoms. This ferromagnetic setup       |
|     may break the symmetry of the crystal, in particular it may rule        |
|     out finding an antiferromagnetic solution. Thence, we recommend         |
|     setting the initial magnetic moment manually or verifying carefully     |
|     that this magnetic setup is desired.                                    |
|                                                                             |
 -----------------------------------------------------------------------------

 scaLAPACK will be used
 Reading from existing POTCAR
 LDA part: xc-table for Pade appr. of Perdew
 POSCAR, INCAR and KPOINTS ok, starting setup
 FFT: planning ... GRIDC
 FFT: planning ... GRID_SOFT
 FFT: planning ... GRID
 WAVECAR not read
 entering main loop
       N       E                     dE             d eps       ncg     rms          rms(c)
DAV:   1     0.777789131437E+02    0.77779E+02   -0.36830E+03 13232   0.458E+02
DAV:   2    -0.526563457764E+01   -0.83045E+02   -0.71535E+02 18112   0.164E+02
DAV:   3    -0.115432698039E+02   -0.62776E+01   -0.62014E+01 17208   0.490E+01
DAV:   4    -0.116037783728E+02   -0.60509E-01   -0.60473E-01 16384   0.601E+00
DAV:   5    -0.116045726477E+02   -0.79427E-03   -0.79426E-03 17304   0.516E-01
DAV:   6    -0.116045926870E+02   -0.20039E-04   -0.20039E-04 17064   0.747E-02
DAV:   7    -0.116045934255E+02   -0.73851E-06   -0.73852E-06 17480   0.104E-02
DAV:   8    -0.116045934589E+02   -0.33340E-07   -0.33352E-07 14408   0.202E-03
DAV:   9    -0.116045934604E+02   -0.15565E-08   -0.16949E-08 10584   0.558E-04
DAV:  10    -0.116045934609E+02   -0.44690E-09   -0.30084E-09 10040   0.275E-04
DAV:  11    -0.116045934609E+02   -0.60481E-10   -0.10451E-09  9888   0.159E-04
DAV:  12    -0.116045934610E+02   -0.81855E-10   -0.38808E-10  9360   0.962E-05    0.148E+01
DAV:  13    -0.129786722210E+02   -0.13741E+01   -0.41595E-02 15904   0.149E+00    0.976E+00
DAV:  14    -0.135780745574E+02   -0.59940E+00   -0.17967E-01 15704   0.279E+00    0.366E+00
DAV:  15    -0.134092620007E+02    0.16881E+00   -0.42204E-01 15720   0.435E+00    0.716E-01
DAV:  16    -0.134173471318E+02   -0.80851E-02   -0.34201E-02 15632   0.129E+00    0.527E-01
DAV:  17    -0.134184078751E+02   -0.10607E-02   -0.50893E-03 15016   0.445E-01    0.322E-01
DAV:  18    -0.134196674592E+02   -0.12596E-02   -0.69199E-04 16560   0.185E-01    0.176E-01
DAV:  19    -0.134199152448E+02   -0.24779E-03   -0.12051E-03 14928   0.248E-01    0.302E-02
DAV:  20    -0.134199424575E+02   -0.27213E-04   -0.91693E-05 15312   0.669E-02    0.178E-02
DAV:  21    -0.134199473427E+02   -0.48852E-05   -0.62490E-06 14528   0.249E-02    0.106E-02
DAV:  22    -0.134199497742E+02   -0.24315E-05   -0.50173E-07 13208   0.766E-03    0.851E-03
DAV:  23    -0.134199529819E+02   -0.32078E-05   -0.21914E-06 13920   0.112E-02    0.253E-03
DAV:  24    -0.134199537400E+02   -0.75804E-06   -0.19946E-07 11656   0.401E-03
   1 F= -.13419954E+02 E0= -.13419954E+02  d E =-.228938E-11  mag=     0.0000     0.0000     0.0000
