       N       E                     dE             d eps       ncg     rms          rms(c)
DAV:   1     0.767543919352E+02    0.76754E+02   -0.37192E+03  9880   0.449E+02
DAV:   2    -0.752993237093E+01   -0.84284E+02   -0.71707E+02 13480   0.166E+02
DAV:   3    -0.134275021452E+02   -0.58976E+01   -0.58209E+01 13240   0.473E+01
DAV:   4    -0.134830147027E+02   -0.55513E-01   -0.55480E-01 12480   0.557E+00
DAV:   5    -0.134838729129E+02   -0.85821E-03   -0.85819E-03 12656   0.504E-01
DAV:   6    -0.134839006422E+02   -0.27729E-04   -0.27729E-04 12824   0.772E-02
DAV:   7    -0.134839019073E+02   -0.12651E-05   -0.12651E-05 12520   0.119E-02
DAV:   8    -0.134839019734E+02   -0.66023E-07   -0.66014E-07 10760   0.260E-03
DAV:   9    -0.134839019767E+02   -0.33236E-08   -0.34151E-08  7936   0.695E-04
DAV:  10    -0.134839019772E+02   -0.52898E-09   -0.43355E-09  7192   0.312E-04
DAV:  11    -0.134839019773E+02   -0.12290E-09   -0.14496E-09  6632   0.175E-04
DAV:  12    -0.134839019774E+02   -0.53660E-10   -0.56169E-10  6344   0.104E-04
DAV:  13    -0.134839019774E+02   -0.25125E-10   -0.22396E-10  6176   0.649E-05
   1 F= -.13483902E+02 E0= -.13483902E+02  d E =-.178305E-12  mag=     0.0000     0.0000     0.0000
