PROCAR new format
# of k-points:  150         # of bands:   32         # of ions:    2

 k-point     1 :    0.00000000 0.00000000 0.00000000     weight = 0.00666667

band     1 # energy  -30.03782561 # occ.  1.00000000
 
ion      s      p      d    tot
    1  0.319  0.025  0.000  0.344
    2  0.319  0.025  0.000  0.344
tot    0.638  0.051  0.000  0.689
    1 -0.106 -0.008  0.000 -0.115
    2 -0.106 -0.008  0.000 -0.115
tot   -0.212 -0.017  0.000 -0.229
    1 -0.040 -0.003  0.000 -0.043
    2 -0.040 -0.003  0.000 -0.043
tot   -0.080 -0.006  0.000 -0.087
    1 -0.298 -0.024  0.000 -0.322
    2 -0.298 -0.024  0.000 -0.322
tot   -0.596 -0.048  0.000 -0.644
 
band     2 # energy  -30.03764437 # occ.  1.00000000
 
ion      s      p      d    tot
    1  0.319  0.025  0.000  0.344
    2  0.319  0.025  0.000  0.344
tot    0.638  0.051  0.000  0.689
    1  0.106  0.008  0.000  0.115
    2  0.106  0.008  0.000  0.115
tot    0.212  0.017  0.000  0.229
    1  0.040  0.003  0.000  0.043
    2  0.040  0.003  0.000  0.043
tot    0.080  0.006  0.000  0.087
    1  0.298  0.024  0.000  0.322
    2  0.298  0.024  0.000  0.322
tot    0.596  0.048  0.000  0.644
 
band     3 # energy  -14.50255429 # occ.  1.00000000
 
ion      s      p      d    tot
    1  0.148  0.132  0.000  0.280
    2  0.148  0.132  0.000  0.280
tot    0.296  0.263  0.000  0.560
    1  0.133  0.118  0.000  0.251
    2  0.133  0.118  0.000  0.251
tot    0.266  0.236  0.000  0.502
    1  0.016  0.014  0.000  0.030
    2  0.016  0.014  0.000  0.030
tot    0.032  0.028  0.000  0.060
    1 -0.063 -0.056  0.000 -0.120
    2 -0.063 -0.056  0.000 -0.120
tot   -0.127 -0.113  0.000 -0.240
 
band     4 # energy  -14.50248365 # occ.  1.00000000
 
ion      s      p      d    tot
    1  0.148  0.132  0.000  0.280
    2  0.148  0.132  0.000  0.280
tot    0.296  0.263  0.000  0.560
    1 -0.133 -0.118  0.000 -0.251
    2 -0.133 -0.118  0.000 -0.251
tot   -0.266 -0.236  0.000 -0.502
    1 -0.016 -0.014  0.000 -0.030
    2 -0.016 -0.014  0.000 -0.030
tot   -0.032 -0.028  0.000 -0.060
    1  0.063  0.056  0.000  0.120
    2  0.063  0.056  0.000  0.120
tot    0.127  0.113  0.000  0.240
 
band     5 # energy   -8.40203471 # occ.  1.00000000
 
ion      s      p      d    tot
    1  0.000  0.424  0.000  0.424
    2  0.000  0.424  0.000  0.424
tot    0.000  0.847  0.000  0.847
    1  0.000 -0.000  0.000 -0.000
    2  0.000 -0.000  0.000 -0.000
tot    0.000 -0.001  0.000 -0.001
    1 -0.000 -0.000  0.000 -0.000
    2 -0.000 -0.000  0.000 -0.000
tot   -0.000 -0.001  0.000 -0.001
    1  0.000 -0.396  0.000 -0.396
    2  0.000 -0.396  0.000 -0.396
tot    0.000 -0.791  0.000 -0.791
 
band     6 # energy   -8.40198555 # occ.  1.00000000
 
ion      s      p      d    tot
    1  0.000  0.424  0.000  0.424
    2  0.000  0.424  0.000  0.424
tot    0.000  0.847  0.000  0.847
    1 -0.000 -0.001  0.000 -0.001
    2 -0.000 -0.001  0.000 -0.001
tot   -0.000 -0.001  0.000 -0.001
    1  0.000 -0.000  0.000 -0.000
    2  0.000 -0.000  0.000 -0.000
tot    0.000 -0.000  0.000 -0.000
    1 -0.000  0.396  0.000  0.396
    2 -0.000  0.396  0.000  0.396
tot   -0.000  0.791  0.000  0.791
 
band     7 # energy   -8.38505619 # occ.  1.00000000
 
ion      s      p      d    tot
    1  0.000  0.424  0.000  0.424
    2  0.000  0.424  0.000  0.424
tot    0.000  0.847  0.000  0.847
    1  0.000  0.000  0.000  0.000
    2  0.000  0.000  0.000  0.000
tot    0.000  0.001  0.000  0.001
    1 -0.000  0.000  0.000  0.000
    2 -0.000  0.000  0.000  0.000
tot   -0.000  0.001  0.000  0.001
    1 -0.000 -0.405  0.000 -0.405
    2 -0.000 -0.405  0.000 -0.405
tot   -0.000 -0.810  0.000 -0.810
 
band     8 # energy   -8.38500828 # occ.  1.00000000
 
ion      s      p      d    tot
    1  0.000  0.424  0.000  0.424
    2  0.000  0.424  0.000  0.424
tot    0.000  0.847  0.000  0.847
    1 -0.000  0.001  0.000  0.001
    2 -0.000  0.001  0.000  0.001
tot   -0.000  0.001  0.000  0.001
    1 -0.000  0.000  0.000  0.000
    2 -0.000  0.000  0.000  0.000
tot   -0.000  0.000  0.000  0.000
    1  0.000  0.405  0.000  0.405
    2  0.000  0.405  0.000  0.405
tot    0.000  0.810  0.000  0.810
 
band     9 # energy   -5.63184722 # occ.  1.00000000
 
ion      s      p      d    tot
    1  0.003  0.276  0.000  0.279
    2  0.003  0.276  0.000  0.279
tot    0.006  0.553  0.000  0.558
    1 -0.001 -0.099  0.000 -0.100
    2 -0.001 -0.099  0.000 -0.100
tot   -0.002 -0.198  0.000 -0.200
    1 -0.002 -0.148  0.000 -0.149
    2 -0.002 -0.148  0.000 -0.149
tot   -0.003 -0.295  0.000 -0.298
    1 -0.002 -0.211  0.000 -0.214
    2 -0.002 -0.211  0.000 -0.214
tot   -0.004 -0.423  0.000 -0.427
 
band    10 # energy   -5.63157571 # occ.  1.00000000
 
ion      s      p      d    tot
    1  0.003  0.276  0.000  0.279
    2  0.003  0.276  0.000  0.279
tot    0.006  0.553  0.000  0.558
    1  0.001  0.099  0.000  0.100
    2  0.001  0.099  0.000  0.100
tot    0.002  0.198  0.000  0.200
    1  0.002  0.148  0.000  0.149
    2  0.002  0.148  0.000  0.149
tot    0.003  0.295  0.000  0.298
    1  0.002  0.211  0.000  0.214
    2  0.002  0.211  0.000  0.214
tot    0.004  0.423  0.000  0.427
 
band    11 # energy   -0.04606429 # occ.  0.00000000
 
ion      s      p      d    tot
    1  0.000  0.390  0.000  0.390
    2  0.000  0.390  0.000  0.390
tot    0.000  0.780  0.000  0.781
    1 -0.000 -0.000  0.000 -0.000
    2 -0.000 -0.000  0.000 -0.000
tot   -0.000 -0.000  0.000 -0.000
    1 -0.000 -0.000  0.000 -0.000
    2 -0.000 -0.000  0.000 -0.000
tot   -0.000 -0.000  0.000 -0.001
    1  0.000 -0.253  0.000 -0.253
    2  0.000 -0.253  0.000 -0.253
tot    0.000 -0.505  0.000 -0.505
 
band    12 # energy   -0.04604749 # occ.  0.00000000
 
ion      s      p      d    tot
    1  0.000  0.390  0.000  0.390
    2  0.000  0.390  0.000  0.390
tot    0.000  0.780  0.000  0.781
    1  0.000  0.000  0.000  0.000
    2  0.000  0.000  0.000  0.000
tot    0.000  0.001  0.000  0.001
    1  0.000  0.000  0.000  0.000
    2  0.000  0.000  0.000  0.000
tot    0.000  0.000  0.000  0.001
    1 -0.000  0.253  0.000  0.253
    2 -0.000  0.253  0.000  0.253
tot   -0.000  0.505  0.000  0.505
 
band    13 # energy   -0.02614689 # occ.  0.00000000
 
ion      s      p      d    tot
    1  0.000  0.390  0.000  0.390
    2  0.000  0.390  0.000  0.390
tot    0.000  0.780  0.000  0.780
    1 -0.000  0.000  0.000  0.000
    2 -0.000  0.000  0.000  0.000
tot   -0.000  0.000  0.000  0.000
    1 -0.000  0.000  0.000  0.000
    2 -0.000  0.000  0.000  0.000
tot   -0.000  0.000  0.000  0.000
    1 -0.000 -0.182  0.000 -0.182
    2 -0.000 -0.182  0.000 -0.182
tot   -0.000 -0.364  0.000 -0.364
 
band    14 # energy   -0.02612263 # occ.  0.00000000
 
ion      s      p      d    tot
    1  0.000  0.390  0.000  0.390
    2  0.000  0.390  0.000  0.390
tot    0.000  0.780  0.000  0.780
    1  0.000 -0.000  0.000 -0.000
    2  0.000 -0.000  0.000 -0.000
tot    0.000 -0.001  0.000 -0.001
    1  0.000 -0.000  0.000 -0.000
    2  0.000 -0.000  0.000 -0.000
tot    0.000 -0.000  0.000 -0.000
    1 -0.000  0.182  0.000  0.182
    2 -0.000  0.182  0.000  0.182
tot   -0.000  0.364  0.000  0.364
 
band    15 # energy    0.31399273 # occ.  0.00000000
 
ion      s      p      d    tot
    1  0.297  0.147  0.000  0.444
    2  0.297  0.147  0.000  0.444
tot    0.595  0.294  0.000  0.888
    1 -0.138 -0.068  0.000 -0.206
    2 -0.138 -0.068  0.000 -0.206
tot   -0.276 -0.136  0.000 -0.412
    1 -0.097 -0.048  0.000 -0.145
    2 -0.097 -0.048  0.000 -0.145
tot   -0.195 -0.096  0.000 -0.291
    1 -0.245 -0.121  0.000 -0.365
    2 -0.245 -0.121  0.000 -0.365
tot   -0.489 -0.241  0.000 -0.730
 
band    16 # energy    0.31481620 # occ.  0.00000000
 
ion      s      p      d    tot
    1  0.297  0.147  0.000  0.444
    2  0.297  0.147  0.000  0.444
tot    0.595  0.294  0.000  0.888
    1  0.138  0.068  0.000  0.206
    2  0.138  0.068  0.000  0.206
tot    0.276  0.136  0.000  0.412
    1  0.097  0.048  0.000  0.145
    2  0.097  0.048  0.000  0.145
tot    0.195  0.096  0.000  0.291
    1  0.245  0.121  0.000  0.365
    2  0.245  0.121  0.000  0.365
tot    0.489  0.241  0.000  0.730
 
band    17 # energy    2.07863192 # occ.  0.00000000
 
ion      s      p      d    tot
    1  0.001  0.012  0.000  0.013
    2  0.001  0.012  0.000  0.013
tot    0.002  0.024  0.000  0.025
    1 -0.000 -0.007  0.000 -0.007
    2 -0.000 -0.007  0.000 -0.007
tot   -0.001 -0.014  0.000 -0.015
    1 -0.000 -0.002  0.000 -0.003
    2 -0.000 -0.002  0.000 -0.003
tot   -0.000 -0.005  0.000 -0.005
    1  0.001  0.009  0.000  0.010
    2  0.001  0.009  0.000  0.010
tot    0.001  0.019  0.000  0.020
 
band    18 # energy    2.07923784 # occ.  0.00000000
 
ion      s      p      d    tot
    1  0.001  0.012  0.000  0.013
    2  0.001  0.012  0.000  0.013
tot    0.002  0.024  0.000  0.025
    1  0.000  0.007  0.000  0.007
    2  0.000  0.007  0.000  0.007
tot    0.001  0.014  0.000  0.015
    1  0.000  0.002  0.000  0.003
    2  0.000  0.002  0.000  0.003
tot    0.000  0.005  0.000  0.005
    1 -0.001 -0.009  0.000 -0.010
    2 -0.001 -0.009  0.000 -0.010
tot   -0.001 -0.019  0.000 -0.020
 
band    19 # energy    2.23520467 # occ.  0.00000000
 
ion      s      p      d    tot
    1  0.002  0.017  0.000  0.018
    2  0.002  0.017  0.000  0.018
tot    0.004  0.033  0.000  0.037
    1 -0.001 -0.013  0.000 -0.014
    2 -0.001 -0.013  0.000 -0.014
tot   -0.003 -0.026  0.000 -0.028
    1 -0.001 -0.006  0.000 -0.007
    2 -0.001 -0.006  0.000 -0.007
tot   -0.001 -0.012  0.000 -0.013
    1  0.001  0.009  0.000  0.009
    2  0.001  0.009  0.000  0.009
tot    0.002  0.017  0.000  0.019
 
band    20 # energy    2.23570281 # occ.  0.00000000
 
ion      s      p      d    tot
    1  0.002  0.017  0.000  0.018
    2  0.002  0.017  0.000  0.018
tot    0.004  0.033  0.000  0.037
    1  0.001  0.013  0.000  0.014
    2  0.001  0.013  0.000  0.014
tot    0.003  0.026  0.000  0.028
    1  0.001  0.006  0.000  0.007
    2  0.001  0.006  0.000  0.007
tot    0.001  0.012  0.000  0.013
    1 -0.001 -0.009  0.000 -0.009
    2 -0.001 -0.009  0.000 -0.009
tot   -0.002 -0.017  0.000 -0.019
 
band    21 # energy    3.31772935 # occ.  0.00000000
 
ion      s      p      d    tot
    1  0.002  0.020  0.000  0.022
    2  0.002  0.020  0.000  0.022
tot    0.005  0.039  0.000  0.044
    1 -0.002 -0.014  0.000 -0.016
    2 -0.002 -0.014  0.000 -0.016
tot   -0.004 -0.028  0.000 -0.032
    1 -0.002 -0.013  0.000 -0.015
    2 -0.002 -0.013  0.000 -0.015
tot   -0.003 -0.026  0.000 -0.029
    1 -0.001 -0.004  0.000 -0.005
    2 -0.001 -0.004  0.000 -0.005
tot   -0.001 -0.008  0.000 -0.010
 
band    22 # energy    3.31852367 # occ.  0.00000000
 
ion      s      p      d    tot
    1  0.002  0.020  0.000  0.022
    2  0.002  0.020  0.000  0.022
tot    0.005  0.039  0.000  0.044
    1  0.002  0.014  0.000  0.016
    2  0.002  0.014  0.000  0.016
tot    0.004  0.028  0.000  0.032
    1  0.002  0.013  0.000  0.015
    2  0.002  0.013  0.000  0.015
tot    0.003  0.026  0.000  0.029
    1  0.001  0.004  0.000  0.005
    2  0.001  0.004  0.000  0.005
tot    0.001  0.008  0.000  0.010
 
band    23 # energy    4.30531907 # occ.  0.00000000
 
ion      s      p      d    tot
    1  0.002  0.007  0.000  0.010
    2  0.002  0.007  0.000  0.010
tot    0.005  0.014  0.000  0.019
    1 -0.002 -0.006  0.000 -0.008
    2 -0.002 -0.006  0.000 -0.008
tot   -0.004 -0.012  0.000 -0.016
    1 -0.001 -0.004  0.000 -0.005
    2 -0.001 -0.004  0.000 -0.005
tot   -0.003 -0.007  0.000 -0.010
    1 -0.000 -0.001  0.000 -0.001
    2 -0.000 -0.001  0.000 -0.001
tot   -0.000 -0.001  0.000 -0.002
 
band    24 # energy    4.30584359 # occ.  0.00000000
 
ion      s      p      d    tot
    1  0.002  0.007  0.000  0.010
    2  0.002  0.007  0.000  0.010
tot    0.005  0.014  0.000  0.019
    1  0.002  0.006  0.000  0.008
    2  0.002  0.006  0.000  0.008
tot    0.004  0.012  0.000  0.016
    1  0.001  0.004  0.000  0.005
    2  0.001  0.004  0.000  0.005
tot    0.003  0.008  0.000  0.010
    1  0.000  0.001  0.000  0.001
    2  0.000  0.001  0.000  0.001
tot    0.000  0.001  0.000  0.002
 
band    25 # energy    6.12249352 # occ.  0.00000000
 
ion      s      p      d    tot
    1  0.006  0.030  0.000  0.035
    2  0.006  0.030  0.000  0.035
tot    0.011  0.059  0.000  0.071
    1  0.002  0.010  0.000  0.012
    2  0.002  0.010  0.000  0.012
tot    0.004  0.021  0.000  0.025
    1  0.004  0.021  0.000  0.026
    2  0.004  0.021  0.000  0.026
tot    0.008  0.043  0.000  0.051
    1  0.003  0.018  0.000  0.021
    2  0.003  0.018  0.000  0.021
tot    0.007  0.035  0.000  0.042
 
band    26 # energy    6.12258332 # occ.  0.00000000
 
ion      s      p      d    tot
    1  0.006  0.030  0.000  0.035
    2  0.006  0.030  0.000  0.035
tot    0.011  0.059  0.000  0.071
    1 -0.002 -0.010  0.000 -0.012
    2 -0.002 -0.010  0.000 -0.012
tot   -0.004 -0.021  0.000 -0.025
    1 -0.004 -0.021  0.000 -0.026
    2 -0.004 -0.021  0.000 -0.026
tot   -0.008 -0.043  0.000 -0.051
    1 -0.003 -0.018  0.000 -0.021
    2 -0.003 -0.018  0.000 -0.021
tot   -0.007 -0.035  0.000 -0.042
 
band    27 # energy    7.73432217 # occ.  0.00000000
 
ion      s      p      d    tot
    1  0.005  0.010  0.000  0.015
    2  0.005  0.010  0.000  0.015
tot    0.011  0.020  0.000  0.031
    1 -0.004 -0.008  0.000 -0.012
    2 -0.004 -0.008  0.000 -0.012
tot   -0.008 -0.016  0.000 -0.024
    1 -0.002 -0.005  0.000 -0.007
    2 -0.002 -0.005  0.000 -0.007
tot   -0.005 -0.009  0.000 -0.014
    1 -0.002 -0.004  0.000 -0.007
    2 -0.002 -0.004  0.000 -0.007
tot   -0.005 -0.009  0.000 -0.013
 
band    28 # energy    7.73483593 # occ.  0.00000000
 
ion      s      p      d    tot
    1  0.005  0.010  0.000  0.015
    2  0.005  0.010  0.000  0.015
tot    0.011  0.020  0.000  0.031
    1  0.004  0.008  0.000  0.012
    2  0.004  0.008  0.000  0.012
tot    0.008  0.016  0.000  0.024
    1  0.002  0.005  0.000  0.007
    2  0.002  0.005  0.000  0.007
tot    0.005  0.009  0.000  0.014
    1  0.002  0.004  0.000  0.007
    2  0.002  0.004  0.000  0.007
tot    0.005  0.009  0.000  0.013
 
band    29 # energy   10.13370550 # occ.  0.00000000
 
ion      s      p      d    tot
    1  0.011  0.033  0.000  0.044
    2  0.011  0.033  0.000  0.044
tot    0.022  0.065  0.000  0.088
    1 -0.009 -0.026  0.000 -0.035
    2 -0.009 -0.026  0.000 -0.035
tot   -0.018 -0.052  0.000 -0.070
    1 -0.006 -0.017  0.000 -0.023
    2 -0.006 -0.017  0.000 -0.023
tot   -0.012 -0.034  0.000 -0.046
    1 -0.003 -0.010  0.000 -0.013
    2 -0.003 -0.010  0.000 -0.013
tot   -0.007 -0.020  0.000 -0.027
 
band    30 # energy   10.13470507 # occ.  0.00000000
 
ion      s      p      d    tot
    1  0.011  0.033  0.000  0.044
    2  0.011  0.033  0.000  0.044
tot    0.022  0.065  0.000  0.088
    1  0.009  0.026  0.000  0.035
    2  0.009  0.026  0.000  0.035
tot    0.018  0.052  0.000  0.070
    1  0.006  0.017  0.000  0.023
    2  0.006  0.017  0.000  0.023
tot    0.012  0.034  0.000  0.046
    1  0.003  0.010  0.000  0.013
    2  0.003  0.010  0.000  0.013
tot    0.007  0.020  0.000  0.027
 
band    31 # energy   12.52338117 # occ.  0.00000000
 
ion      s      p      d    tot
    1  0.008  0.014  0.000  0.022
    2  0.008  0.014  0.000  0.022
tot    0.015  0.028  0.000  0.044
    1 -0.005 -0.010  0.000 -0.015
    2 -0.005 -0.010  0.000 -0.015
tot   -0.011 -0.020  0.000 -0.030
    1 -0.004 -0.007  0.000 -0.011
    2 -0.004 -0.007  0.000 -0.011
tot   -0.008 -0.015  0.000 -0.023
    1  0.004  0.007  0.000  0.011
    2  0.004  0.007  0.000  0.011
tot    0.007  0.014  0.000  0.021
 
band    32 # energy   12.52404254 # occ.  0.00000000
 
ion      s      p      d    tot
    1  0.008  0.014  0.000  0.022
    2  0.008  0.014  0.000  0.022
tot    0.015  0.028  0.000  0.044
    1  0.005  0.010  0.000  0.015
    2  0.005  0.010  0.000  0.015
tot    0.011  0.020  0.000  0.030
    1  0.004  0.007  0.000  0.011
    2  0.004  0.007  0.000  0.011
tot    0.008  0.015  0.000  0.023
    1 -0.004 -0.007  0.000 -0.011
    2 -0.004 -0.007  0.000 -0.011
tot   -0.007 -0.014  0.000 -0.021
 

 k-point     2 :    0.01360544-0.00680272 0.00000000     weight = 0.00666667

band     1 # energy  -30.03381547 # occ.  1.00000000
 
ion      s      p      d    tot
    1  0.319  0.026  0.000  0.344
    2  0.319  0.026  0.000  0.344
tot    0.638  0.051  0.000  0.689
    1 -0.106 -0.009  0.000 -0.115
    2 -0.106 -0.009  0.000 -0.115
tot   -0.212 -0.017  0.000 -0.229
    1 -0.040 -0.003  0.000 -0.043
    2 -0.040 -0.003  0.000 -0.043
tot   -0.080 -0.006  0.000 -0.087
    1 -0.298 -0.024  0.000 -0.322
    2 -0.298 -0.024  0.000 -0.322
tot   -0.596 -0.048  0.000 -0.644
 
band     2 # energy  -30.03363423 # occ.  1.00000000
 
ion      s      p      d    tot
    1  0.319  0.026  0.000  0.344
    2  0.319  0.026  0.000  0.344
tot    0.638  0.051  0.000  0.689
    1  0.106  0.008  0.000  0.115
    2  0.106  0.008  0.000  0.115
tot    0.212  0.017  0.000  0.229
    1  0.040  0.003  0.000  0.043
    2  0.040  0.003  0.000  0.043
tot    0.080  0.006  0.000  0.087
    1  0.298  0.024  0.000  0.322
    2  0.298  0.024  0.000  0.322
tot    0.596  0.048  0.000  0.644
 
band     3 # energy  -14.49885605 # occ.  1.00000000
 
ion      s      p      d    tot
    1  0.148  0.132  0.000  0.280
    2  0.148  0.132  0.000  0.280
tot    0.297  0.263  0.000  0.560
    1  0.133  0.118  0.000  0.251
    2  0.133  0.118  0.000  0.251
tot    0.266  0.236  0.000  0.502
    1  0.016  0.014  0.000  0.030
    2  0.016  0.014  0.000  0.030
tot    0.032  0.028  0.000  0.060
    1 -0.063 -0.056  0.000 -0.120
    2 -0.063 -0.056  0.000 -0.120
tot   -0.127 -0.113  0.000 -0.239
 
band     4 # energy  -14.49878542 # occ.  1.00000000
 
ion      s      p      d    tot
    1  0.148  0.132  0.000  0.280
    2  0.148  0.132  0.000  0.280
tot    0.297  0.263  0.000  0.560
    1 -0.133 -0.118  0.000 -0.251
    2 -0.133 -0.118  0.000 -0.251
tot   -0.266 -0.236  0.000 -0.502
    1 -0.016 -0.014  0.000 -0.030
    2 -0.016 -0.014  0.000 -0.030
tot   -0.032 -0.028  0.000 -0.060
    1  0.063  0.056  0.000  0.120
    2  0.063  0.056  0.000  0.120
tot    0.127  0.113  0.000  0.239
 
band     5 # energy   -8.42058350 # occ.  1.00000000
 
ion      s      p      d    tot
    1  0.001  0.423  0.000  0.423
    2  0.001  0.423  0.000  0.423
tot    0.001  0.846  0.000  0.847
    1 -0.000 -0.151  0.000 -0.152
    2 -0.000 -0.151  0.000 -0.152
tot   -0.001 -0.303  0.000 -0.303
    1 -0.000 -0.051  0.000 -0.051
    2 -0.000 -0.051  0.000 -0.051
tot   -0.000 -0.102  0.000 -0.102
    1 -0.001 -0.354  0.000 -0.354
    2 -0.001 -0.354  0.000 -0.354
tot   -0.001 -0.707  0.000 -0.709
 
band     6 # energy   -8.42052705 # occ.  1.00000000
 
ion      s      p      d    tot
    1  0.001  0.423  0.000  0.423
    2  0.001  0.423  0.000  0.423
tot    0.001  0.846  0.000  0.847
    1  0.000  0.151  0.000  0.151
    2  0.000  0.151  0.000  0.151
tot    0.001  0.302  0.000  0.303
    1  0.000  0.051  0.000  0.051
    2  0.000  0.051  0.000  0.051
tot    0.000  0.102  0.000  0.102
    1  0.001  0.354  0.000  0.354
    2  0.001  0.354  0.000  0.354
tot    0.001  0.707  0.000  0.709
 
band     7 # energy   -8.39722756 # occ.  1.00000000
 
ion      s      p      d    tot
    1  0.000  0.423  0.000  0.423
    2  0.000  0.423  0.000  0.424
tot    0.000  0.847  0.000  0.847
    1  0.000 -0.034  0.000 -0.034
    2  0.000 -0.034  0.000 -0.034
tot    0.000 -0.068  0.000 -0.068
    1  0.000 -0.101  0.000 -0.101
    2  0.000 -0.101  0.000 -0.101
tot    0.000 -0.202  0.000 -0.202
    1 -0.000 -0.394  0.000 -0.394
    2 -0.000 -0.394  0.000 -0.394
tot   -0.000 -0.789  0.000 -0.789
 
band     8 # energy   -8.39717869 # occ.  1.00000000
 
ion      s      p      d    tot
    1  0.000  0.423  0.000  0.424
    2  0.000  0.423  0.000  0.423
tot    0.000  0.847  0.000  0.847
    1 -0.000  0.034  0.000  0.034
    2 -0.000  0.034  0.000  0.034
tot   -0.000  0.068  0.000  0.068
    1 -0.000  0.101  0.000  0.101
    2 -0.000  0.101  0.000  0.101
tot   -0.000  0.202  0.000  0.202
    1  0.000  0.394  0.000  0.394
    2  0.000  0.394  0.000  0.394
tot    0.000  0.789  0.000  0.789
 
band     9 # energy   -5.62990228 # occ.  1.00000000
 
ion      s      p      d    tot
    1  0.003  0.276  0.000  0.279
    2  0.003  0.276  0.000  0.279
tot    0.006  0.553  0.000  0.558
    1 -0.001 -0.099  0.000 -0.100
    2 -0.001 -0.099  0.000 -0.100
tot   -0.002 -0.198  0.000 -0.200
    1 -0.002 -0.148  0.000 -0.149
    2 -0.002 -0.148  0.000 -0.149
tot   -0.003 -0.295  0.000 -0.298
    1 -0.002 -0.212  0.000 -0.214
    2 -0.002 -0.212  0.000 -0.214
tot   -0.004 -0.423  0.000 -0.427
 
band    10 # energy   -5.62963079 # occ.  1.00000000
 
ion      s      p      d    tot
    1  0.003  0.276  0.000  0.279
    2  0.003  0.276  0.000  0.279
tot    0.006  0.553  0.000  0.558
    1  0.001  0.099  0.000  0.100
    2  0.001  0.099  0.000  0.100
tot    0.002  0.198  0.000  0.200
    1  0.002  0.148  0.000  0.149
    2  0.002  0.148  0.000  0.149
tot    0.003  0.295  0.000  0.298
    1  0.002  0.212  0.000  0.214
    2  0.002  0.212  0.000  0.214
tot    0.004  0.423  0.000  0.427
 
band    11 # energy   -0.04332017 # occ.  0.00000000
 
ion      s      p      d    tot
    1  0.000  0.391  0.000  0.391
    2  0.001  0.389  0.000  0.390
tot    0.001  0.780  0.000  0.780
    1 -0.000  0.014  0.000  0.014
    2 -0.000  0.014  0.000  0.014
tot   -0.000  0.029  0.000  0.029
    1  0.000 -0.106  0.000 -0.106
    2 -0.001 -0.104  0.000 -0.105
tot   -0.001 -0.210  0.000 -0.210
    1  0.000 -0.288  0.000 -0.288
    2 -0.000 -0.287  0.000 -0.287
tot   -0.000 -0.575  0.000 -0.575
 
band    12 # energy   -0.04330158 # occ.  0.00000000
 
ion      s      p      d    tot
    1  0.001  0.389  0.000  0.390
    2  0.000  0.391  0.000  0.391
tot    0.001  0.780  0.000  0.780
    1  0.000 -0.014  0.000 -0.014
    2  0.000 -0.014  0.000 -0.014
tot    0.000 -0.029  0.000 -0.029
    1  0.001  0.104  0.000  0.105
    2 -0.000  0.106  0.000  0.106
tot    0.001  0.210  0.000  0.211
    1  0.000  0.287  0.000  0.287
    2 -0.000  0.288  0.000  0.288
tot    0.000  0.575  0.000  0.575
 
band    13 # energy   -0.02175086 # occ.  0.00000000
 
ion      s      p      d    tot
    1  0.000  0.390  0.000  0.390
    2  0.000  0.390  0.000  0.390
tot    0.000  0.780  0.000  0.780
    1  0.000  0.113  0.000  0.113
    2  0.000  0.113  0.000  0.113
tot    0.000  0.225  0.000  0.225
    1 -0.000 -0.084  0.000 -0.084
    2 -0.000 -0.085  0.000 -0.085
tot   -0.000 -0.169  0.000 -0.169
    1 -0.000 -0.154  0.000 -0.154
    2  0.000 -0.155  0.000 -0.155
tot   -0.000 -0.309  0.000 -0.309
 
band    14 # energy   -0.02172746 # occ.  0.00000000
 
ion      s      p      d    tot
    1  0.000  0.390  0.000  0.390
    2  0.000  0.390  0.000  0.390
tot    0.000  0.780  0.000  0.780
    1 -0.000 -0.113  0.000 -0.113
    2 -0.000 -0.113  0.000 -0.113
tot   -0.000 -0.225  0.000 -0.225
    1  0.000  0.084  0.000  0.084
    2  0.000  0.084  0.000  0.084
tot    0.000  0.168  0.000  0.169
    1 -0.000  0.155  0.000  0.155
    2  0.000  0.154  0.000  0.154
tot    0.000  0.309  0.000  0.309
 
band    15 # energy    0.32811175 # occ.  0.00000000
 
ion      s      p      d    tot
    1  0.296  0.148  0.000  0.444
    2  0.296  0.148  0.000  0.444
tot    0.592  0.296  0.000  0.888
    1 -0.138 -0.069  0.000 -0.206
    2 -0.138 -0.069  0.000 -0.206
tot   -0.275 -0.137  0.000 -0.413
    1 -0.097 -0.047  0.000 -0.145
    2 -0.097 -0.049  0.000 -0.146
tot   -0.194 -0.096  0.000 -0.290
    1 -0.244 -0.122  0.000 -0.365
    2 -0.244 -0.122  0.000 -0.365
tot   -0.487 -0.243  0.000 -0.731
 
band    16 # energy    0.32893316 # occ.  0.00000000
 
ion      s      p      d    tot
    1  0.296  0.148  0.000  0.444
    2  0.296  0.148  0.000  0.444
tot    0.592  0.296  0.000  0.888
    1  0.138  0.069  0.000  0.206
    2  0.138  0.069  0.000  0.206
tot    0.275  0.137  0.000  0.413
    1  0.097  0.049  0.000  0.146
    2  0.097  0.047  0.000  0.145
tot    0.194  0.096  0.000  0.290
    1  0.244  0.122  0.000  0.365
    2  0.244  0.122  0.000  0.365
tot    0.487  0.243  0.000  0.731
 
band    17 # energy    2.08381641 # occ.  0.00000000
 
ion      s      p      d    tot
    1  0.001  0.012  0.000  0.013
    2  0.001  0.012  0.000  0.013
tot    0.002  0.024  0.000  0.026
    1 -0.000 -0.007  0.000 -0.007
    2 -0.000 -0.007  0.000 -0.007
tot   -0.001 -0.014  0.000 -0.015
    1 -0.000 -0.002  0.000 -0.003
    2 -0.000 -0.002  0.000 -0.003
tot   -0.000 -0.005  0.000 -0.005
    1  0.001  0.009  0.000  0.010
    2  0.001  0.009  0.000  0.010
tot    0.001  0.019  0.000  0.020
 
band    18 # energy    2.08442225 # occ.  0.00000000
 
ion      s      p      d    tot
    1  0.001  0.012  0.000  0.013
    2  0.001  0.012  0.000  0.013
tot    0.002  0.024  0.000  0.026
    1  0.000  0.007  0.000  0.007
    2  0.000  0.007  0.000  0.007
tot    0.001  0.014  0.000  0.015
    1  0.000  0.002  0.000  0.003
    2  0.000  0.002  0.000  0.003
tot    0.000  0.005  0.000  0.005
    1 -0.001 -0.009  0.000 -0.010
    2 -0.001 -0.009  0.000 -0.010
tot   -0.001 -0.019  0.000 -0.020
 
band    19 # energy    2.24026815 # occ.  0.00000000
 
ion      s      p      d    tot
    1  0.002  0.017  0.000  0.018
    2  0.002  0.017  0.000  0.018
tot    0.003  0.033  0.000  0.037
    1 -0.001 -0.013  0.000 -0.014
    2 -0.001 -0.013  0.000 -0.014
tot   -0.003 -0.026  0.000 -0.028
    1 -0.001 -0.006  0.000 -0.007
    2 -0.001 -0.006  0.000 -0.007
tot   -0.001 -0.012  0.000 -0.013
    1  0.001  0.009  0.000  0.010
    2  0.001  0.009  0.000  0.010
tot    0.002  0.017  0.000  0.019
 
band    20 # energy    2.24076635 # occ.  0.00000000
 
ion      s      p      d    tot
    1  0.002  0.017  0.000  0.018
    2  0.002  0.017  0.000  0.018
tot    0.003  0.033  0.000  0.037
    1  0.001  0.013  0.000  0.014
    2  0.001  0.013  0.000  0.014
tot    0.003  0.026  0.000  0.028
    1  0.001  0.006  0.000  0.007
    2  0.001  0.006  0.000  0.007
tot    0.001  0.012  0.000  0.013
    1 -0.001 -0.009  0.000 -0.009
    2 -0.001 -0.009  0.000 -0.009
tot   -0.002 -0.017  0.000 -0.019
 
band    21 # energy    3.32267914 # occ.  0.00000000
 
ion      s      p      d    tot
    1  0.002  0.020  0.000  0.022
    2  0.002  0.020  0.000  0.022
tot    0.005  0.039  0.000  0.044
    1 -0.002 -0.014  0.000 -0.016
    2 -0.002 -0.014  0.000 -0.016
tot   -0.004 -0.028  0.000 -0.032
    1 -0.002 -0.013  0.000 -0.015
    2 -0.002 -0.013  0.000 -0.015
tot   -0.003 -0.026  0.000 -0.029
    1 -0.001 -0.004  0.000 -0.005
    2 -0.001 -0.004  0.000 -0.005
tot   -0.001 -0.008  0.000 -0.010
 
band    22 # energy    3.32347359 # occ.  0.00000000
 
ion      s      p      d    tot
    1  0.002  0.020  0.000  0.022
    2  0.002  0.020  0.000  0.022
tot    0.005  0.039  0.000  0.044
    1  0.002  0.014  0.000  0.016
    2  0.002  0.014  0.000  0.016
tot    0.004  0.028  0.000  0.032
    1  0.002  0.013  0.000  0.015
    2  0.002  0.013  0.000  0.015
tot    0.003  0.026  0.000  0.029
    1  0.001  0.004  0.000  0.005
    2  0.001  0.004  0.000  0.005
tot    0.001  0.008  0.000  0.010
 
band    23 # energy    4.31047566 # occ.  0.00000000
 
ion      s      p      d    tot
    1  0.002  0.007  0.000  0.010
    2  0.002  0.007  0.000  0.010
tot    0.005  0.014  0.000  0.019
    1 -0.002 -0.006  0.000 -0.008
    2 -0.002 -0.006  0.000 -0.008
tot   -0.004 -0.012  0.000 -0.016
    1 -0.001 -0.004  0.000 -0.005
    2 -0.001 -0.004  0.000 -0.005
tot   -0.003 -0.007  0.000 -0.010
    1 -0.000 -0.001  0.000 -0.001
    2 -0.000 -0.001  0.000 -0.001
tot   -0.000 -0.001  0.000 -0.002
 
band    24 # energy    4.31100012 # occ.  0.00000000
 
ion      s      p      d    tot
    1  0.002  0.007  0.000  0.010
    2  0.002  0.007  0.000  0.010
tot    0.005  0.014  0.000  0.019
    1  0.002  0.006  0.000  0.008
    2  0.002  0.006  0.000  0.008
tot    0.004  0.012  0.000  0.016
    1  0.001  0.004  0.000  0.005
    2  0.001  0.004  0.000  0.005
tot    0.003  0.008  0.000  0.010
    1  0.000  0.001  0.000  0.001
    2  0.000  0.001  0.000  0.001
tot    0.000  0.001  0.000  0.002
 
band    25 # energy    6.12702417 # occ.  0.00000000
 
ion      s      p      d    tot
    1  0.006  0.030  0.000  0.035
    2  0.006  0.030  0.000  0.035
tot    0.011  0.059  0.000  0.071
    1  0.002  0.010  0.000  0.012
    2  0.002  0.010  0.000  0.012
tot    0.004  0.021  0.000  0.025
    1  0.004  0.021  0.000  0.026
    2  0.004  0.021  0.000  0.026
tot    0.008  0.043  0.000  0.051
    1  0.003  0.018  0.000  0.021
    2  0.003  0.018  0.000  0.021
tot    0.007  0.035  0.000  0.042
 
band    26 # energy    6.12711391 # occ.  0.00000000
 
ion      s      p      d    tot
    1  0.006  0.030  0.000  0.035
    2  0.006  0.030  0.000  0.035
tot    0.011  0.059  0.000  0.071
    1 -0.002 -0.010  0.000 -0.012
    2 -0.002 -0.010  0.000 -0.012
tot   -0.004 -0.021  0.000 -0.025
    1 -0.004 -0.021  0.000 -0.026
    2 -0.004 -0.021  0.000 -0.026
tot   -0.008 -0.043  0.000 -0.051
    1 -0.003 -0.018  0.000 -0.021
    2 -0.003 -0.018  0.000 -0.021
tot   -0.007 -0.035  0.000 -0.042
 
band    27 # energy    7.73933633 # occ.  0.00000000
 
ion      s      p      d    tot
    1  0.005  0.010  0.000  0.015
    2  0.005  0.010  0.000  0.015
tot    0.011  0.020  0.000  0.031
    1 -0.004 -0.008  0.000 -0.012
    2 -0.004 -0.008  0.000 -0.012
tot   -0.008 -0.016  0.000 -0.024
    1 -0.002 -0.005  0.000 -0.007
    2 -0.002 -0.005  0.000 -0.007
tot   -0.005 -0.009  0.000 -0.014
    1 -0.002 -0.004  0.000 -0.007
    2 -0.002 -0.004  0.000 -0.007
tot   -0.005 -0.009  0.000 -0.013
 
band    28 # energy    7.73985019 # occ.  0.00000000
 
ion      s      p      d    tot
    1  0.005  0.010  0.000  0.015
    2  0.005  0.010  0.000  0.015
tot    0.011  0.020  0.000  0.031
    1  0.004  0.008  0.000  0.012
    2  0.004  0.008  0.000  0.012
tot    0.008  0.016  0.000  0.024
    1  0.002  0.005  0.000  0.007
    2  0.002  0.005  0.000  0.007
tot    0.005  0.009  0.000  0.014
    1  0.002  0.004  0.000  0.007