   2   2   1   0
  0.1172237E+03  0.4113367E-09  0.4113367E-09  0.1600000E-08  0.5000000E-15
  1.000000000000000E-004
  CAR 
 unknown system                          
      6.34448186    -14.51443948 6001     -2.24244033      1.00000000
    -14.514  0.0000E+00  0.0000E+00
    -14.511  0.0000E+00  0.0000E+00
    -14.507  0.0000E+00  0.0000E+00
    -14.504  0.0000E+00  0.0000E+00
    -14.501  0.0000E+00  0.0000E+00
    -14.497  0.0000E+00  0.0000E+00
    -14.494  0.0000E+00  0.0000E+00
    -14.490  0.0000E+00  0.0000E+00
    -14.487  0.0000E+00  0.0000E+00
    -14.483  0.0000E+00  0.0000E+00
    -14.480  0.0000E+00  0.0000E+00
    -14.476  0.0000E+00  0.0000E+00
    -14.473  0.0000E+00  0.0000E+00
    -14.469  0.0000E+00  0.0000E+00
    -14.466  0.0000E+00  0.0000E+00
    -14.462  0.0000E+00  0.0000E+00
    -14.459  0.0000E+00  0.0000E+00
    -14.455  0.0000E+00  0.0000E+00
    -14.452  0.0000E+00  0.0000E+00
    -14.448  0.0000E+00  0.0000E+00
    -14.445  0.0000E+00  0.0000E+00
    -14.441  0.0000E+00  0.0000E+00
    -14.438  0.0000E+00  0.0000E+00
    -14.434  0.0000E+00  0.0000E+00
    -14.431  0.0000E+00  0.0000E+00
    -14.428  0.0000E+00  0.0000E+00
    -14.424  0.0000E+00  0.0000E+00
    -14.421  0.0000E+00  0.0000E+00
    -14.417  0.0000E+00  0.0000E+00
    -14.414  0.0000E+00  0.0000E+00
    -14.410  0.0000E+00  0.0000E+00
    -14.407  0.0000E+00  0.0000E+00
    -14.403  0.0000E+00  0.0000E+00
    -14.400  0.0000E+00  0.0000E+00
    -14.396  0.0000E+00  0.0000E+00
    -14.393  0.0000E+00  0.0000E+00
    -14.389  0.0000E+00  0.0000E+00
    -14.386  0.0000E+00  0.0000E+00
    -14.382  0.0000E+00  0.0000E+00
    -14.379  0.0000E+00  0.0000E+00
    -14.375  0.0000E+00  0.0000E+00
    -14.372  0.0000E+00  0.0000E+00
    -14.368  0.0000E+00  0.0000E+00
    -14.365  0.0000E+00  0.0000E+00
    -14.361  0.0000E+00  0.0000E+00
    -14.358  0.0000E+00  0.0000E+00
    -14.355  0.0000E+00  0.0000E+00
    -14.351  0.0000E+00  0.0000E+00
    -14.348  0.0000E+00  0.0000E+00
    -14.344  0.0000E+00  0.0000E+00
    -14.341  0.0000E+00  0.0000E+00
    -14.337  0.0000E+00  0.0000E+00
    -14.334  0.0000E+00  0.0000E+00
    -14.330  0.0000E+00  0.0000E+00
    -14.327  0.0000E+00  0.0000E+00
    -14.323  0.0000E+00  0.0000E+00
    -14.320  0.0000E+00  0.0000E+00
    -14.316  0.0000E+00  0.0000E+00
    -14.313  0.0000E+00  0.0000E+00
    -14.309  0.0000E+00  0.0000E+00
    -14.306  0.0000E+00  0.0000E+00
    -14.302  0.0000E+00  0.0000E+00
    -14.299  0.0000E+00  0.0000E+00
    -14.295  0.0000E+00  0.0000E+00
    -14.292  0.0000E+00  0.0000E+00
    -14.288  0.0000E+00  0.0000E+00
    -14.285  0.0000E+00  0.0000E+00
    -14.282  0.0000E+00  0.0000E+00
    -14.278  0.0000E+00  0.0000E+00
    -14.275  0.0000E+00  0.0000E+00
    -14.271  0.0000E+00  0.0000E+00
    -14.268  0.0000E+00  0.0000E+00
    -14.264  0.0000E+00  0.0000E+00
    -14.261  0.0000E+00  0.0000E+00
    -14.257  0.0000E+00  0.0000E+00
    -14.254  0.0000E+00  0.0000E+00
    -14.250  0.0000E+00  0.0000E+00
    -14.247  0.0000E+00  0.0000E+00
    -14.243  0.0000E+00  0.0000E+00
    -14.240  0.0000E+00  0.0000E+00
    -14.236  0.0000E+00  0.0000E+00
    -14.233  0.0000E+00  0.0000E+00
    -14.229  0.0000E+00  0.0000E+00
    -14.226  0.0000E+00  0.0000E+00
    -14.222  0.0000E+00  0.0000E+00
    -14.219  0.0000E+00  0.0000E+00
    -14.215  0.0000E+00  0.0000E+00
    -14.212  0.0000E+00  0.0000E+00
    -14.209  0.0000E+00  0.0000E+00
    -14.205  0.0000E+00  0.0000E+00
    -14.202  0.0000E+00  0.0000E+00
    -14.198  0.0000E+00  0.0000E+00
    -14.195  0.0000E+00  0.0000E+00
    -14.191  0.0000E+00  0.0000E+00
    -14.188  0.0000E+00  0.0000E+00
    -14.184  0.0000E+00  0.0000E+00
    -14.181  0.0000E+00  0.0000E+00
    -14.177  0.0000E+00  0.0000E+00
    -14.174  0.0000E+00  0.0000E+00
    -14.170  0.0000E+00  0.0000E+00
    -14.167  0.0000E+00  0.0000E+00
    -14.163  0.0000E+00  0.0000E+00
    -14.160  0.0000E+00  0.0000E+00
    -14.156  0.0000E+00  0.0000E+00
    -14.153  0.0000E+00  0.0000E+00
    -14.149  0.0000E+00  0.0000E+00
    -14.146  0.0000E+00  0.0000E+00
    -14.142  0.0000E+00  0.0000E+00
    -14.139  0.0000E+00  0.0000E+00
    -14.136  0.0000E+00  0.0000E+00
    -14.132  0.0000E+00  0.0000E+00
    -14.129  0.0000E+00  0.0000E+00
    -14.125  0.0000E+00  0.0000E+00
    -14.122  0.0000E+00  0.0000E+00
    -14.118  0.0000E+00  0.0000E+00
    -14.115  0.0000E+00  0.0000E+00
    -14.111  0.0000E+00  0.0000E+00
    -14.108  0.0000E+00  0.0000E+00
    -14.104  0.0000E+00  0.0000E+00
    -14.101  0.0000E+00  0.0000E+00
    -14.097  0.0000E+00  0.0000E+00
    -14.094  0.0000E+00  0.0000E+00
    -14.090  0.0000E+00  0.0000E+00
    -14.087  0.0000E+00  0.0000E+00
    -14.083  0.0000E+00  0.0000E+00
    -14.080  0.0000E+00  0.0000E+00
    -14.076  0.0000E+00  0.0000E+00
    -14.073  0.0000E+00  0.0000E+00
    -14.069  0.0000E+00  0.0000E+00
    -14.066  0.0000E+00  0.0000E+00
    -14.062  0.0000E+00  0.0000E+00
    -14.059  0.0000E+00  0.0000E+00
    -14.056  0.0000E+00  0.0000E+00
    -14.052  0.0000E+00  0.0000E+00
    -14.049  0.0000E+00  0.0000E+00
    -14.045  0.0000E+00  0.0000E+00
    -14.042  0.0000E+00  0.0000E+00
    -14.038  0.0000E+00  0.0000E+00
    -14.035  0.0000E+00  0.0000E+00
    -14.031  0.0000E+00  0.0000E+00
    -14.028  0.0000E+00  0.0000E+00
    -14.024  0.0000E+00  0.0000E+00
    -14.021  0.0000E+00  0.0000E+00
    -14.017  0.0000E+00  0.0000E+00
    -14.014  0.0000E+00  0.0000E+00
    -14.010  0.0000E+00  0.0000E+00
    -14.007  0.0000E+00  0.0000E+00
    -14.003  0.0000E+00  0.0000E+00
    -14.000  0.0000E+00  0.0000E+00
    -13.996  0.0000E+00  0.0000E+00
    -13.993  0.0000E+00  0.0000E+00
    -13.989  0.0000E+00  0.0000E+00
    -13.986  0.0000E+00  0.0000E+00
    -13.983  0.0000E+00  0.0000E+00
    -13.979  0.0000E+00  0.0000E+00
    -13.976  0.0000E+00  0.0000E+00
    -13.972  0.0000E+00  0.0000E+00
    -13.969  0.0000E+00  0.0000E+00
    -13.965  0.0000E+00  0.0000E+00
    -13.962  0.0000E+00  0.0000E+00
    -13.958  0.0000E+00  0.0000E+00
    -13.955  0.0000E+00  0.0000E+00
    -13.951  0.0000E+00  0.0000E+00
    -13.948  0.0000E+00  0.0000E+00
    -13.944  0.0000E+00  0.0000E+00
    -13.941  0.0000E+00  0.0000E+00
    -13.937  0.0000E+00  0.0000E+00
    -13.934  0.0000E+00  0.0000E+00
    -13.930  0.0000E+00  0.0000E+00
    -13.927  0.0000E+00  0.0000E+00
    -13.923  0.0000E+00  0.0000E+00
    -13.920  0.0000E+00  0.0000E+00
    -13.916  0.0000E+00  0.0000E+00
    -13.913  0.0000E+00  0.0000E+00
    -13.910  0.0000E+00  0.0000E+00
    -13.906  0.0000E+00  0.0000E+00
    -13.903  0.0000E+00  0.0000E+00
    -13.899  0.0000E+00  0.0000E+00
    -13.896  0.0000E+00  0.0000E+00
    -13.892  0.0000E+00  0.0000E+00
    -13.889  0.0000E+00  0.0000E+00
    -13.885  0.0000E+00  0.0000E+00
    -13.882  0.0000E+00  0.0000E+00
    -13.878  0.0000E+00  0.0000E+00
    -13.875  0.0000E+00  0.0000E+00
    -13.871  0.0000E+00  0.0000E+00
    -13.868  0.0000E+00  0.0000E+00
    -13.864  0.0000E+00  0.0000E+00
    -13.861  0.0000E+00  0.0000E+00
    -13.857  0.0000E+00  0.0000E+00
    -13.854  0.0000E+00  0.0000E+00
    -13.850  0.0000E+00  0.0000E+00
    -13.847  0.0000E+00  0.0000E+00
    -13.843  0.0000E+00  0.0000E+00
    -13.840  0.0000E+00  0.0000E+00
    -13.837  0.0000E+00  0.0000E+00
    -13.833  0.0000E+00  0.0000E+00
    -13.830  0.0000E+00  0.0000E+00
    -13.826  0.0000E+00  0.0000E+00
    -13.823  0.0000E+00  0.0000E+00
    -13.819  0.0000E+00  0.0000E+00
    -13.816  0.0000E+00  0.0000E+00
    -13.812  0.0000E+00  0.0000E+00
    -13.809  0.0000E+00  0.0000E+00
    -13.805  0.0000E+00  0.0000E+00
    -13.802  0.0000E+00  0.0000E+00
    -13.798  0.0000E+00  0.0000E+00
    -13.795  0.0000E+00  0.0000E+00
    -13.791  0.0000E+00  0.0000E+00
    -13.788  0.0000E+00  0.0000E+00
    -13.784  0.0000E+00  0.0000E+00
    -13.781  0.0000E+00  0.0000E+00
    -13.777  0.0000E+00  0.0000E+00
    -13.774  0.0000E+00  0.0000E+00
    -13.770  0.0000E+00  0.0000E+00
    -13.767  0.0000E+00  0.0000E+00
    -13.764  0.0000E+00  0.0000E+00
    -13.760  0.0000E+00  0.0000E+00
    -13.757  0.0000E+00  0.0000E+00
    -13.753  0.0000E+00  0.0000E+00
    -13.750  0.0000E+00  0.0000E+00
    -13.746  0.0000E+00  0.0000E+00
    -13.743  0.0000E+00  0.0000E+00
    -13.739  0.0000E+00  0.0000E+00
    -13.736  0.0000E+00  0.0000E+00
    -13.732  0.0000E+00  0.0000E+00
    -13.729  0.0000E+00  0.0000E+00
    -13.725  0.0000E+00  0.0000E+00
    -13.722  0.0000E+00  0.0000E+00
    -13.718  0.0000E+00  0.0000E+00
    -13.715  0.0000E+00  0.0000E+00
    -13.711  0.0000E+00  0.0000E+00
    -13.708  0.0000E+00  0.0000E+00
    -13.704  0.0000E+00  0.0000E+00
    -13.701  0.0000E+00  0.0000E+00
    -13.697  0.0000E+00  0.0000E+00
    -13.694  0.0000E+00  0.0000E+00
    -13.691  0.0000E+00  0.0000E+00
    -13.687  0.0000E+00  0.0000E+00
    -13.684  0.0000E+00  0.0000E+00
    -13.680  0.0000E+00  0.0000E+00
    -13.677  0.0000E+00  0.0000E+00
    -13.673  0.0000E+00  0.0000E+00
    -13.670  0.0000E+00  0.0000E+00
    -13.666  0.0000E+00  0.0000E+00
    -13.663  0.0000E+00  0.0000E+00
    -13.659  0.0000E+00  0.0000E+00
    -13.656  0.0000E+00  0.0000E+00
    -13.652  0.0000E+00  0.0000E+00
    -13.649  0.0000E+00  0.0000E+00
    -13.645  0.0000E+00  0.0000E+00
    -13.642  0.0000E+00  0.0000E+00
    -13.638  0.0000E+00  0.0000E+00
    -13.635  0.0000E+00  0.0000E+00
    -13.631  0.0000E+00  0.0000E+00
    -13.628  0.0000E+00  0.0000E+00
    -13.624  0.1760E-16  0.6117E-19
    -13.621  0.8182E-15  0.2906E-17
    -13.618  0.3447E-13  0.1227E-15
    -13.614  0.1142E-11  0.4093E-14
    -13.611  0.2979E-10  0.1077E-12
    -13.607  0.6123E-09  0.2236E-11
    -13.604  0.9914E-08  0.3670E-10
    -13.600  0.1265E-06  0.4765E-09
    -13.597  0.1272E-05  0.4899E-08
    -13.593  0.1008E-04  0.3996E-07
    -13.590  0.6303E-04  0.2591E-06
    -13.586  0.3107E-03  0.1339E-05
    -13.583  0.1208E-02  0.5537E-05
    -13.579  0.3703E-02  0.1841E-04
    -13.576  0.8957E-02  0.4955E-04
    -13.572  0.1709E-01  0.1090E-03
    -13.569  0.2574E-01  0.1985E-03
    -13.565  0.3059E-01  0.3048E-03
    -13.562  0.2868E-01  0.4045E-03
    -13.558  0.2122E-01  0.4782E-03
    -13.555  0.1238E-01  0.5213E-03
    -13.551  0.5704E-02  0.5411E-03
    -13.548  0.2072E-02  0.5483E-03
    -13.544  0.5940E-03  0.5504E-03
    -13.541  0.1343E-03  0.5509E-03
    -13.538  0.2394E-04  0.5510E-03
    -13.534  0.3366E-05  0.5510E-03
    -13.531  0.3730E-06  0.5510E-03
    -13.527  0.3259E-07  0.5510E-03
    -13.524  0.2326E-08  0.5510E-03
    -13.520  0.1911E-08  0.5510E-03
    -13.517  0.3072E-07  0.5510E-03
    -13.513  0.4155E-06  0.5510E-03
    -13.510  0.4429E-05  0.5510E-03
    -13.506  0.3722E-04  0.5511E-03
    -13.503  0.2466E-03  0.5520E-03
    -13.499  0.1288E-02  0.5564E-03
    -13.496  0.5309E-02  0.5749E-03
    -13.492  0.1725E-01  0.6349E-03
    -13.489  0.4423E-01  0.7887E-03
    -13.485  0.8947E-01  0.1100E-02
    -13.482  0.1428E+00  0.1596E-02
    -13.478  0.1798E+00  0.2221E-02
    -13.475  0.1787E+00  0.2842E-02
    -13.471  0.1401E+00  0.3329E-02
    -13.468  0.8667E-01  0.3631E-02
    -13.465  0.4231E-01  0.3778E-02
    -13.461  0.1629E-01  0.3835E-02
    -13.458  0.4950E-02  0.3852E-02
    -13.454  0.1186E-02  0.3856E-02
    -13.451  0.2242E-03  0.3857E-02
    -13.447  0.3341E-04  0.3857E-02
    -13.444  0.3925E-05  0.3857E-02
    -13.440  0.3635E-06  0.3857E-02
    -13.437  0.2653E-07  0.3857E-02
    -13.433  0.1526E-08  0.3857E-02
    -13.430  0.6913E-10  0.3857E-02
    -13.426  0.2467E-11  0.3857E-02
    -13.423  0.6943E-13  0.3857E-02
    -13.419  0.1513E-14  0.3857E-02
    -13.416  0.0000E+00  0.3857E-02
    -13.412  0.0000E+00  0.3857E-02
    -13.409  0.0000E+00  0.3857E-02
    -13.405  0.0000E+00  0.3857E-02
    -13.402  0.0000E+00  0.3857E-02
    -13.398  0.0000E+00  0.3857E-02
    -13.395  0.0000E+00  0.3857E-02
    -13.392  0.0000E+00  0.3857E-02
    -13.388  0.0000E+00  0.3857E-02
    -13.385  0.0000E+00  0.3857E-02
    -13.381  0.0000E+00  0.3857E-02
    -13.378  0.0000E+00  0.3857E-02
    -13.374  0.0000E+00  0.3857E-02
    -13.371  0.0000E+00  0.3857E-02
    -13.367  0.0000E+00  0.3857E-02
    -13.364  0.5279E-16  0.3857E-02
    -13.360  0.1742E-14  0.3857E-02
    -13.357  0.7823E-13  0.3857E-02
    -13.353  0.2762E-11  0.3857E-02
    -13.350  0.7678E-10  0.3857E-02
    -13.346  0.1681E-08  0.3857E-02
    -13.343  0.2901E-07  0.3857E-02
    -13.339  0.3944E-06  0.3857E-02
    -13.336  0.4226E-05  0.3857E-02
    -13.332  0.3569E-04  0.3857E-02
    -13.329  0.2376E-03  0.3858E-02
    -13.325  0.1248E-02  0.3862E-02
    -13.322  0.5166E-02  0.3880E-02
    -13.319  0.1687E-01  0.3939E-02
    -13.315  0.4348E-01  0.4090E-02
    -13.312  0.8838E-01  0.4397E-02
    -13.308  0.1417E+00  0.4890E-02
    -13.305  0.1794E+00  0.5513E-02
    -13.301  0.1791E+00  0.6136E-02
    -13.298  0.1412E+00  0.6627E-02
    -13.294  0.8776E-01  0.6932E-02
    -13.291  0.4305E-01  0.7082E-02
    -13.287  0.1666E-01  0.7140E-02
    -13.284  0.5087E-02  0.7157E-02
    -13.280  0.1225E-02  0.7162E-02
    -13.277  0.2327E-03  0.7162E-02
    -13.273  0.3485E-04  0.7163E-02
    -13.270  0.4115E-05  0.7163E-02
    -13.266  0.3830E-06  0.7163E-02
    -13.263  0.2828E-07  0.7163E-02
    -13.259  0.5483E-08  0.7163E-02
    -13.256  0.6231E-07  0.7163E-02
    -13.252  0.7909E-06  0.7163E-02
    -13.249  0.7922E-05  0.7163E-02
    -13.246  0.6255E-04  0.7163E-02
    -13.242  0.3894E-03  0.7164E-02
    -13.239  0.1911E-02  0.7171E-02
    -13.235  0.7400E-02  0.7197E-02
    -13.232  0.2260E-01  0.7275E-02
    -13.228  0.5445E-01  0.7464E-02
    -13.225  0.1035E+00  0.7824E-02
    -13.221  0.1552E+00  0.8364E-02
    -13.218  0.1837E+00  0.9002E-02
    -13.214  0.1715E+00  0.9599E-02
    -13.211  0.1264E+00  0.1004E-01
    -13.207  0.7348E-01  0.1029E-01
    -13.204  0.3370E-01  0.1041E-01
    -13.200  0.1220E-01  0.1045E-01
    -13.197  0.3482E-02  0.1047E-01
    -13.193  0.7840E-03  0.1047E-01
    -13.190  0.1392E-03  0.1047E-01
    -13.186  0.1949E-04  0.1047E-01
    -13.183  0.2152E-05  0.1047E-01
    -13.179  0.1872E-06  0.1047E-01
    -13.176  0.1284E-07  0.1047E-01
    -13.173  0.6934E-09  0.1047E-01
    -13.169  0.2951E-10  0.1047E-01
    -13.166  0.9893E-12  0.1047E-01
    -13.162  0.2618E-13  0.1047E-01
    -13.159  0.5279E-15  0.1047E-01
    -13.155  0.0000E+00  0.1047E-01
    -13.152  0.0000E+00  0.1047E-01
    -13.148  0.0000E+00  0.1047E-01
    -13.145  0.0000E+00  0.1047E-01
    -13.141  0.0000E+00  0.1047E-01
    -13.138  0.0000E+00  0.1047E-01
    -13.134  0.0000E+00  0.1047E-01
    -13.131  0.0000E+00  0.1047E-01
    -13.127  0.0000E+00  0.1047E-01
    -13.124  0.0000E+00  0.1047E-01
    -13.120  0.0000E+00  0.1047E-01
    -13.117  0.0000E+00  0.1047E-01
    -13.113  0.0000E+00  0.1047E-01
    -13.110  0.0000E+00  0.1047E-01
    -13.106  0.0000E+00  0.1047E-01
    -13.103  0.0000E+00  0.1047E-01
    -13.100  0.0000E+00  0.1047E-01
    -13.096  0.0000E+00  0.1047E-01
    -13.093  0.0000E+00  0.1047E-01
    -13.089  0.0000E+00  0.1047E-01
    -13.086  0.0000E+00  0.1047E-01
    -13.082  0.0000E+00  0.1047E-01
    -13.079  0.0000E+00  0.1047E-01
    -13.075  0.0000E+00  0.1047E-01
    -13.072  0.0000E+00  0.1047E-01
    -13.068  0.0000E+00  0.1047E-01
    -13.065  0.0000E+00  0.1047E-01
    -13.061  0.0000E+00  0.1047E-01
    -13.058  0.0000E+00  0.1047E-01
    -13.054  0.0000E+00  0.1047E-01
    -13.051  0.0000E+00  0.1047E-01
    -13.047  0.0000E+00  0.1047E-01
    -13.044  0.0000E+00  0.1047E-01
    -13.040  0.0000E+00  0.1047E-01
    -13.037  0.0000E+00  0.1047E-01
    -13.033  0.0000E+00  0.1047E-01
    -13.030  0.0000E+00  0.1047E-01
    -13.027  0.0000E+00  0.1047E-01
    -13.023  0.1056E-15  0.1047E-01
    -13.020  0.5595E-14  0.1047E-01
    -13.016  0.2426E-12  0.1047E-01
    -13.013  0.8324E-11  0.1047E-01
    -13.009  0.2249E-09  0.1047E-01
    -13.006  0.4787E-08  0.1047E-01
    -13.002  0.8026E-07  0.1047E-01
    -12.999  0.1061E-05  0.1047E-01
    -12.995  0.1104E-04  0.1047E-01
    -12.992  0.9066E-04  0.1047E-01
    -12.988  0.5867E-03  0.1047E-01
    -12.985  0.2994E-02  0.1048E-01
    -12.981  0.1205E-01  0.1052E-01
    -12.978  0.3826E-01  0.1066E-01
    -12.974  0.9584E-01  0.1099E-01
    -12.971  0.1894E+00  0.1165E-01
    -12.967  0.2952E+00  0.1267E-01
    -12.964  0.3632E+00  0.1394E-01
    -12.960  0.3526E+00  0.1516E-01
    -12.957  0.2701E+00  0.1610E-01
    -12.953  0.1632E+00  0.1667E-01
    -12.950  0.7783E-01  0.1694E-01
    -12.947  0.2928E-01  0.1704E-01
    -12.943  0.8690E-02  0.1707E-01
    -12.940  0.2034E-02  0.1708E-01
    -12.936  0.3755E-03  0.1708E-01
    -12.933  0.5467E-04  0.1708E-01
    -12.929  0.6274E-05  0.1708E-01
    -12.926  0.5675E-06  0.1708E-01
    -12.922  0.4046E-07  0.1708E-01
    -12.919  0.2273E-08  0.1708E-01
    -12.915  0.1006E-09  0.1708E-01
    -12.912  0.3506E-11  0.1708E-01
    -12.908  0.9635E-13  0.1708E-01
    -12.905  0.2111E-14  0.1708E-01
    -12.901  0.0000E+00  0.1708E-01
    -12.898  0.0000E+00  0.1708E-01
    -12.894  0.0000E+00  0.1708E-01
    -12.891  0.0000E+00  0.1708E-01
    -12.887  0.0000E+00  0.1708E-01
    -12.884  0.0000E+00  0.1708E-01
    -12.880  0.0000E+00  0.1708E-01
    -12.877  0.0000E+00  0.1708E-01
    -12.874  0.0000E+00  0.1708E-01
    -12.870  0.0000E+00  0.1708E-01
    -12.867  0.0000E+00  0.1708E-01
    -12.863  0.0000E+00  0.1708E-01
    -12.860  0.0000E+00  0.1708E-01
    -12.856  0.1108E-14  0.1708E-01
    -12.853  0.5037E-13  0.1708E-01
    -12.849  0.1830E-11  0.1708E-01
    -12.846  0.5234E-10  0.1708E-01
    -12.842  0.1179E-08  0.1708E-01
    -12.839  0.2093E-07  0.1708E-01
    -12.835  0.2927E-06  0.1708E-01
    -12.832  0.3226E-05  0.1708E-01
    -12.828  0.2803E-04  0.1708E-01
    -12.825  0.1920E-03  0.1708E-01
    -12.821  0.1037E-02  0.1708E-01
    -12.818  0.4417E-02  0.1710E-01
    -12.814  0.1484E-01  0.1715E-01
    -12.811  0.3933E-01  0.1729E-01
    -12.807  0.8224E-01  0.1757E-01
    -12.804  0.1357E+00  0.1805E-01
    -12.801  0.1766E+00  0.1866E-01
    -12.797  0.1814E+00  0.1929E-01
    -12.794  0.1470E+00  0.1980E-01
    -12.790  0.9403E-01  0.2013E-01
    -12.787  0.4745E-01  0.2029E-01
    -12.783  0.1889E-01  0.2036E-01
    -12.780  0.5932E-02  0.2038E-01
    -12.776  0.1470E-02  0.2038E-01
    -12.773  0.2871E-03  0.2039E-01
    -12.769  0.4423E-04  0.2039E-01
    -12.766  0.5373E-05  0.2039E-01
    -12.762  0.5144E-06  0.2039E-01
    -12.759  0.3882E-07  0.2039E-01
    -12.755  0.2308E-08  0.2039E-01
    -12.752  0.1081E-09  0.2039E-01
    -12.748  0.3991E-11  0.2039E-01
    -12.745  0.1159E-12  0.2039E-01
    -12.741  0.2745E-14  0.2039E-01
    -12.738  0.0000E+00  0.2039E-01
    -12.734  0.0000E+00  0.2039E-01
    -12.731  0.0000E+00  0.2039E-01
    -12.728  0.0000E+00  0.2039E-01
    -12.724  0.0000E+00  0.2039E-01
    -12.721  0.0000E+00  0.2039E-01
    -12.717  0.0000E+00  0.2039E-01
    -12.714  0.0000E+00  0.2039E-01
    -12.710  0.0000E+00  0.2039E-01
    -12.707  0.0000E+00  0.2039E-01
    -12.703  0.0000E+00  0.2039E-01
    -12.700  0.0000E+00  0.2039E-01
    -12.696  0.0000E+00  0.2039E-01
    -12.693  0.0000E+00  0.2039E-01
    -12.689  0.0000E+00  0.2039E-01
    -12.686  0.0000E+00  0.2039E-01
    -12.682  0.0000E+00  0.2039E-01
    -12.679  0.0000E+00  0.2039E-01
    -12.675  0.0000E+00  0.2039E-01
    -12.672  0.0000E+00  0.2039E-01
    -12.668  0.0000E+00  0.2039E-01
    -12.665  0.0000E+00  0.2039E-01
    -12.661  0.0000E+00  0.2039E-01
    -12.658  0.0000E+00  0.2039E-01
    -12.655  0.0000E+00  0.2039E-01
    -12.651  0.0000E+00  0.2039E-01
    -12.648  0.0000E+00  0.2039E-01
    -12.644  0.0000E+00  0.2039E-01
    -12.641  0.0000E+00  0.2039E-01
    -12.637  0.0000E+00  0.2039E-01
    -12.634  0.0000E+00  0.2039E-01
    -12.630  0.0000E+00  0.2039E-01
    -12.627  0.0000E+00  0.2039E-01
    -12.623  0.0000E+00  0.2039E-01
    -12.620  0.0000E+00  0.2039E-01
    -12.616  0.0000E+00  0.2039E-01
    -12.613  0.5279E-16  0.2039E-01
    -12.609  0.2780E-14  0.2039E-01
    -12.606  0.1212E-12  0.2039E-01
    -12.602  0.4158E-11  0.2039E-01
    -12.599  0.1124E-09  0.2039E-01
    -12.595  0.2392E-08  0.2039E-01
    -12.592  0.4011E-07  0.2039E-01
    -12.588  0.5299E-06  0.2039E-01
    -12.585  0.5519E-05  0.2039E-01
    -12.582  0.4531E-04  0.2039E-01
    -12.578  0.2932E-03  0.2039E-01
    -12.575  0.1497E-02  0.2039E-01
    -12.571  0.6024E-02  0.2041E-01
    -12.568  0.1913E-01  0.2048E-01
    -12.564  0.4791E-01  0.2065E-01
    -12.561  0.9467E-01  0.2098E-01
    -12.557  0.1476E+00  0.2149E-01
    -12.554  0.1816E+00  0.2212E-01
    -12.550  0.1763E+00  0.2273E-01
    -12.547  0.1350E+00  0.2320E-01
    -12.543  0.8162E-01  0.2349E-01
    -12.540  0.3893E-01  0.2362E-01
    -12.536  0.1464E-01  0.2367E-01
    -12.533  0.4347E-02  0.2369E-01
    -12.529  0.1018E-02  0.2369E-01
    -12.526  0.1879E-03  0.2369E-01
    -12.522  0.2735E-04  0.2369E-01
    -12.519  0.3161E-05  0.2369E-01
    -12.515  0.6130E-06  0.2369E-01
    -12.512  0.3848E-05  0.2369E-01
    -12.509  0.3509E-04  0.2369E-01
    -12.505  0.2537E-03  0.2369E-01
    -12.502  0.1446E-02  0.2370E-01
    -12.498  0.6498E-02  0.2372E-01
    -12.495  0.2303E-01  0.2380E-01
    -12.491  0.6441E-01  0.2402E-01
    -12.488  0.1421E+00  0.2452E-01
    -12.484  0.2474E+00  0.2538E-01
    -12.481  0.3397E+00  0.2656E-01
    -12.477  0.3682E+00  0.2784E-01
    -12.474  0.3148E+00  0.2893E-01
    -12.470  0.2124E+00  0.2967E-01
    -12.467  0.1131E+00  0.3007E-01
    -12.463  0.4751E-01  0.3023E-01
    -12.460  0.1574E-01  0.3029E-01
    -12.456  0.4115E-02  0.3030E-01
    -12.453  0.8484E-03  0.3030E-01
    -12.449  0.1379E-03  0.3030E-01
    -12.446  0.1768E-04  0.3030E-01
    -12.442  0.1786E-05  0.3030E-01
    -12.439  0.1423E-06  0.3030E-01
    -12.436  0.8928E-08  0.3030E-01
    -12.432  0.4415E-09  0.3030E-01
    -12.429  0.1719E-10  0.3030E-01
    -12.425  0.5274E-12  0.3030E-01
    -12.422  0.1274E-13  0.3030E-01
    -12.418  0.2111E-15  0.3030E-01
    -12.415  0.0000E+00  0.3030E-01
    -12.411  0.0000E+00  0.3030E-01
    -12.408  0.0000E+00  0.3030E-01
    -12.404  0.0000E+00  0.3030E-01
    -12.401  0.0000E+00  0.3030E-01
    -12.397  0.0000E+00  0.3030E-01
    -12.394  0.0000E+00  0.3030E-01
    -12.390  0.0000E+00  0.3030E-01
    -12.387  0.0000E+00  0.3030E-01
    -12.383  0.0000E+00  0.3030E-01
    -12.380  0.0000E+00  0.3030E-01
    -12.376  0.0000E+00  0.3030E-01
    -12.373  0.0000E+00  0.3030E-01
    -12.369  0.0000E+00  0.3030E-01
    -12.366  0.0000E+00  0.3030E-01
    -12.362  0.0000E+00  0.3030E-01
    -12.359  0.0000E+00  0.3030E-01
    -12.356  0.0000E+00  0.3030E-01
    -12.352  0.0000E+00  0.3030E-01
    -12.349  0.0000E+00  0.3030E-01
    -12.345  0.0000E+00  0.3030E-01
    -12.342  0.0000E+00  0.3030E-01
    -12.338  0.0000E+00  0.3030E-01
    -12.335  0.0000E+00  0.3030E-01
    -12.331  0.0000E+00  0.3030E-01
    -12.328  0.0000E+00  0.3030E-01
    -12.324  0.0000E+00  0.3030E-01
    -12.321  0.0000E+00  0.3030E-01
    -12.317  0.1320E-14  0.3030E-01
    -12.314  0.5937E-13  0.3030E-01
    -12.310  0.2133E-11  0.3030E-01
    -12.307  0.6036E-10  0.3030E-01
    -12.303  0.1346E-08  0.3030E-01
    -12.300  0.2363E-07  0.3030E-01
    -12.296  0.3271E-06  0.3030E-01
    -12.293  0.3567E-05  0.3030E-01
    -12.289  0.3067E-04  0.3030E-01
    -12.286  0.2079E-03  0.3030E-01
    -12.283  0.1111E-02  0.3031E-01
    -12.279  0.4683E-02  0.3032E-01
    -12.276  0.1557E-01  0.3038E-01
    -12.272  0.4084E-01  0.3052E-01
    -12.269  0.8450E-01  0.3081E-01
    -12.265  0.1379E+00  0.3129E-01
    -12.262  0.1777E+00  0.3191E-01
    -12.258  0.1806E+00  0.3254E-01
    -12.255  0.1449E+00  0.3304E-01
    -12.251  0.9169E-01  0.3336E-01
    -12.248  0.4579E-01  0.3352E-01
    -12.244  0.1804E-01  0.3358E-01
    -12.241  0.5606E-02  0.3360E-01
    -12.237  0.1374E-02  0.3361E-01
    -12.234  0.2657E-03  0.3361E-01
    -12.230  0.4050E-04  0.3361E-01
    -12.227  0.4868E-05  0.3361E-01
    -12.223  0.4612E-06  0.3361E-01
    -12.220  0.3444E-07  0.3361E-01
    -12.216  0.2027E-08  0.3361E-01
    -12.213  0.9394E-10  0.3361E-01
    -12.210  0.3430E-11  0.3361E-01
    -12.206  0.9860E-13  0.3361E-01
    -12.203  0.2323E-14  0.3361E-01
    -12.199  0.0000E+00  0.3361E-01
    -12.196  0.0000E+00  0.3361E-01
    -12.192  0.0000E+00  0.3361E-01
    -12.189  0.0000E+00  0.3361E-01
    -12.185  0.0000E+00  0.3361E-01
    -12.182  0.0000E+00  0.3361E-01
    -12.178  0.0000E+00  0.3361E-01
    -12.175  0.0000E+00  0.3361E-01
    -12.171  0.0000E+00  0.3361E-01
    -12.168  0.0000E+00  0.3361E-01
    -12.164  0.0000E+00  0.3361E-01
    -12.161  0.0000E+00  0.3361E-01
    -12.157  0.0000E+00  0.3361E-01
    -12.154  0.0000E+00  0.3361E-01
    -12.150  0.0000E+00  0.3361E-01
    -12.147  0.0000E+00  0.3361E-01
    -12.143  0.0000E+00  0.3361E-01
    -12.140  0.0000E+00  0.3361E-01
    -12.137  0.0000E+00  0.3361E-01
    -12.133  0.0000E+00  0.3361E-01
    -12.130  0.0000E+00  0.3361E-01
    -12.126  0.0000E+00  0.3361E-01
    -12.123  0.0000E+00  0.3361E-01
    -12.119  0.0000E+00  0.3361E-01
    -12.116  0.0000E+00  0.3361E-01
    -12.112  0.0000E+00  0.3361E-01
    -12.109  0.0000E+00  0.3361E-01
    -12.105  0.0000E+00  0.3361E-01
    -12.102  0.0000E+00  0.3361E-01
    -12.098  0.0000E+00  0.3361E-01
    -12.095  0.0000E+00  0.3361E-01
    -12.091  0.0000E+00  0.3361E-01
    -12.088  0.0000E+00  0.3361E-01
    -12.084  0.0000E+00  0.3361E-01
    -12.081  0.0000E+00  0.3361E-01
    -12.077  0.2428E-14  0.3361E-01
    -12.074  0.1116E-12  0.3361E-01
    -12.070  0.4023E-11  0.3361E-01
    -12.067  0.1143E-09  0.3361E-01
    -12.064  0.2559E-08  0.3361E-01
    -12.060  0.4513E-07  0.3361E-01
    -12.057  0.6271E-06  0.3361E-01
    -12.053  0.6867E-05  0.3361E-01
    -12.050  0.5927E-04  0.3361E-01
    -12.046  0.4034E-03  0.3361E-01
    -12.043  0.2165E-02  0.3362E-01
    -12.039  0.9160E-02  0.3365E-01
    -12.036  0.3058E-01  0.3376E-01
    -12.032  0.8051E-01  0.3404E-01
    -12.029  0.1673E+00  0.3462E-01
    -12.025  0.2742E+00  0.3557E-01
    -12.022  0.3546E+00  0.3680E-01
    -12.018  0.3619E+00  0.3806E-01
    -12.015  0.2914E+00  0.3907E-01
    -12.011  0.1852E+00  0.3972E-01
    -12.008  0.9283E-01  0.4004E-01
    -12.004  0.3672E-01  0.4017E-01
    -12.001  0.1146E-01  0.4021E-01
    -11.997  0.2820E-02  0.4022E-01
    -11.994  0.5474E-03  0.4022E-01
    -11.991  0.8378E-04  0.4022E-01
    -11.987  0.1011E-04  0.4022E-01
    -11.984  0.9618E-06  0.4022E-01
    -11.980  0.7210E-07  0.4022E-01
    -11.977  0.4260E-08  0.4022E-01
    -11.973  0.1983E-09  0.4022E-01
    -11.970  0.8037E-11  0.4022E-01
    -11.966  0.2464E-10  0.4022E-01
    -11.963  0.6117E-09  0.4022E-01
    -11.959  0.1207E-07  0.4022E-01
    -11.956  0.1875E-06  0.4022E-01
    -11.952  0.2296E-05  0.4022E-01
    -11.949  0.2217E-04  0.4022E-01
    -11.945  0.1687E-03  0.4022E-01
    -11.942  0.1012E-02  0.4022E-01
    -11.938  0.4789E-02  0.4024E-01
    -11.935  0.1787E-01  0.4030E-01
    -11.931  0.5261E-01  0.4049E-01
    -11.928  0.1222E+00  0.4091E-01
    -11.924  0.2238E+00  0.4169E-01
    -11.921  0.3236E+00  0.4281E-01
    -11.918  0.3692E+00  0.4410E-01
    -11.914  0.3323E+00  0.4525E-01
    -11.911  0.2360E+00  0.4607E-01
    -11.907  0.1323E+00  0.4653E-01
    -11.904  0.5848E-01  0.4674E-01
    -11.900  0.2040E-01  0.4681E-01
    -11.897  0.5614E-02  0.4683E-01
    -11.893  0.1218E-02  0.4683E-01
    -11.890  0.2085E-03  0.4683E-01
    -11.886  0.2814E-04  0.4683E-01
    -11.883  0.2993E-05  0.4683E-01
    -11.879  0.2510E-06  0.4683E-01
    -11.876  0.1659E-07  0.4683E-01
    -11.872  0.8635E-09  0.4683E-01
    -11.869  0.3542E-10  0.4683E-01
    -11.865  0.1144E-11  0.4683E-01
    -11.862  0.2900E-13  0.4683E-01
    -11.858  0.6334E-15  0.4683E-01
    -11.855  0.0000E+00  0.4683E-01
    -11.851  0.0000E+00  0.4683E-01
    -11.848  0.0000E+00  0.4683E-01
    -11.844  0.0000E+00  0.4683E-01
    -11.841  0.0000E+00  0.4683E-01
    -11.838  0.0000E+00  0.4683E-01
    -11.834  0.0000E+00  0.4683E-01
    -11.831  0.0000E+00  0.4683E-01
    -11.827  0.0000E+00  0.4683E-01
    -11.824  0.0000E+00  0.4683E-01
    -11.820  0.0000E+00  0.4683E-01
    -11.817  0.0000E+00  0.4683E-01
    -11.813  0.0000E+00  0.4683E-01
    -11.810  0.0000E+00  0.4683E-01
    -11.806  0.1056E-15  0.4683E-01
    -11.803  0.4645E-14  0.4683E-01
    -11.799  0.1972E-12  0.4683E-01
    -11.796  0.6553E-11  0.4683E-01
    -11.792  0.1715E-09  0.4683E-01
    -11.789  0.3536E-08  0.4683E-01
    -11.785  0.5743E-07  0.4683E-01
    -11.782  0.7351E-06  0.4683E-01
    -11.778  0.7416E-05  0.4683E-01
    -11.775  0.5897E-04  0.4683E-01
    -11.771  0.3698E-03  0.4683E-01
    -11.768  0.1828E-02  0.4684E-01
    -11.765  0.7129E-02  0.4686E-01
    -11.761  0.2193E-01  0.4694E-01
    -11.758  0.5321E-01  0.4713E-01
    -11.754  0.1019E+00  0.4748E-01
    -11.751  0.1539E+00  0.4801E-01
    -11.747  0.1834E+00  0.4865E-01
    -11.744  0.1725E+00  0.4925E-01
    -11.740  0.1280E+00  0.4970E-01
    -11.737  0.7495E-01  0.4996E-01
    -11.733  0.3463E-01  0.5008E-01
    -11.730  0.1262E-01  0.5012E-01
    -11.726  0.3629E-02  0.5013E-01
    -11.723  0.8229E-03  0.5014E-01
    -11.719  0.1472E-03  0.5014E-01
    -11.716  0.2075E-04  0.5014E-01
    -11.712  0.2307E-05  0.5014E-01
    -11.709  0.2022E-06  0.5014E-01
    -11.705  0.1396E-07  0.5014E-01
    -11.702  0.7598E-09  0.5014E-01
    -11.698  0.3257E-10  0.5014E-01
    -11.695  0.1100E-11  0.5014E-01
    -11.692  0.2921E-13  0.5014E-01
    -11.688  0.6334E-15  0.5014E-01
    -11.685  0.0000E+00  0.5014E-01
    -11.681  0.0000E+00  0.5014E-01
    -11.678  0.0000E+00  0.5014E-01
    -11.674  0.0000E+00  0.5014E-01
    -11.671  0.0000E+00  0.5014E-01
    -11.667  0.0000E+00  0.5014E-01
    -11.664  0.0000E+00  0.5014E-01
    -11.660  0.0000E+00  0.5014E-01
    -11.657  0.0000E+00  0.5014E-01
    -11.653  0.0000E+00  0.5014E-01
    -11.650  0.0000E+00  0.5014E-01
    -11.646  0.0000E+00  0.5014E-01