    2    2   30    1
  0.1172237E+03  0.4113367E-09  0.4113367E-09  0.1600000E-08  0.5000000E-15
  1.000000000000000E-004
  CAR 
 unknown system                          
     10     42     12
 
  0.0000000E+00  0.0000000E+00  0.0000000E+00  0.2754821E-02
      1        -13.566307   1.000000
      2         -8.593936   1.000000
      3         -2.892644   1.000000
      4         -2.285585   1.000000
      5         -2.285585   1.000000
      6         -0.718290   0.000000
      7          0.505263   0.000000
      8          0.505263   0.000000
      9          2.088763   0.000000
     10          2.169653   0.000000
     11          3.633311   0.000000
     12          4.528555   0.000000
 
  0.9090909E-01  0.6938894E-17  0.0000000E+00  0.1652893E-01
      1        -13.478534   1.000000
      2         -8.591210   1.000000
      3         -3.110901   1.000000
      4         -2.854683   1.000000
      5         -2.484616   1.000000
      6         -0.197557   0.000000
      7          0.433617   0.000000
      8          0.696150   0.000000
      9          2.207602   0.000000
     10          2.271584   0.000000
     11          3.713529   0.000000
     12          4.624869   0.000000
 
  0.1818182E+00  0.1387779E-16  0.0000000E+00  0.1652893E-01
      1        -13.218719   1.000000
      2         -8.631930   1.000000
      3         -4.256386   1.000000
      4         -2.907992   1.000000
      5         -2.789343   1.000000
      6         -0.605232   0.000000
      7          1.039110   0.000000
      8          1.083640   0.000000
      9          2.441839   0.000000
     10          2.595625   0.000000
     11          3.770454   0.000000
     12          4.517126   0.000000
 
  0.2727273E+00  0.0000000E+00  0.0000000E+00  0.1652893E-01
      1        -12.800138   1.000000
      2         -8.861785   1.000000
      3         -5.058130   1.000000
      4         -3.332147   1.000000
      5         -2.878412   1.000000
      6         -0.998386   0.000000
      7          1.086978   0.000000
      8          1.243468   0.000000
      9          2.764032   0.000000
     10          2.999602   0.000000
     11          3.893025   0.000000
     12          4.885588   0.000000
 
  0.3636364E+00  0.0000000E+00  0.0000000E+00  0.1652893E-01
      1        -12.261439   1.000000
      2         -9.381320   1.000000
      3         -5.329269   1.000000
      4         -3.650038   1.000000
      5         -3.267666   1.000000
      6         -0.960177   0.000000
      7          0.612885   0.000000
      8          1.283278   0.000000
      9          3.096736   0.000000
     10          3.401722   0.000000
     11          4.026715   0.000000
     12          5.203196   0.000000
 
  0.4545455E+00  0.0000000E+00  0.0000000E+00  0.1652893E-01
      1        -11.748057   1.000000
      2         -9.956238   1.000000
      3         -5.257948   1.000000
      4         -3.817288   1.000000
      5         -3.679054   1.000000
      6         -0.717626   0.000000
      7          0.218284   0.000000
      8          1.266969   0.000000
      9          2.847033   0.000000
     10          4.210243   0.000000
     11          4.615755   0.000000
     12          5.113296   0.000000
 
  0.9090909E-01  0.9090909E-01  0.0000000E+00  0.1652893E-01
      1        -13.304641   1.000000
      2         -8.609267   1.000000
      3         -3.912454   1.000000
      4         -2.947238   1.000000
      5         -2.785705   1.000000
      6          0.041827   0.000000
      7          0.250171   0.000000
      8          1.214862   0.000000
      9          2.429074   0.000000
     10          2.447769   0.000000
     11          3.716999   0.000000
     12          4.571611   0.000000
 
  0.1818182E+00  0.9090909E-01  0.0000000E+00  0.3305785E-01
      1        -12.964360   1.000000
      2         -8.741405   1.000000
      3         -4.730771   1.000000
      4         -3.541372   1.000000
      5         -2.768011   1.000000
      6         -0.414110   0.000000
      7          0.722810   0.000000
      8          1.403274   0.000000
      9          2.668535   0.000000
     10          2.832230   0.000000
     11          3.697226   0.000000
     12          4.690664   0.000000
 
  0.2727273E+00  0.9090909E-01  0.0000000E+00  0.3305785E-01
      1        -12.479505   1.000000
      2         -9.128416   1.000000
      3         -5.199703   1.000000
      4         -3.980887   1.000000
      5         -2.972713   1.000000
      6         -0.629886   0.000000
      7          0.911744   0.000000
      8          1.051809   0.000000
      9          3.101646   0.000000
     10          3.265177   0.000000
     11          3.919998   0.000000
     12          5.159283   0.000000
 
  0.3636364E+00  0.9090909E-01  0.0000000E+00  0.3305785E-01
      1        -11.919046   1.000000
      2         -9.725376   1.000000
      3         -5.284079   1.000000
      4         -4.167411   1.000000
      5         -3.421587   1.000000
      6         -0.458696   0.000000
      7          0.445687   0.000000
      8          1.055433   0.000000
      9          3.097645   0.000000
     10          3.883681   0.000000
     11          4.378250   0.000000
     12          5.396349   0.000000
 
  0.4545455E+00  0.9090909E-01  0.0000000E+00  0.1652893E-01
      1        -11.581038   1.000000
      2        -10.099374   1.000000
      3         -5.255812   1.000000
      4         -4.122249   1.000000
      5         -3.742839   1.000000
      6         -0.157164   0.000000
      7          0.050641   0.000000
      8          1.083646   0.000000
      9          2.911238   0.000000
     10          4.758158   0.000000
     11          4.773534   0.000000
     12          5.070048   0.000000
 
  0.1818182E+00  0.1818182E+00  0.0000000E+00  0.1652893E-01
      1        -12.554131   1.000000
      2         -9.034356   1.000000
      3         -4.984232   1.000000
      4         -4.375666   1.000000
      5         -2.864154   1.000000
      6         -0.062166   0.000000
      7          0.373016   0.000000
      8          1.466138   0.000000
      9          3.098193   0.000000
     10          3.156721   0.000000
     11          3.750170   0.000000
     12          4.960481   0.000000
 
  0.2727273E+00  0.1818182E+00  0.0000000E+00  0.3305785E-01
      1        -12.021499   1.000000
      2         -9.546466   1.000000
      3         -5.153396   1.000000
      4         -4.743773   1.000000
      5         -3.190035   1.000000
      6         -0.131906   0.000000
      7          0.349269   0.000000
      8          1.387009   0.000000
      9          3.484090   0.000000
     10          3.757575   0.000000
     11          4.231596   0.000000
     12          4.836557   0.000000
 
  0.3636364E+00  0.1818182E+00  0.0000000E+00  0.3305785E-01
      1        -11.490246   1.000000
      2        -10.105093   1.000000
      3         -5.414272   1.000000
      4         -4.484529   1.000000
      5         -3.646028   1.000000
      6         -0.300586   0.000000
      7          0.660554   0.000000
      8          1.098286   0.000000
      9          3.372424   0.000000
     10          4.549856   0.000000
     11          4.846185   0.000000
     12          5.208461   0.000000
 
  0.2727273E+00  0.2727273E+00  0.0000000E+00  0.1652893E-01
      1        -11.469269   1.000000
      2        -10.076686   1.000000
      3         -5.535644   1.000000
      4         -4.604850   1.000000
      5         -3.554078   1.000000
      6         -0.501860   0.000000
      7          0.706821   0.000000
      8          1.553308   0.000000
      9          4.202874   0.000000
     10          4.376554   0.000000
     11          4.552488   0.000000
     12          4.727907   0.000000
 
  0.3636364E+00  0.2727273E+00  0.0000000E+00  0.1652893E-01
      1        -11.048614   1.000000
      2        -10.490856   1.000000
      3         -5.736560   1.000000
      4         -4.277173   1.000000
      5         -3.887352   1.000000
      6         -0.706138   0.000000
      7          1.129194   0.000000
      8          1.324503   0.000000
      9          4.279912   0.000000
     10          4.458757   0.000000
     11          5.284674   0.000000
     12          5.384563   0.000000
 
  0.0000000E+00  0.0000000E+00  0.3333333E+00  0.5509642E-02
      1        -13.566304   1.000000
      2         -8.593940   1.000000
      3         -2.892629   1.000000
      4         -2.285592   1.000000
      5         -2.285592   1.000000
      6         -0.718456   0.000000
      7          0.505265   0.000000
      8          0.505265   0.000000
      9          1.959703   0.000000
     10          2.389150   0.000000
     11          3.374999   0.000000
     12          4.614211   0.000000
 
  0.9090909E-01  0.6938894E-17  0.3333333E+00  0.1652893E-01
      1        -13.478543   1.000000
      2         -8.591212   1.000000
      3         -3.110902   1.000000
      4         -2.854665   1.000000
      5         -2.484612   1.000000
      6         -0.197707   0.000000
      7          0.433231   0.000000
      8          0.696149   0.000000
      9          2.080584   0.000000
     10          2.482657   0.000000
     11          3.480727   0.000000
     12          4.708718   0.000000
 
  0.0000000E+00  0.9090909E-01  0.3333333E+00  0.1652893E-01
      1        -13.478542   1.000000
      2         -8.591212   1.000000
      3         -3.110903   1.000000
      4         -2.854665   1.000000
      5         -2.484611   1.000000
      6         -0.197808   0.000000
      7          0.433590   0.000000
      8          0.696151   0.000000
      9          2.073310   0.000000
     10          2.496320   0.000000
     11          3.464666   0.000000
     12          4.740174   0.000000
 
  0.1818182E+00  0.1387779E-16  0.3333333E+00  0.1652893E-01
      1        -13.218712   1.000000
      2         -8.631930   1.000000
      3         -4.256383   1.000000
      4         -2.907995   1.000000
      5         -2.789332   1.000000
      6         -0.605183   0.000000
      7          1.039109   0.000000
      8          1.081553   0.000000
      9          2.375590   0.000000
     10          2.715713   0.000000
     11          3.781891   0.000000
     12          4.174667   0.000000
 
  0.0000000E+00  0.1818182E+00  0.3333333E+00  0.1652893E-01
      1        -13.218714   1.000000
      2         -8.631930   1.000000
      3         -4.256382   1.000000
      4         -2.907993   1.000000
      5         -2.789332   1.000000
      6         -0.605245   0.000000
      7          1.039112   0.000000
      8          1.083280   0.000000
      9          2.331570   0.000000
     10          2.807100   0.000000
     11          3.604649   0.000000
     12          4.371656   0.000000
 
  0.2727273E+00  0.0000000E+00  0.3333333E+00  0.1652893E-01
      1        -12.800138   1.000000
      2         -8.861785   1.000000
      3         -5.058131   1.000000
      4         -3.332144   1.000000
      5         -2.878409   1.000000
      6         -0.998352   0.000000
      7          1.086765   0.000000
      8          1.243463   0.000000
      9          2.699435   0.000000
     10          3.093347   0.000000
     11          4.115362   0.000000
     12          4.287005   0.000000
 
  0.0000000E+00  0.2727273E+00  0.3333333E+00  0.1652893E-01
      1        -12.800138   1.000000
      2         -8.861782   1.000000
      3         -5.058130   1.000000
      4         -3.332146   1.000000
      5         -2.878411   1.000000
      6         -0.998376   0.000000
      7          1.087372   0.000000
      8          1.243466   0.000000
      9          2.674512   0.000000
     10          3.164713   0.000000
     11          3.861728   0.000000
     12          4.612480   0.000000
 
  0.3636364E+00  0.0000000E+00  0.3333333E+00  0.1652893E-01
      1        -12.261434   1.000000
      2         -9.381315   1.000000
      3         -5.329267   1.000000
      4         -3.650039   1.000000
      5         -3.267662   1.000000
      6         -0.960156   0.000000
      7          0.612924   0.000000
      8          1.283278   0.000000
      9          3.114711   0.000000
     10          3.318402   0.000000
     11          4.314084   0.000000
     12          4.784125   0.000000
 
  0.0000000E+00  0.3636364E+00  0.3333333E+00  0.1652893E-01
      1        -12.261436   1.000000
      2         -9.381314   1.000000
      3         -5.329267   1.000000
      4         -3.650039   1.000000
      5         -3.267663   1.000000
      6         -0.960171   0.000000
      7          0.612968   0.000000
      8          1.283279   0.000000
      9          3.108858   0.000000
     10          3.338018   0.000000
     11          4.203293   0.000000
     12          5.003438   0.000000
 
  0.4545455E+00  0.0000000E+00  0.3333333E+00  0.1652893E-01
      1        -11.748056   1.000000
      2         -9.956237   1.000000
      3         -5.257949   1.000000
      4         -3.817285   1.000000
      5         -3.679061   1.000000
      6         -0.717620   0.000000
      7          0.218301   0.000000
      8          1.266968   0.000000
      9          2.848421   0.000000
     10          4.138528   0.000000
     11          4.744444   0.000000
     12          5.214881   0.000000
 
  0.0000000E+00  0.4545455E+00  0.3333333E+00  0.1652893E-01
      1        -11.748056   1.000000
      2         -9.956236   1.000000
      3         -5.257948   1.000000
      4         -3.817287   1.000000
      5         -3.679051   1.000000
      6         -0.717626   0.000000
      7          0.218304   0.000000
      8          1.266968   0.000000
      9          2.848651   0.000000
     10          4.159102   0.000000
     11          4.662012   0.000000
     12          5.174193   0.000000
 
  0.9090909E-01  0.9090909E-01  0.3333333E+00  0.3305785E-01
      1        -13.304643   1.000000
      2         -8.609269   1.000000
      3         -3.912452   1.000000
      4         -2.947241   1.000000
      5         -2.785693   1.000000
      6          0.041933   0.000000
      7          0.249887   0.000000
      8          1.213225   0.000000
      9          2.296130   0.000000
     10          2.652884   0.000000
     11          3.627067   0.000000
     12          4.256686   0.000000
 
  0.1818182E+00  0.9090909E-01  0.3333333E+00  0.3305785E-01
      1        -12.964363   1.000000
      2         -8.741407   1.000000
      3         -4.730772   1.000000
      4         -3.541375   1.000000
      5         -2.768005   1.000000
      6         -0.414035   0.000000
      7          0.722646   0.000000
      8          1.402060   0.000000
      9          2.606574   0.000000
     10          2.916866   0.000000
     11          3.908008   0.000000
     12          4.124021   0.000000
 
 -0.9090909E-01  0.2727273E+00  0.3333333E+00  0.3305785E-01
      1        -12.964364   1.000000
      2         -8.741404   1.000000
      3         -4.730773   1.000000
      4         -3.541372   1.000000
      5         -2.768005   1.000000
      6         -0.414090   0.000000
      7          0.722880   0.000000
      8          1.402877   0.000000
      9          2.568804   0.000000
     10          3.000868   0.000000
     11          3.708314   0.000000
     12          4.326730   0.000000
 
  0.2727273E+00  0.9090909E-01  0.3333333E+00  0.3305785E-01
      1        -12.479520   1.000000
      2         -9.128421   1.000000
      3         -5.199707   1.000000
      4         -3.980890   1.000000
      5         -2.972714   1.000000
      6         -0.629847   0.000000
      7          0.911750   0.000000
      8          1.051743   0.000000
      9          3.062506   0.000000
     10          3.269788   0.000000
     11          4.194098   0.000000
     12          4.581886   0.000000
 
 -0.9090909E-01  0.3636364E+00  0.3333333E+00  0.3305785E-01
      1        -12.479519   1.000000
      2         -9.128420   1.000000
      3         -5.199708   1.000000
      4         -3.980889   1.000000
      5         -2.972714   1.000000
      6         -0.629873   0.000000
      7          0.911757   0.000000
      8          1.051994   0.000000
      9          3.030359   0.000000
     10          3.337622   0.000000
     11          4.037930   0.000000
     12          4.788715   0.000000
 
  0.3636364E+00  0.9090909E-01  0.3333333E+00  0.3305785E-01
      1        -11.919048   1.000000
      2         -9.725375   1.000000
      3         -5.284081   1.000000
      4         -4.167407   1.000000
      5         -3.421585   1.000000
      6         -0.458674   0.000000
      7          0.445691   0.000000
      8          1.055457   0.000000
      9          3.101667   0.000000
     10          3.801875   0.000000
     11          4.630219   0.000000
     12          5.224726   0.000000
 
 -0.9090909E-01  0.4545455E+00  0.3333333E+00  0.3305785E-01
      1        -11.919049   1.000000
      2         -9.725375   1.000000
      3         -5.284077   1.000000
      4         -4.167406   1.000000
      5         -3.421582   1.000000
      6         -0.458689   0.000000
      7          0.445697   0.000000
      8          1.055496   0.000000
      9          3.101741   0.000000
     10          3.813389   0.000000
     11          4.550874   0.000000
     12          5.348054   0.000000
 
  0.4545455E+00  0.9090909E-01  0.3333333E+00  0.3305785E-01
      1        -11.581040   1.000000
      2        -10.099373   1.000000
      3         -5.255809   1.000000
      4         -4.122243   1.000000
      5         -3.742838   1.000000
      6         -0.157163   0.000000
      7          0.050646   0.000000
      8          1.083661   0.000000
      9          2.912214   0.000000
     10          4.700413   0.000000
     11          4.731476   0.000000
     12          5.110356   0.000000
 
  0.1818182E+00  0.1818182E+00  0.3333333E+00  0.3305785E-01
      1        -12.554139   1.000000
      2         -9.034358   1.000000
      3         -4.984234   1.000000
      4         -4.375667   1.000000
      5         -2.864152   1.000000
      6         -0.062067   0.000000
      7          0.373002   0.000000
      8          1.465752   0.000000
      9          3.045586   0.000000
     10          3.169805   0.000000
     11          3.959336   0.000000
     12          4.574963   0.000000
 
  0.2727273E+00  0.1818182E+00  0.3333333E+00  0.3305785E-01
      1        -12.021501   1.000000
      2         -9.546466   1.000000
      3         -5.153397   1.000000
      4         -4.743771   1.000000
      5         -3.190035   1.000000
      6         -0.131883   0.000000
      7          0.349319   0.000000
      8          1.386934   0.000000
      9          3.502649   0.000000
     10          3.663916   0.000000
     11          4.458828   0.000000
     12          4.838102   0.000000
 
 -0.1818182E+00  0.4545455E+00  0.3333333E+00  0.3305785E-01
      1        -12.021500   1.000000
      2         -9.546468   1.000000
      3         -5.153396   1.000000
      4         -4.743772   1.000000
      5         -3.190034   1.000000
      6         -0.131897   0.000000
      7          0.349323   0.000000
      8          1.387018   0.000000
      9          3.490334   0.000000
     10          3.687134   0.000000
     11          4.416384   0.000000
     12          4.825932   0.000000
 
  0.3636364E+00  0.1818182E+00  0.3333333E+00  0.3305785E-01
      1        -11.490242   1.000000
      2        -10.105092   1.000000
      3         -5.414271   1.000000
      4         -4.484524   1.000000
      5         -3.646027   1.000000
      6         -0.300583   0.000000
      7          0.660586   0.000000
      8          1.098295   0.000000
      9          3.373610   0.000000
     10          4.473888   0.000000
     11          4.959116   0.000000
     12          5.256861   0.000000
 
 -0.1818182E+00 -0.4545455E+00  0.3333333E+00  0.3305785E-01
      1        -11.490244   1.000000
      2        -10.105092   1.000000
      3         -5.414271   1.000000
      4         -4.484526   1.000000
      5         -3.646025   1.000000
      6         -0.300585   0.000000
      7          0.660576   0.000000
      8          1.098319   0.000000
      9          3.374119   0.000000
     10          4.482759   0.000000
     11          4.908041   0.000000
     12          5.287587   0.000000
 
  0.2727273E+00  0.2727273E+00  0.3333333E+00  0.3305785E-01
      1        -11.469264   1.000000
      2        -10.076681   1.000000
      3         -5.535643   1.000000
      4         -4.604847   1.000000
      5         -3.554073   1.000000
      6         -0.501860   0.000000
      7          0.706877   0.000000
      8          1.553308   0.000000
      9          4.213444   0.000000
     10          4.330234   0.000000
     11          4.582356   0.000000
     12          4.691370   0.000000
 
  0.3636364E+00  0.2727273E+00  0.3333333E+00  0.3305785E-01
      1        -11.048607   1.000000
      2        -10.490851   1.000000
      3         -5.736559   1.000000
      4         -4.277173   1.000000
      5         -3.887352   1.000000
      6         -0.706137   0.000000
      7          1.129227   0.000000
      8          1.324528   0.000000
      9          4.281565   0.000000
     10          4.462572   0.000000
     11          5.267350   0.000000
     12          5.325726   0.000000
