 running   16 mpi-ranks, on    1 nodes
 distrk:  each k-point on   16 cores,    1 groups
 distr:  one band on    4 cores,    4 groups
 vasp.6.4.2 20Jul23 (build Nov 14 2023 12:59:38) complex                        
  
 POSCAR found type information on POSCAR Sb
 POSCAR found :  1 types and       2 ions
 Reading from existing POTCAR
 scaLAPACK will be used
 Reading from existing POTCAR
 LDA part: xc-table for Pade appr. of Perdew
 POSCAR, INCAR and KPOINTS ok, starting setup
 FFT: planning ... GRIDC
 FFT: planning ... GRID_SOFT
 FFT: planning ... GRID
 WAVECAR not read
 entering main loop
       N       E                     dE             d eps       ncg     rms          rms(c)
DAV:   1     0.463263066678E+02    0.46326E+02   -0.22771E+03  1008   0.402E+02
DAV:   2    -0.450914505505E+01   -0.50835E+02   -0.48486E+02  1632   0.876E+01
DAV:   3    -0.810734167329E+01   -0.35982E+01   -0.35801E+01  1356   0.273E+01
DAV:   4    -0.817306766925E+01   -0.65726E-01   -0.65702E-01  1472   0.515E+00
DAV:   5    -0.817397595553E+01   -0.90829E-03   -0.90827E-03  1384   0.514E-01
DAV:   6    -0.817399271224E+01   -0.16757E-04   -0.16757E-04  1516   0.774E-02
DAV:   7    -0.817399291884E+01   -0.20660E-06   -0.20669E-06  1380   0.855E-03
DAV:   8    -0.817399292253E+01   -0.36866E-08   -0.36871E-08  1188   0.140E-03
DAV:   9    -0.817399292278E+01   -0.24846E-09   -0.26940E-09   888   0.393E-04
DAV:  10    -0.817399292287E+01   -0.94929E-10   -0.11714E-09   848   0.276E-04
DAV:  11    -0.817399292296E+01   -0.85890E-10   -0.57722E-10   728   0.178E-04
DAV:  12    -0.817399292300E+01   -0.41496E-10   -0.30204E-10   740   0.136E-04    0.159E+00
DAV:  13    -0.816002257651E+01    0.13970E-01   -0.25672E-03  1260   0.232E-01    0.142E+00
DAV:  14    -0.812806261312E+01    0.31960E-01   -0.11986E-01  1312   0.147E+00    0.206E-01
DAV:  15    -0.812469496913E+01    0.33676E-02   -0.12150E-02  1092   0.525E-01    0.739E-02
DAV:  16    -0.812446725011E+01    0.22772E-03   -0.22580E-03  1308   0.217E-01    0.484E-02
DAV:  17    -0.812435655773E+01    0.11069E-03   -0.42519E-04  1116   0.927E-02    0.344E-02
DAV:  18    -0.812433876940E+01    0.17788E-04   -0.15731E-04  1152   0.644E-02    0.565E-03
DAV:  19    -0.812433728539E+01    0.14840E-05   -0.70603E-06  1200   0.148E-02    0.557E-03
DAV:  20    -0.812433634325E+01    0.94214E-06   -0.25659E-06  1192   0.828E-03
   1 F= -.81243363E+01 E0= -.81243363E+01  d E =-.812434E+01
 curvature:   0.00 expect dE= 0.000E+00 dE for cont linesearch  0.000E+00
 trial: gam= 0.00000 g(F)=  0.558E-06 g(S)=  0.954E-05 ort = 0.000E+00 (trialstep = 0.100E+01)
 search vector abs. value=  0.101E-04
 reached required accuracy - stopping structural energy minimisation
IPL WARN> IPL_init_numa_nodes: can not define numa node num
