PROCAR new format
# of k-points:   42         # of bands:   12         # of ions:    2

 k-point     1 :    0.00000000 0.00000000 0.00000000     weight = 0.00275482

band     1 # energy  -13.56630669 # occ.  2.00000000
 
ion      s      p      d      f    tot
    1  0.335  0.015  0.000  0.001  0.350
    2  0.335  0.015  0.000  0.001  0.350
tot    0.669  0.030  0.000  0.002  0.701
 
band     2 # energy   -8.59393572 # occ.  2.00000000
 
ion      s      p      d      f    tot
    1  0.355  0.031  0.001  0.000  0.387
    2  0.355  0.031  0.001  0.000  0.387
tot    0.711  0.061  0.002  0.001  0.775
 
band     3 # energy   -2.89264390 # occ.  2.00000000
 
ion      s      p      d      f    tot
    1  0.008  0.266  0.003  0.002  0.280
    2  0.008  0.266  0.003  0.002  0.280
tot    0.016  0.533  0.006  0.005  0.559
 
band     4 # energy   -2.28558478 # occ.  2.00000000
 
ion      s      p      d      f    tot
    1  0.000  0.379  0.024  0.005  0.408
    2  0.000  0.379  0.024  0.005  0.408
tot    0.000  0.759  0.048  0.010  0.816
 
band     5 # energy   -2.28558476 # occ.  2.00000000
 
ion      s      p      d      f    tot
    1  0.000  0.379  0.024  0.005  0.408
    2  0.000  0.379  0.024  0.005  0.408
tot    0.000  0.759  0.048  0.010  0.816
 
band     6 # energy   -0.71828986 # occ.  0.00000000
 
ion      s      p      d      f    tot
    1  0.146  0.162  0.018  0.008  0.333
    2  0.146  0.162  0.018  0.008  0.333
tot    0.291  0.324  0.036  0.016  0.667
 
band     7 # energy    0.50526317 # occ.  0.00000000
 
ion      s      p      d      f    tot
    1  0.000  0.339  0.030  0.006  0.374
    2  0.000  0.339  0.030  0.006  0.374
tot    0.000  0.678  0.059  0.011  0.748
 
band     8 # energy    0.50526319 # occ.  0.00000000
 
ion      s      p      d      f    tot
    1  0.000  0.339  0.030  0.006  0.374
    2  0.000  0.339  0.030  0.006  0.374
tot    0.000  0.678  0.059  0.011  0.748
 
band     9 # energy    2.08876290 # occ.  0.00000000
 
ion      s      p      d      f    tot
    1  0.000  0.015  0.027  0.001  0.043
    2  0.000  0.015  0.027  0.001  0.043
tot    0.000  0.030  0.054  0.002  0.086
 
band    10 # energy    2.16965348 # occ.  0.00000000
 
ion      s      p      d      f    tot
    1  0.007  0.025  0.000  0.000  0.032
    2  0.007  0.025  0.000  0.000  0.032
tot    0.014  0.049  0.000  0.000  0.064
 
band    11 # energy    3.63331086 # occ.  0.00000000
 
ion      s      p      d      f    tot
    1  0.025  0.036  0.000  0.000  0.061
    2  0.025  0.036  0.000  0.000  0.061
tot    0.050  0.072  0.000  0.000  0.122
 
band    12 # energy    4.52855456 # occ.  0.00000000
 
ion      s      p      d      f    tot
    1  0.003  0.000  0.041  0.001  0.045
    2  0.003  0.000  0.041  0.001  0.045
tot    0.005  0.000  0.083  0.001  0.089
 

 k-point     2 :    0.09090909 0.00000000 0.00000000     weight = 0.01652893

band     1 # energy  -13.47853367 # occ.  2.00000000
 
ion      s      p      d      f    tot
    1  0.335  0.016  0.000  0.001  0.352
    2  0.335  0.016  0.000  0.001  0.352
tot    0.670  0.032  0.001  0.002  0.704
 
band     2 # energy   -8.59120969 # occ.  2.00000000
 
ion      s      p      d      f    tot
    1  0.363  0.028  0.002  0.000  0.393
    2  0.363  0.028  0.002  0.000  0.393
tot    0.727  0.056  0.003  0.001  0.787
 
band     3 # energy   -3.11090057 # occ.  2.00000000
 
ion      s      p      d      f    tot
    1  0.021  0.317  0.023  0.004  0.365
    2  0.021  0.317  0.023  0.004  0.365
tot    0.043  0.633  0.046  0.008  0.729
 
band     4 # energy   -2.85468272 # occ.  2.00000000
 
ion      s      p      d      f    tot
    1  0.010  0.271  0.003  0.002  0.285
    2  0.010  0.271  0.003  0.002  0.285
tot    0.019  0.541  0.006  0.004  0.571
 
band     5 # energy   -2.48461593 # occ.  2.00000000
 
ion      s      p      d      f    tot
    1  0.000  0.370  0.024  0.005  0.398
    2  0.000  0.370  0.024  0.005  0.398
tot    0.000  0.740  0.047  0.009  0.796
 
band     6 # energy   -0.19755745 # occ.  0.00000000
 
ion      s      p      d      f    tot
    1  0.089  0.228  0.020  0.007  0.344
    2  0.089  0.228  0.020  0.007  0.344
tot    0.178  0.455  0.040  0.014  0.688
 
band     7 # energy    0.43361715 # occ.  0.00000000
 
ion      s      p      d      f    tot
    1  0.039  0.298  0.019  0.007  0.363
    2  0.039  0.298  0.019  0.007  0.363
tot    0.078  0.596  0.037  0.014  0.726
 
band     8 # energy    0.69614970 # occ.  0.00000000
 
ion      s      p      d      f    tot
    1  0.000  0.353  0.026  0.006  0.385
    2  0.000  0.353  0.026  0.006  0.385
tot    0.000  0.706  0.052  0.012  0.770
 
band     9 # energy    2.20760224 # occ.  0.00000000
 
ion      s      p      d      f    tot
    1  0.000  0.023  0.026  0.002  0.051
    2  0.000  0.023  0.026  0.002  0.051
tot    0.001  0.046  0.053  0.003  0.102
 
band    10 # energy    2.27158384 # occ.  0.00000000
 
ion      s      p      d      f    tot
    1  0.004  0.028  0.002  0.001  0.035
    2  0.004  0.028  0.002  0.001  0.035
tot    0.009  0.056  0.004  0.001  0.070
 
band    11 # energy    3.71352930 # occ.  0.00000000
 
ion      s      p      d      f    tot
    1  0.014  0.039  0.008  0.001  0.062
    2  0.014  0.039  0.008  0.001  0.062
tot    0.029  0.077  0.016  0.002  0.123
 
band    12 # energy    4.62486854 # occ.  0.00000000
 
ion      s      p      d      f    tot
    1  0.003  0.001  0.042  0.001  0.047
    2  0.003  0.001  0.042  0.001  0.047
tot    0.005  0.001  0.084  0.002  0.093
 

 k-point     3 :    0.18181818 0.00000000 0.00000000     weight = 0.01652893

band     1 # energy  -13.21871867 # occ.  2.00000000
 
ion      s      p      d      f    tot
    1  0.336  0.019  0.001  0.001  0.356
    2  0.336  0.019  0.001  0.001  0.356
tot    0.671  0.037  0.002  0.002  0.712
 
band     2 # energy   -8.63193041 # occ.  2.00000000
 
ion      s      p      d      f    tot
    1  0.385  0.022  0.003  0.001  0.410
    2  0.385  0.022  0.003  0.001  0.410
tot    0.770  0.044  0.006  0.001  0.821
 
band     3 # energy   -4.25638550 # occ.  2.00000000
 
ion      s      p      d      f    tot
    1  0.011  0.287  0.019  0.002  0.320
    2  0.011  0.287  0.019  0.002  0.320
tot    0.023  0.574  0.038  0.004  0.640
 
band     4 # energy   -2.90799167 # occ.  2.00000000
 
ion      s      p      d      f    tot
    1  0.000  0.356  0.022  0.004  0.381
    2  0.000  0.356  0.022  0.004  0.381
tot    0.000  0.711  0.044  0.008  0.763
 
band     5 # energy   -2.78934294 # occ.  2.00000000
 
ion      s      p      d      f    tot
    1  0.016  0.283  0.003  0.002  0.304
    2  0.016  0.283  0.003  0.002  0.304
tot    0.032  0.566  0.006  0.004  0.608
 
band     6 # energy   -0.60523151 # occ.  0.00000000
 
ion      s      p      d      f    tot
    1  0.051  0.223  0.025  0.005  0.304
    2  0.051  0.223  0.025  0.005  0.304
tot    0.102  0.446  0.050  0.011  0.609
 
band     7 # energy    1.03911031 # occ.  0.00000000
 
ion      s      p      d      f    tot
    1  0.000  0.371  0.020  0.006  0.397
    2  0.000  0.371  0.020  0.006  0.397
tot    0.000  0.742  0.040  0.012  0.793
 
band     8 # energy    1.08364017 # occ.  0.00000000
 
ion      s      p      d      f    tot
    1  0.065  0.258  0.008  0.007  0.339
    2  0.065  0.258  0.008  0.007  0.339
tot    0.131  0.516  0.016  0.015  0.678
 
band     9 # energy    2.44183851 # occ.  0.00000000
 
ion      s      p      d      f    tot
    1  0.001  0.021  0.024  0.002  0.048
    2  0.001  0.021  0.024  0.002  0.048
tot    0.003  0.042  0.049  0.003  0.097
 
band    10 # energy    2.59562542 # occ.  0.00000000
 
ion      s      p      d      f    tot
    1  0.002  0.049  0.008  0.002  0.060
    2  0.002  0.049  0.008  0.002  0.060
tot    0.003  0.098  0.015  0.004  0.120
 
band    11 # energy    3.77045435 # occ.  0.00000000
 
ion      s      p      d      f    tot
    1  0.006  0.046  0.043  0.006  0.101
    2  0.006  0.046  0.043  0.006  0.101
tot    0.013  0.091  0.086  0.012  0.202
 
band    12 # energy    4.51712566 # occ.  0.00000000
 
ion      s      p      d      f    tot
    1  0.014  0.036  0.060  0.007  0.118
    2  0.014  0.036  0.060  0.007  0.118
tot    0.029  0.072  0.121  0.014  0.235
 

 k-point     4 :    0.27272727 0.00000000 0.00000000     weight = 0.01652893

band     1 # energy  -12.80013782 # occ.  2.00000000
 
ion      s      p      d      f    tot
    1  0.338  0.023  0.002  0.001  0.363
    2  0.338  0.023  0.002  0.001  0.363
tot    0.676  0.045  0.004  0.001  0.727
 
band     2 # energy   -8.86178504 # occ.  2.00000000
 
ion      s      p      d      f    tot
    1  0.400  0.021  0.006  0.001  0.427
    2  0.400  0.021  0.006  0.001  0.427
tot    0.801  0.041  0.011  0.002  0.855
 
band     3 # energy   -5.05813023 # occ.  2.00000000
 
ion      s      p      d      f    tot
    1  0.003  0.270  0.012  0.001  0.286
    2  0.003  0.270  0.012  0.001  0.286
tot    0.005  0.540  0.025  0.002  0.572
 
band     4 # energy   -3.33214734 # occ.  2.00000000
 
ion      s      p      d      f    tot
    1  0.000  0.346  0.019  0.003  0.368
    2  0.000  0.346  0.019  0.003  0.368
tot    0.000  0.691  0.038  0.007  0.736
 
band     5 # energy   -2.87841152 # occ.  2.00000000
 
ion      s      p      d      f    tot
    1  0.033  0.293  0.002  0.002  0.329
    2  0.033  0.293  0.002  0.002  0.329
tot    0.066  0.585  0.004  0.003  0.658
 
band     6 # energy   -0.99838619 # occ.  0.00000000
 
ion      s      p      d      f    tot
    1  0.043  0.194  0.028  0.005  0.270
    2  0.043  0.194  0.028  0.005  0.270
tot    0.086  0.389  0.055  0.009  0.539
 
band     7 # energy    1.08697797 # occ.  0.00000000
 
ion      s      p      d      f    tot
    1  0.034  0.210  0.035  0.005  0.285
    2  0.034  0.210  0.035  0.005  0.285
tot    0.068  0.421  0.071  0.011  0.570
 
band     8 # energy    1.24346774 # occ.  0.00000000
 
ion      s      p      d      f    tot
    1  0.000  0.367  0.019  0.004  0.391
    2  0.000  0.367  0.019  0.004  0.391
tot    0.000  0.735  0.039  0.009  0.783
 
band     9 # energy    2.76403228 # occ.  0.00000000
 
ion      s      p      d      f    tot
    1  0.007  0.010  0.028  0.001  0.046
    2  0.007  0.010  0.028  0.001  0.046
tot    0.013  0.021  0.055  0.002  0.091
 
band    10 # energy    2.99960214 # occ.  0.00000000
 
ion      s      p      d      f    tot
    1  0.002  0.053  0.007  0.001  0.064
    2  0.002  0.053  0.007  0.001  0.064
tot    0.005  0.106  0.015  0.002  0.128
 
band    11 # energy    3.89302516 # occ.  0.00000000
 
ion      s      p      d      f    tot
    1  0.003  0.070  0.047  0.004  0.124
    2  0.003  0.070  0.047  0.004  0.124
tot    0.006  0.140  0.094  0.008  0.248
 
band    12 # energy    4.88558754 # occ.  0.00000000
 
ion      s      p      d      f    tot
    1  0.017  0.052  0.031  0.003  0.103
    2  0.017  0.052  0.031  0.003  0.103
tot    0.034  0.104  0.062  0.007  0.207
 

 k-point     5 :    0.36363636 0.00000000 0.00000000     weight = 0.01652893

band     1 # energy  -12.26143888 # occ.  2.00000000
 
ion      s      p      d      f    tot
    1  0.344  0.026  0.004  0.001  0.375
    2  0.344  0.026  0.004  0.001  0.375
tot    0.688  0.052  0.007  0.001  0.749
 
band     2 # energy   -9.38131983 # occ.  2.00000000
 
ion      s      p      d      f    tot
    1  0.384  0.031  0.007  0.001  0.423
    2  0.384  0.031  0.007  0.001  0.423
tot    0.768  0.063  0.014  0.002  0.846
 
band     3 # energy   -5.32926903 # occ.  2.00000000
 
ion      s      p      d      f    tot
    1  0.026  0.249  0.006  0.000  0.281
    2  0.026  0.249  0.006  0.000  0.281
tot    0.052  0.498  0.012  0.001  0.563
 
band     4 # energy   -3.65003750 # occ.  2.00000000
 
ion      s      p      d      f    tot
    1  0.000  0.340  0.016  0.003  0.360
    2  0.000  0.340  0.016  0.003  0.360
tot    0.000  0.680  0.033  0.007  0.719
 
band     5 # energy   -3.26766626 # occ.  2.00000000
 
ion      s      p      d      f    tot
    1  0.045  0.280  0.002  0.002  0.328
    2  0.045  0.280  0.002  0.002  0.328
tot    0.090  0.559  0.003  0.003  0.656
 
band     6 # energy   -0.96017662 # occ.  0.00000000
 
ion      s      p      d      f    tot
    1  0.032  0.193  0.035  0.004  0.263
    2  0.032  0.193  0.035  0.004  0.263
tot    0.064  0.385  0.069  0.007  0.526
 
band     7 # energy    0.61288497 # occ.  0.00000000
 
ion      s      p      d      f    tot
    1  0.016  0.191  0.047  0.003  0.257
    2  0.016  0.191  0.047  0.003  0.257
tot    0.032  0.382  0.094  0.006  0.514
 
band     8 # energy    1.28327846 # occ.  0.00000000
 
ion      s      p      d      f    tot
    1  0.000  0.352  0.023  0.003  0.378
    2  0.000  0.352  0.023  0.003  0.378
tot    0.000  0.703  0.045  0.006  0.755
 
band     9 # energy    3.09673613 # occ.  0.00000000
 
ion      s      p      d      f    tot
    1  0.002  0.063  0.063  0.001  0.129
    2  0.002  0.063  0.063  0.001  0.129
tot    0.005  0.126  0.125  0.002  0.258
 
band    10 # energy    3.40172152 # occ.  0.00000000
 
ion      s      p      d      f    tot
    1  0.011  0.010  0.017  0.001  0.039
    2  0.011  0.010  0.017  0.001  0.039
tot    0.023  0.021  0.033  0.002  0.079
 
band    11 # energy    4.02671484 # occ.  0.00000000
 
ion      s      p      d      f    tot
    1  0.000  0.022  0.025  0.001  0.047
    2  0.000  0.022  0.025  0.001  0.047
tot    0.000  0.044  0.049  0.002  0.095
 
band    12 # energy    5.20319571 # occ.  0.00000000
 
ion      s      p      d      f    tot
    1  0.017  0.028  0.026  0.005  0.076
    2  0.017  0.028  0.026  0.005  0.076
tot    0.035  0.056  0.052  0.009  0.152
 

 k-point     6 :    0.45454545 0.00000000 0.00000000     weight = 0.01652893

band     1 # energy  -11.74805704 # occ.  2.00000000
 
ion      s      p      d      f    tot
    1  0.356  0.026  0.005  0.001  0.389
    2  0.356  0.026  0.005  0.001  0.389
tot    0.713  0.053  0.011  0.002  0.778
 
band     2 # energy   -9.95623788 # occ.  2.00000000
 
ion      s      p      d      f    tot
    1  0.355  0.043  0.007  0.001  0.405
    2  0.355  0.043  0.007  0.001  0.405
tot    0.709  0.086  0.013  0.001  0.810
 
band     3 # energy   -5.25794830 # occ.  2.00000000
 
ion      s      p      d      f    tot
    1  0.060  0.234  0.002  0.000  0.296
    2  0.060  0.234  0.002  0.000  0.296
tot    0.120  0.467  0.004  0.001  0.593
 
band     4 # energy   -3.81728847 # occ.  2.00000000
 
ion      s      p      d      f    tot
    1  0.000  0.337  0.015  0.003  0.356
    2  0.000  0.337  0.015  0.003  0.356
tot    0.000  0.675  0.030  0.007  0.711
 
band     5 # energy   -3.67905365 # occ.  2.00000000
 
ion      s      p      d      f    tot
    1  0.039  0.267  0.002  0.002  0.310
    2  0.039  0.267  0.002  0.002  0.310
tot    0.078  0.534  0.005  0.003  0.620
 
band     6 # energy   -0.71762579 # occ.  0.00000000
 
ion      s      p      d      f    tot
    1  0.034  0.186  0.047  0.004  0.271
    2  0.034  0.186  0.047  0.004  0.271
tot    0.067  0.373  0.094  0.007  0.542
 
band     7 # energy    0.21828417 # occ.  0.00000000
 
ion      s      p      d      f    tot
    1  0.005  0.212  0.037  0.001  0.256
    2  0.005  0.212  0.037  0.001  0.256
tot    0.010  0.425  0.075  0.003  0.513
 
band     8 # energy    1.26696918 # occ.  0.00000000
 
ion      s      p      d      f    tot
    1  0.000  0.341  0.025  0.003  0.369
    2  0.000  0.341  0.025  0.003  0.369
tot    0.000  0.682  0.051  0.005  0.738
 
band     9 # energy    2.84703282 # occ.  0.00000000
 
ion      s      p      d      f    tot
    1  0.000  0.028  0.085  0.001  0.114
    2  0.000  0.028  0.085  0.001  0.114
tot    0.001  0.056  0.170  0.002  0.229
 
band    10 # energy    4.21024300 # occ.  0.00000000
 
ion      s      p      d      f    tot
    1  0.015  0.011  0.020  0.002  0.047
    2  0.015  0.011  0.020  0.002  0.047
tot    0.030  0.021  0.039  0.004  0.094
 
band    11 # energy    4.61575520 # occ.  0.00000000
 
ion      s      p      d      f    tot
    1  0.006  0.026  0.012  0.002  0.046
    2  0.006  0.026  0.012  0.002  0.046
tot    0.013  0.051  0.025  0.004  0.093
 
band    12 # energy    5.11329581 # occ.  0.00000000
 
ion      s      p      d      f    tot
    1  0.016  0.011  0.023  0.005  0.054
    2  0.016  0.011  0.023  0.005  0.054
tot    0.032  0.022  0.046  0.009  0.109
 

 k-point     7 :    0.09090909 0.09090909 0.00000000     weight = 0.01652893

band     1 # energy  -13.30464133 # occ.  2.00000000
 
ion      s      p      d      f    tot
    1  0.335  0.018  0.001  0.001  0.355
    2  0.335  0.018  0.001  0.001  0.355
tot    0.670  0.036  0.002  0.002  0.709
 
band     2 # energy   -8.60926748 # occ.  2.00000000
 
ion      s      p      d      f    tot
    1  0.378  0.024  0.002  0.001  0.405
    2  0.378  0.024  0.002  0.001  0.405
tot    0.757  0.047  0.005  0.001  0.810
 
band     3 # energy   -3.91245391 # occ.  2.00000000
 
ion      s      p      d      f    tot
    1  0.016  0.294  0.021  0.003  0.334
    2  0.016  0.294  0.021  0.003  0.334
tot    0.033  0.589  0.041  0.005  0.668
 
band     4 # energy   -2.94723848 # occ.  2.00000000
 
ion      s      p      d      f    tot
    1  0.007  0.338  0.021  0.003  0.369
    2  0.007  0.338  0.021  0.003  0.369
tot    0.013  0.676  0.042  0.007  0.738
 
band     5 # energy   -2.78570534 # occ.  2.00000000
 
ion      s      p      d      f    tot
    1  0.009  0.285  0.005  0.002  0.301
    2  0.009  0.285  0.005  0.002  0.301
tot    0.018  0.570  0.010  0.005  0.602
 
band     6 # energy    0.04182697 # occ.  0.00000000
 
ion      s      p      d      f    tot
    1  0.027  0.284  0.021  0.006  0.338
    2  0.027  0.284  0.021  0.006  0.338
tot    0.055  0.568  0.042  0.011  0.676
 
band     7 # energy    0.25017138 # occ.  0.00000000
 
ion      s      p      d      f    tot
    1  0.064  0.264  0.021  0.007  0.355
    2  0.064  0.264  0.021  0.007  0.355
tot    0.128  0.528  0.041  0.014  0.710
 
band     8 # energy    1.21486174 # occ.  0.00000000
 
ion      s      p      d      f    tot
    1  0.030  0.328  0.010  0.007  0.375
    2  0.030  0.328  0.010  0.007  0.375
tot    0.060  0.655  0.020  0.014  0.750
 
band     9 # energy    2.42907392 # occ.  0.00000000
 
ion      s      p      d      f    tot
    1  0.000  0.042  0.026  0.003  0.072
    2  0.000  0.042  0.026  0.003  0.072
tot    0.001  0.085  0.052  0.006  0.143
 
band    10 # energy    2.44776906 # occ.  0.00000000
 
ion      s      p      d      f    tot
    1  0.003  0.030  0.005  0.001  0.038
    2  0.003  0.030  0.005  0.001  0.038
tot    0.006  0.059  0.010  0.002  0.077
 
band    11 # energy    3.71699902 # occ.  0.00000000
 
ion      s      p      d      f    tot
    1  0.006  0.029  0.042  0.005  0.082
    2  0.006  0.029  0.042  0.005  0.082
tot    0.011  0.059  0.085  0.010  0.165
 
band    12 # energy    4.57161061 # occ.  0.00000000
 
ion      s      p      d      f    tot
    1  0.004  0.041  0.073  0.010  0.129
    2  0.004  0.041  0.073  0.010  0.129
tot    0.008  0.083  0.147  0.021  0.258
 

 k-point     8 :    0.18181818 0.09090909 0.00000000     weight = 0.03305785

band     1 # energy  -12.96435958 # occ.  2.00000000
 
ion      s      p      d      f    tot
    1  0.337  0.021  0.002  0.001  0.360
    2  0.337  0.021  0.002  0.001  0.360
tot    0.674  0.042  0.003  0.001  0.721
 
band     2 # energy   -8.74140533 # occ.  2.00000000
 
ion      s      p      d      f    tot
    1  0.399  0.019  0.005  0.001  0.423
    2  0.399  0.019  0.005  0.001  0.423
tot    0.797  0.039  0.009  0.002  0.847
 
band     3 # energy   -4.73077092 # occ.  2.00000000
 
ion      s      p      d      f    tot
    1  0.003  0.279  0.016  0.001  0.299
    2  0.003  0.279  0.016  0.001  0.299
tot    0.005  0.559  0.031  0.003  0.598
 
band     4 # energy   -3.54137164 # occ.  2.00000000
 
ion      s      p      d      f    tot
    1  0.009  0.318  0.020  0.003  0.349
    2  0.009  0.318  0.020  0.003  0.349
tot    0.017  0.636  0.039  0.006  0.698
 
band     5 # energy   -2.76801099 # occ.  2.00000000
 
ion      s      p      d      f    tot
    1  0.019  0.296  0.003  0.002  0.320
    2  0.019  0.296  0.003  0.002  0.320
tot    0.039  0.591  0.006  0.004  0.640
 
band     6 # energy   -0.41411044 # occ.  0.00000000
 
ion      s      p      d      f    tot
    1  0.039  0.239  0.022  0.005  0.305
    2  0.039  0.239  0.022  0.005  0.305
tot    0.078  0.478  0.045  0.010  0.610
 
band     7 # energy    0.72281000 # occ.  0.00000000
 
ion      s      p      d      f    tot
    1  0.028  0.306  0.020  0.005  0.359
    2  0.028  0.306  0.020  0.005  0.359
tot    0.055  0.612  0.040  0.011  0.718
 
band     8 # energy    1.40327444 # occ.  0.00000000
 
ion      s      p      d      f    tot
    1  0.033  0.282  0.018  0.007  0.339
    2  0.033  0.282  0.018  0.007  0.339
tot    0.066  0.563  0.036  0.013  0.678
 
band     9 # energy    2.66853452 # occ.  0.00000000
 
ion      s      p      d      f    tot
    1  0.002  0.018  0.029  0.002  0.051
    2  0.002  0.018  0.029  0.002  0.051
tot    0.003  0.037  0.058  0.004  0.102
 
band    10 # energy    2.83223032 # occ.  0.00000000
 
ion      s      p      d      f    tot
    1  0.001  0.049  0.011  0.002  0.063
    2  0.001  0.049  0.011  0.002  0.063
tot    0.002  0.099  0.021  0.004  0.126
 
band    11 # energy    3.69722615 # occ.  0.00000000
 
ion      s      p      d      f    tot
    1  0.002  0.041  0.068  0.008  0.119
    2  0.002  0.041  0.068  0.008  0.119
tot    0.005  0.082  0.136  0.016  0.238
 
band    12 # energy    4.69066365 # occ.  0.00000000
 
ion      s      p      d      f    tot
    1  0.008  0.046  0.035  0.004  0.093
    2  0.008  0.046  0.035  0.004  0.093
tot    0.016  0.093  0.069  0.009  0.186
 

 k-point     9 :    0.27272727 0.09090909 0.00000000     weight = 0.03305785

band     1 # energy  -12.47950541 # occ.  2.00000000
 
ion      s      p      d      f    tot
    1  0.341  0.025  0.003  0.001  0.370
    2  0.341  0.025  0.003  0.001  0.370
tot    0.682  0.050  0.006  0.001  0.739
 
band     2 # energy   -9.12841578 # occ.  2.00000000
 
ion      s      p      d      f    tot
    1  0.398  0.024  0.007  0.001  0.430
    2  0.398  0.024  0.007  0.001  0.430
tot    0.796  0.049  0.014  0.002  0.860
 
band     3 # energy   -5.19970309 # occ.  2.00000000
 
ion      s      p      d      f    tot
    1  0.010  0.261  0.009  0.001  0.281
    2  0.010  0.261  0.009  0.001  0.281
tot    0.021  0.522  0.018  0.001  0.562
 
band     4 # energy   -3.98088749 # occ.  2.00000000
 
ion      s      p      d      f    tot
    1  0.009  0.306  0.017  0.002  0.335
    2  0.009  0.306  0.017  0.002  0.335
tot    0.018  0.612  0.034  0.005  0.669
 
band     5 # energy   -2.97271312 # occ.  2.00000000
 
ion      s      p      d      f    tot
    1  0.033  0.301  0.003  0.002  0.337
    2  0.033  0.301  0.003  0.002  0.337
tot    0.065  0.601  0.005  0.003  0.675
 
band     6 # energy   -0.62988631 # occ.  0.00000000
 
ion      s      p      d      f    tot
    1  0.031  0.215  0.027  0.004  0.277
    2  0.031  0.215  0.027  0.004  0.277
tot    0.062  0.431  0.053  0.008  0.554
 
band     7 # energy    0.91174372 # occ.  0.00000000
 
ion      s      p      d      f    tot
    1  0.003  0.311  0.025  0.004  0.343
    2  0.003  0.311  0.025  0.004  0.343
tot    0.006  0.623  0.051  0.007  0.686
 
band     8 # energy    1.05180901 # occ.  0.00000000
 
ion      s      p      d      f    tot
    1  0.032  0.219  0.038  0.005  0.294
    2  0.032  0.219  0.038  0.005  0.294
tot    0.064  0.438  0.076  0.011  0.588
 
band     9 # energy    3.10164624 # occ.  0.00000000
 
ion      s      p      d      f    tot
    1  0.006  0.027  0.038  0.002  0.073
    2  0.006  0.027  0.038  0.002  0.073
tot    0.012  0.054  0.075  0.004  0.146
 
band    10 # energy    3.26517735 # occ.  0.00000000
 
ion      s      p      d      f    tot
    1  0.002  0.062  0.016  0.002  0.081
    2  0.002  0.062  0.016  0.002  0.081
tot    0.005  0.123  0.032  0.003  0.163
 
band    11 # energy    3.91999789 # occ.  0.00000000
 
ion      s      p      d      f    tot
    1  0.000  0.044  0.046  0.003  0.094
    2  0.000  0.044  0.046  0.003  0.094
tot    0.001  0.088  0.093  0.006  0.188
 
band    12 # energy    5.15928271 # occ.  0.00000000
 
ion      s      p      d      f    tot
    1  0.006  0.051  0.024  0.002  0.082
    2  0.006  0.051  0.024  0.002  0.082
tot    0.012  0.101  0.048  0.004  0.165
 

 k-point    10 :    0.36363636 0.09090909 0.00000000     weight = 0.03305785

band     1 # energy  -11.91904584 # occ.  2.00000000
 
ion      s      p      d      f    tot
    1  0.350  0.027  0.005  0.001  0.383
    2  0.350  0.027  0.005  0.001  0.383
tot    0.700  0.055  0.009  0.002  0.766
 
band     2 # energy   -9.72537602 # occ.  2.00000000
 
ion      s      p      d      f    tot
    1  0.372  0.036  0.007  0.001  0.416
    2  0.372  0.036  0.007  0.001  0.416
tot    0.744  0.073  0.015  0.002  0.833
 
band     3 # energy   -5.28407938 # occ.  2.00000000
 
ion      s      p      d      f    tot
    1  0.043  0.242  0.005  0.000  0.290
    2  0.043  0.242  0.005  0.000  0.290
tot    0.085  0.484  0.009  0.001  0.579
 
band     4 # energy   -4.16741149 # occ.  2.00000000
 
ion      s      p      d      f    tot
    1  0.006  0.304  0.015  0.002  0.327
    2  0.006  0.304  0.015  0.002  0.327
tot    0.011  0.609  0.030  0.005  0.654
 
band     5 # energy   -3.42158734 # occ.  2.00000000
 
ion      s      p      d      f    tot
    1  0.037  0.286  0.003  0.002  0.328
    2  0.037  0.286  0.003  0.002  0.328
tot    0.074  0.571  0.006  0.003  0.655
 
band     6 # energy   -0.45869636 # occ.  0.00000000
 
ion      s      p      d      f    tot
    1  0.025  0.217  0.033  0.004  0.278
    2  0.025  0.217  0.033  0.004  0.278
tot    0.049  0.433  0.066  0.007  0.556
 
band     7 # energy    0.44568688 # occ.  0.00000000
 
ion      s      p      d      f    tot
    1  0.012  0.229  0.041  0.003  0.286
    2  0.012  0.229  0.041  0.003  0.286
tot    0.024  0.459  0.083  0.006  0.572
 
band     8 # energy    1.05543344 # occ.  0.00000000
 
ion      s      p      d      f    tot
    1  0.011  0.282  0.028  0.003  0.324
    2  0.011  0.282  0.028  0.003  0.324
tot    0.022  0.564  0.055  0.006  0.647
 
band     9 # energy    3.09764526 # occ.  0.00000000
 
ion      s      p      d      f    tot
    1  0.000  0.052  0.081  0.002  0.135
    2  0.000  0.052  0.081  0.002  0.135
tot    0.000  0.103  0.163  0.004  0.270
 
band    10 # energy    3.88368125 # occ.  0.00000000
 
ion      s      p      d      f    tot
    1  0.010  0.014  0.017  0.002  0.042
    2  0.010  0.014  0.017  0.002  0.042
tot    0.019  0.028  0.033  0.003  0.084
 
band    11 # energy    4.37825024 # occ.  0.00000000
 
ion      s      p      d      f    tot
    1  0.001  0.025  0.013  0.001  0.039
    2  0.001  0.025  0.013  0.001  0.039
tot    0.001  0.050  0.026  0.001  0.079
 
band    12 # energy    5.39634907 # occ.  0.00000000
 
ion      s      p      d      f    tot
    1  0.012  0.052  0.032  0.007  0.102
    2  0.012  0.052  0.032  0.007  0.102
tot    0.023  0.103  0.063  0.014  0.204
 

 k-point    11 :    0.45454545 0.09090909 0.00000000     weight = 0.01652893

band     1 # energy  -11.58103775 # occ.  2.00000000
 
ion      s      p      d      f    tot
    1  0.360  0.026  0.006  0.001  0.393
    2  0.360  0.026  0.006  0.001  0.393
tot    0.721  0.053  0.012  0.002  0.787
 
band     2 # energy  -10.09937438 # occ.  2.00000000
 
ion      s      p      d      f    tot
    1  0.353  0.043  0.007  0.001  0.403
    2  0.353  0.043  0.007  0.001  0.403
tot    0.705  0.086  0.013  0.001  0.806
 
band     3 # energy   -5.25581198 # occ.  2.00000000
 
ion      s      p      d      f    tot
    1  0.060  0.235  0.003  0.001  0.299
    2  0.060  0.235  0.003  0.001  0.299
tot    0.120  0.471  0.007  0.001  0.599
 
band     4 # energy   -4.12224865 # occ.  2.00000000
 
ion      s      p      d      f    tot
    1  0.002  0.314  0.015  0.002  0.333
    2  0.002  0.314  0.015  0.002  0.333
tot    0.004  0.627  0.029  0.004  0.665
 
band     5 # energy   -3.74283897 # occ.  2.00000000
 
ion      s      p      d      f    tot
    1  0.037  0.267  0.003  0.002  0.309
    2  0.037  0.267  0.003  0.002  0.309
tot    0.075  0.535  0.006  0.003  0.618
 
band     6 # energy   -0.15716406 # occ.  0.00000000
 
ion      s      p      d      f    tot
    1  0.035  0.214  0.045  0.005  0.298
    2  0.035  0.214  0.045  0.005  0.298
tot    0.070  0.428  0.089  0.010  0.597
 
band     7 # energy    0.05064056 # occ.  0.00000000
 
ion      s      p      d      f    tot
    1  0.001  0.232  0.032  0.001  0.266
    2  0.001  0.232  0.032  0.001  0.266
tot    0.001  0.463  0.065  0.002  0.532
 
band     8 # energy    1.08364616 # occ.  0.00000000
 
ion      s      p      d      f    tot
    1  0.007  0.291  0.026  0.003  0.328
    2  0.007  0.291  0.026  0.003  0.328
tot    0.015  0.583  0.052  0.006  0.655
 
band     9 # energy    2.91123792 # occ.  0.00000000
 
ion      s      p      d      f    tot
    1  0.000  0.020  0.090  0.002  0.113
    2  0.000  0.020  0.090  0.002  0.113
tot    0.000  0.041  0.181  0.004  0.225
 
band    10 # energy    4.75815813 # occ.  0.00000000
 
ion      s      p      d      f    tot
    1  0.016  0.030  0.014  0.003  0.063
    2  0.016  0.030  0.014  0.003  0.063
tot    0.033  0.059  0.028  0.006  0.125
 
band    11 # energy    4.77353412 # occ.  0.00000000
 
ion      s      p      d      f    tot
    1  0.008  0.009  0.027  0.002  0.046
    2  0.008  0.009  0.027  0.002  0.046
tot    0.017  0.017  0.055  0.004  0.093
 
band    12 # energy    5.07004835 # occ.  0.00000000
 
ion      s      p      d      f    tot
    1  0.000  0.049  0.006  0.002  0.057
    2  0.000  0.049  0.006  0.002  0.057
tot    0.000  0.098  0.011  0.005  0.114
 

 k-point    12 :    0.18181818 0.18181818 0.00000000     weight = 0.01652893

band     1 # energy  -12.55413098 # occ.  2.00000000
 