<?xml version="1.0" encoding="ISO-8859-1"?>
<modeling>
 <generator>
  <i name="program" type="string">vasp </i>
  <i name="version" type="string">6.4.2  </i>
  <i name="subversion" type="string">20Jul23 (build Nov 14 2023 12:59:38) complex                          parallel </i>
  <i name="platform" type="string">LinuxIFC </i>
  <i name="date" type="string">2023 12 16 </i>
  <i name="time" type="string">19:17:01 </i>
 </generator>
 <incar>
  <i type="string" name="PREC">Accurate</i>
  <i type="string" name="ALGO">Normal</i>
  <i type="logical" name="ADDGRID"> T  </i>
  <i type="int" name="ISPIN">     1</i>
  <i name="AMIX">      0.10000000</i>
  <i name="BMIX">      0.00010000</i>
  <i type="int" name="NELM">   200</i>
  <i type="int" name="NELMDL">   -12</i>
  <i type="int" name="NELMIN">     6</i>
  <i type="int" name="IBRION">     2</i>
  <i name="EDIFF">      0.00000100</i>
  <i name="EDIFFG">     -0.01000000</i>
  <i type="int" name="NSW">    30</i>
  <i type="int" name="ISIF">     3</i>
  <i name="ENCUT">    344.13800000</i>
  <i name="POTIM">      0.50000000</i>
  <i type="int" name="NEDOS">  6001</i>
  <i type="logical" name="LPLANE"> T  </i>
  <i type="int" name="ISMEAR">     0</i>
  <i name="SIGMA">      0.01000000</i>
  <i type="int" name="NWRITE">     1</i>
  <i type="logical" name="LWAVE"> F  </i>
  <i type="logical" name="LCHARG"> F  </i>
  <i type="int" name="LORBIT">    10</i>
  <i type="logical" name="LASPH"> T  </i>
  <i type="int" name="IVDW">     0</i>
 </incar>
 <primitive_cell>
  <structure name="primitive_cell" >
   <crystal>
    <varray name="basis" >
     <v>       4.11336655       0.00000000       0.00000000 </v>
     <v>      -2.05668327       3.56227993       0.00000000 </v>
     <v>       0.00000000       0.00000000      16.00000000 </v>
    </varray>
    <i name="volume">    234.44740948 </i>
    <varray name="rec_basis" >
     <v>       0.24310987       0.14035955       0.00000000 </v>
     <v>       0.00000000       0.28071910       0.00000000 </v>
     <v>       0.00000000       0.00000000       0.06250000 </v>
    </varray>
   </crystal>
   <varray name="positions" >
    <v>       0.66666667       0.33333333       0.44862540 </v>
    <v>       0.33333333       0.66666667       0.55137460 </v>
   </varray>
  </structure>
  <varray name="primitive_index" >
   <v type="int" >        1 </v>
   <v type="int" >        2 </v>
  </varray>
 </primitive_cell>
 <kpoints>
  <generation param="Auto">
   <i name="subdivisionlength">     40.00000000 </i>
   <v type="int" name="divisions">      11       11        3 </v>
   <v name="usershift">      0.00000000       0.00000000       0.00000000 </v>
   <v name="genvec1">      0.09090909       0.00000000       0.00000000 </v>
   <v name="genvec2">      0.00000000       0.09090909       0.00000000 </v>
   <v name="genvec3">      0.00000000       0.00000000       0.33333333 </v>
   <v name="shift">      0.00000000       0.00000000       0.00000000 </v>
  </generation>
  <varray name="kpointlist" >
   <v>       0.00000000       0.00000000       0.00000000 </v>
   <v>       0.09090909       0.00000000       0.00000000 </v>
   <v>       0.18181818       0.00000000       0.00000000 </v>
   <v>       0.27272727       0.00000000       0.00000000 </v>
   <v>       0.36363636       0.00000000       0.00000000 </v>
   <v>       0.45454545       0.00000000       0.00000000 </v>
   <v>       0.09090909       0.09090909       0.00000000 </v>
   <v>       0.18181818       0.09090909       0.00000000 </v>
   <v>       0.27272727       0.09090909       0.00000000 </v>
   <v>       0.36363636       0.09090909       0.00000000 </v>
   <v>       0.45454545       0.09090909       0.00000000 </v>
   <v>       0.18181818       0.18181818       0.00000000 </v>
   <v>       0.27272727       0.18181818       0.00000000 </v>
   <v>       0.36363636       0.18181818       0.00000000 </v>
   <v>       0.27272727       0.27272727       0.00000000 </v>
   <v>       0.36363636       0.27272727       0.00000000 </v>
   <v>       0.00000000       0.00000000       0.33333333 </v>
   <v>       0.09090909       0.00000000       0.33333333 </v>
   <v>       0.00000000       0.09090909       0.33333333 </v>
   <v>       0.18181818       0.00000000       0.33333333 </v>
   <v>       0.00000000       0.18181818       0.33333333 </v>
   <v>       0.27272727       0.00000000       0.33333333 </v>
   <v>       0.00000000       0.27272727       0.33333333 </v>
   <v>       0.36363636       0.00000000       0.33333333 </v>
   <v>       0.00000000       0.36363636       0.33333333 </v>
   <v>       0.45454545       0.00000000       0.33333333 </v>
   <v>       0.00000000       0.45454545       0.33333333 </v>
   <v>       0.09090909       0.09090909       0.33333333 </v>
   <v>       0.18181818       0.09090909       0.33333333 </v>
   <v>      -0.09090909       0.27272727       0.33333333 </v>
   <v>       0.27272727       0.09090909       0.33333333 </v>
   <v>      -0.09090909       0.36363636       0.33333333 </v>
   <v>       0.36363636       0.09090909       0.33333333 </v>
   <v>      -0.09090909       0.45454545       0.33333333 </v>
   <v>       0.45454545       0.09090909       0.33333333 </v>
   <v>       0.18181818       0.18181818       0.33333333 </v>
   <v>       0.27272727       0.18181818       0.33333333 </v>
   <v>      -0.18181818       0.45454545       0.33333333 </v>
   <v>       0.36363636       0.18181818       0.33333333 </v>
   <v>      -0.18181818      -0.45454545       0.33333333 </v>
   <v>       0.27272727       0.27272727       0.33333333 </v>
   <v>       0.36363636       0.27272727       0.33333333 </v>
  </varray>
  <varray name="weights" >
   <v>       0.00275482 </v>
   <v>       0.01652893 </v>
   <v>       0.01652893 </v>
   <v>       0.01652893 </v>
   <v>       0.01652893 </v>
   <v>       0.01652893 </v>
   <v>       0.01652893 </v>
   <v>       0.03305785 </v>
   <v>       0.03305785 </v>
   <v>       0.03305785 </v>
   <v>       0.01652893 </v>
   <v>       0.01652893 </v>
   <v>       0.03305785 </v>
   <v>       0.03305785 </v>
   <v>       0.01652893 </v>
   <v>       0.01652893 </v>
   <v>       0.00550964 </v>
   <v>       0.01652893 </v>
   <v>       0.01652893 </v>
   <v>       0.01652893 </v>
   <v>       0.01652893 </v>
   <v>       0.01652893 </v>
   <v>       0.01652893 </v>
   <v>       0.01652893 </v>
   <v>       0.01652893 </v>
   <v>       0.01652893 </v>
   <v>       0.01652893 </v>
   <v>       0.03305785 </v>
   <v>       0.03305785 </v>
   <v>       0.03305785 </v>
   <v>       0.03305785 </v>
   <v>       0.03305785 </v>
   <v>       0.03305785 </v>
   <v>       0.03305785 </v>
   <v>       0.03305785 </v>
   <v>       0.03305785 </v>
   <v>       0.03305785 </v>
   <v>       0.03305785 </v>
   <v>       0.03305785 </v>
   <v>       0.03305785 </v>
   <v>       0.03305785 </v>
   <v>       0.03305785 </v>
  </varray>
 </kpoints>
 <parameters>
  <separator name="general" >
   <i type="string" name="SYSTEM">unknown system</i>
   <i type="logical" name="LCOMPAT"> F  </i>
  </separator>
  <separator name="electronic" >
   <i type="string" name="PREC">accura</i>
   <i name="ENMAX">    344.13800000</i>
   <i name="ENAUG">    560.61200000</i>
   <i name="EDIFF">      0.00000100</i>
   <i type="int" name="IALGO">    38</i>
   <i type="int" name="IWAVPR">    11</i>
   <i type="int" name="NBANDS">    12</i>
   <i type="int" name="NBANDSLOW">    -1</i>
   <i type="int" name="NBANDSHIGH">    -1</i>
   <i name="NELECT">     10.00000000</i>
   <i type="int" name="TURBO">     0</i>
   <i type="int" name="IRESTART">     0</i>
   <i type="int" name="NREBOOT">     0</i>
   <i type="int" name="NMIN">     0</i>
   <i name="EREF">      0.00000000</i>
   <separator name="electronic smearing" >
    <i type="int" name="ISMEAR">     0</i>
    <i name="SIGMA">      0.01000000</i>
    <i name="KSPACING">      0.50000000</i>
    <i type="logical" name="KGAMMA"> T  </i>
    <i type="logical" name="KBLOWUP"> T  </i>
   </separator>
   <separator name="electronic projectors" >
    <i type="logical" name="LREAL"> F  </i>
    <v name="ROPT">      0.00000000</v>
    <i type="int" name="LMAXPAW">  -100</i>
    <i type="int" name="LMAXMIX">     2</i>
    <i type="logical" name="NLSPLINE"> F  </i>
   </separator>
   <separator name="electronic startup" >
    <i type="int" name="ISTART">     0</i>
    <i type="int" name="ICHARG">     2</i>
    <i type="int" name="INIWAV">     1</i>
   </separator>
   <separator name="electronic spin" >
    <i type="int" name="ISPIN">     1</i>
    <i type="logical" name="LNONCOLLINEAR"> F  </i>
    <v name="MAGMOM">      1.00000000      1.00000000</v>
    <i name="NUPDOWN">     -1.00000000</i>
    <i type="logical" name="LSORBIT"> F  </i>
    <v name="SAXIS">      0.00000000      0.00000000      1.00000000</v>
    <i type="logical" name="LSPIRAL"> F  </i>
    <v name="QSPIRAL">      0.00000000      0.00000000      0.00000000</v>
    <i type="logical" name="LZEROZ"> F  </i>
   </separator>
   <separator name="electronic exchange-correlation" >
    <i type="logical" name="LASPH"> T  </i>
    <i type="logical" name="LMETAGGA"> F  </i>
   </separator>
   <separator name="electronic convergence" >
    <i type="int" name="NELM">   200</i>
    <i type="int" name="NELMDL">   -12</i>
    <i type="int" name="NELMIN">     6</i>
    <i name="ENINI">    344.13800000</i>
    <separator name="electronic convergence detail" >
     <i type="logical" name="LDIAG"> T  </i>
     <i type="logical" name="LSUBROT"> F  </i>
     <i name="WEIMIN">      0.00100000</i>
     <i name="EBREAK">      0.00000002</i>
     <i name="DEPER">      0.30000000</i>
     <i type="int" name="NRMM">     4</i>
     <i name="TIME">      0.40000000</i>
    </separator>
   </separator>
   <separator name="electronic mixer" >
    <i name="AMIX">      0.10000000</i>
    <i name="BMIX">      0.00010000</i>
    <i name="AMIN">      0.10000000</i>
    <i name="AMIX_MAG">      0.40000000</i>
    <i name="BMIX_MAG">      0.00010000</i>
    <separator name="electronic mixer details" >
     <i type="int" name="IMIX">     4</i>
     <i type="logical" name="MIXFIRST"> F  </i>
     <i type="int" name="MAXMIX">   -45</i>
     <i name="WC">    100.00000000</i>
     <i type="int" name="INIMIX">     1</i>
     <i type="int" name="MIXPRE">     1</i>
     <i type="int" name="MREMOVE">     5</i>
    </separator>
   </separator>
   <separator name="electronic dipolcorrection" >
    <i type="logical" name="LDIPOL"> F  </i>
    <i type="logical" name="LMONO"> F  </i>
    <i type="int" name="IDIPOL">     0</i>
    <i name="EPSILON">      1.00000000</i>
    <v name="DIPOL">   -100.00000000   -100.00000000   -100.00000000</v>
    <i name="EFIELD">      0.00000000</i>
   </separator>
  </separator>
  <separator name="grids" >
   <i type="int" name="NGX">    28</i>
   <i type="int" name="NGY">    28</i>
   <i type="int" name="NGZ">    98</i>
   <i type="int" name="NGXF">    56</i>
   <i type="int" name="NGYF">    56</i>
   <i type="int" name="NGZF">   196</i>
   <i type="logical" name="ADDGRID"> T  </i>
  </separator>
  <separator name="ionic" >
   <i type="int" name="NSW">    30</i>
   <i type="int" name="IBRION">     2</i>
   <i type="int" name="MDALGO">     0</i>
   <i type="int" name="ISIF">     3</i>
   <i name="PSTRESS">      0.00000000</i>
   <i name="EDIFFG">     -0.01000000</i>
   <i type="int" name="NFREE">     1</i>
   <i name="POTIM">      0.50000000</i>
   <i name="SMASS">     -3.00000000</i>
   <i name="SCALEE">      1.00000000</i>
  </separator>
  <separator name="ionic md" >
   <i name="TEBEG">      0.00010000</i>
   <i name="TEEND">      0.00010000</i>
   <i type="int" name="NBLOCK">     1</i>
   <i type="int" name="KBLOCK">    30</i>
   <i type="int" name="NPACO">   256</i>
   <i name="APACO">     10.00000000</i>
  </separator>
  <separator name="symmetry" >
   <i type="int" name="ISYM">     2</i>
   <i name="SYMPREC">      0.00001000</i>
  </separator>
  <separator name="dos" >
   <i type="int" name="LORBIT">    10</i>
   <v name="RWIGS">     -1.00000000</v>
   <i type="int" name="NEDOS">  6001</i>
   <i name="EMIN">     10.00000000</i>
   <i name="EMAX">    -10.00000000</i>
   <i name="EFERMI">      0.00000000</i>
  </separator>
  <separator name="writing" >
   <i type="int" name="NWRITE">     1</i>
   <i type="logical" name="LWAVE"> F  </i>
   <i type="logical" name="LDOWNSAMPLE"> F  </i>
   <i type="logical" name="LCHARG"> F  </i>
   <i type="logical" name="LPARD"> F  </i>
   <i type="logical" name="LVTOT"> F  </i>
   <i type="logical" name="LVHAR"> F  </i>
   <i type="logical" name="LELF"> F  </i>
   <i type="logical" name="LOPTICS"> F  </i>
   <v name="STM">      0.00000000      0.00000000      0.00000000      0.00000000      0.00000000      0.00000000      0.00000000</v>
  </separator>
  <separator name="performance" >
   <i type="int" name="NPAR">     4</i>
   <i type="int" name="NSIM">     4</i>
   <i type="int" name="NBLK">    -1</i>
   <i type="logical" name="LPLANE"> T  </i>
   <i type="logical" name="LSCALAPACK"> T  </i>
   <i type="logical" name="LSCAAWARE"> F  </i>
   <i type="logical" name="LSCALU"> F  </i>
   <i type="logical" name="LASYNC"> F  </i>
   <i type="logical" name="LORBITALREAL"> F  </i>
  </separator>
  <separator name="miscellaneous" >
   <i type="int" name="IDIOT">     3</i>
   <i type="int" name="PHON_NSTRUCT">    -1</i>
   <i type="logical" name="LMUSIC"> F  </i>
   <v name="POMASS">    121.75000000</v>
   <v name="DARWINR">      0.00000000</v>
   <v name="DARWINV">      1.00000000</v>
   <i type="logical" name="LCORR"> T  </i>
  </separator>
  <i type="logical" name="GGA_COMPAT"> T  </i>
  <i type="logical" name="LBERRY"> F  </i>
  <i type="int" name="ICORELEVEL">     0</i>
  <i type="logical" name="LDAU"> F  </i>
  <i type="int" name="I_CONSTRAINED_M">     0</i>
  <separator name="electronic exchange-correlation" >
   <i type="string" name="GGA">--</i>
   <i type="int" name="VOSKOWN">     0</i>
   <i type="logical" name="LHFCALC"> F  </i>
   <i type="string" name="PRECFOCK"></i>
   <i type="logical" name="LSYMGRAD"> F  </i>
   <i type="logical" name="LHFONE"> F  </i>
   <i type="logical" name="LRHFCALC"> F  </i>
   <i type="logical" name="LTHOMAS"> F  </i>
   <i type="logical" name="LMODELHF"> F  </i>
   <i type="logical" name="LFOCKACE"> F  </i>
   <i name="ENCUT4O">     -1.00000000</i>
   <i type="int" name="EXXOEP">     0</i>
   <i type="int" name="FOURORBIT">     0</i>
   <i name="AEXX">      0.00000000</i>
   <i name="HFALPHA">      0.00000000</i>
   <i name="MCALPHA">      0.00000000</i>
   <i name="ALDAX">      1.00000000</i>
   <i name="AGGAX">      1.00000000</i>
   <i name="ALDAC">      1.00000000</i>
   <i name="AGGAC">      1.00000000</i>
   <i type="int" name="NKREDX">     1</i>
   <i type="int" name="NKREDY">     1</i>
   <i type="int" name="NKREDZ">     1</i>
   <i type="logical" name="SHIFTRED"> F  </i>
   <i type="logical" name="ODDONLY"> F  </i>
   <i type="logical" name="EVENONLY"> F  </i>
   <i type="int" name="LMAXFOCK">     0</i>
   <i type="int" name="NMAXFOCKAE">     0</i>
   <i type="logical" name="LFOCKAEDFT"> F  </i>
   <i name="HFSCREEN">      0.00000000</i>
   <i name="HFSCREENC">      0.00000000</i>
   <i type="int" name="NBANDSGWLOW">     0</i>
  </separator>
  <separator name="vdW DFT" >
   <i type="logical" name="LUSE_VDW"> F  </i>
   <i type="int" name="IVDW_NL">     1</i>
   <i type="logical" name="LSPIN_VDW"> F  </i>
   <i name="Zab_VDW">     -0.84910000</i>
   <i name="PARAM1">      0.12340000</i>
   <i name="PARAM2">      1.00000000</i>
   <i name="PARAM3">      0.00000000</i>
  </separator>
  <separator name="model GW" >
   <i type="int" name="MODEL_GW">     0</i>
   <i name="MODEL_EPS0">     70.33422284</i>
   <i name="MODEL_ALPHA">      1.00000000</i>
  </separator>
  <separator name="linear response parameters" >
   <i type="logical" name="LEPSILON"> F  </i>
   <i type="logical" name="LRPA"> F  </i>
   <i type="logical" name="LNABLA"> F  </i>
   <i type="logical" name="LVEL"> F  </i>
   <i name="CSHIFT">      0.10000000</i>
   <i name="OMEGAMAX">     -1.00000000</i>
   <i name="DEG_THRESHOLD">      0.00200000</i>
   <i name="RTIME">     -0.10000000</i>
   <i name="WPLASMAI">      0.00000000</i>
   <v name="DFIELD">      0.00000000      0.00000000      0.00000000</v>
   <v name="WPLASMA">      0.00000000      0.00000000      0.00000000      0.00000000      0.00000000      0.00000000      0.00000000      0.00000000      0.00000000</v>
  </separator>
  <separator name="orbital magnetization" >
   <i type="logical" name="NUCIND"> F  </i>
   <v name="MAGPOS">      0.00000000      0.00000000      0.00000000</v>
   <i type="logical" name="LNICSALL"> T  </i>
   <i type="logical" name="ORBITALMAG"> F  </i>
   <i type="logical" name="LMAGBLOCH"> F  </i>
   <i type="logical" name="LCHIMAG"> F  </i>
   <i type="logical" name="LGAUGE"> T  </i>
   <i type="int" name="MAGATOM">     0</i>
   <v name="MAGDIPOL">      0.00000000      0.00000000      0.00000000</v>
   <v name="AVECCONST">      0.00000000      0.00000000      0.00000000</v>
  </separator>
  <separator name="response functions" >
   <i type="logical" name="LALL_IN_ONE"> F  </i>
   <i type="int" name="IALL_IN_ONE">    -1</i>
   <i type="int" name="NBANDS_WAVE">    -1</i>
   <i type="logical" name="LFINITE_TEMPERATURE"> F  </i>
   <i type="logical" name="LADDER"> F  </i>
   <i type="logical" name="LRPAFORCE"> F  </i>
   <i type="logical" name="LFXC"> F  </i>
   <i type="logical" name="LHARTREE"> T  </i>
   <i type="int" name="IBSE">     0</i>
   <v type="int" name="KPOINT">    -1     0     0     0</v>
   <i type="logical" name="LTCTC"> F  </i>
   <i type="logical" name="LTCTE"> F  </i>
   <i type="logical" name="LTETE"> F  </i>
   <i type="logical" name="LTRIPLET"> F  </i>
   <i type="logical" name="LFXCEPS"> F  </i>
   <i type="logical" name="LFXHEG"> F  </i>
   <i type="int" name="NATURALO">     2</i>
   <i type="logical" name="LHOLEGF"> F  </i>
   <i type="logical" name="L2ORDER"> F  </i>
   <i type="logical" name="LDMP1"> F  </i>
   <i type="logical" name="LMP2LT"> F  </i>
   <i type="logical" name="LSMP2LT"> F  </i>
   <i type="logical" name="LGWLF"> F  </i>
   <i name="ENCUTGW">     -1.60000002</i>
   <i name="ENCUTGWSOFT">     -1.60000002</i>
   <i name="ENCUTLF">     -1.00000000</i>
   <i type="logical" name="LESF_SPLINES"> F  </i>
   <i type="int" name="LMAXMP2">    -1</i>
   <i name="SCISSOR">      0.00000000</i>
   <i type="int" name="NOMEGA">     0</i>
   <i type="int" name="NOMEGAR">     0</i>
   <i type="int" name="NBANDSGW">    -1</i>
   <i type="int" name="NBANDSO">    -1</i>
   <i type="int" name="NBANDSV">    -1</i>
   <i type="int" name="NELMGW">     1</i>
   <i type="int" name="NELMHF">     1</i>
   <i type="int" name="DIM">     3</i>
   <i type="int" name="IESPILON">     4</i>
   <i type="int" name="ANTIRES">     0</i>
   <i name="OMEGAMAX">    -30.00000000</i>
   <i name="OMEGAMIN">    -30.00000000</i>
   <i name="OMEGATL">   -200.00000000</i>
   <i type="int" name="OMEGAGRID">     0</i>
   <i name="CSHIFT">     -0.10000000</i>
   <i type="logical" name="LSELFENERGY"> F  </i>
   <i type="logical" name="LSPECTRAL"> F  </i>
   <i type="logical" name="LSPECTRALGW"> F  </i>
   <i type="logical" name="LSINGLES"> F  </i>
   <i type="logical" name="LFERMIGW"> F  </i>
   <i type="logical" name="ODDONLYGW"> F  </i>
   <i type="logical" name="EVENONLYGW"> F  </i>
   <i type="int" name="NKREDLFX">     1</i>
   <i type="int" name="NKREDLFY">     1</i>
   <i type="int" name="NKREDLFZ">     1</i>
   <i type="int" name="MAXMEM">  2800</i>
   <i type="int" name="TELESCOPE">     0</i>
   <i type="int" name="NTAUPAR">    -1</i>
   <i type="int" name="NOMEGAPAR">    -1</i>
   <i name="DAMP_NEWTON">      0.80000001</i>
   <i name="LAMBDA">      1.00000000</i>
  </separator>
  <separator name="External order field" >
   <i name="OFIELD_KAPPA">      0.00000000</i>
   <v name="OFIELD_K">      0.00000000      0.00000000      0.00000000</v>
   <i name="OFIELD_Q6_NEAR">      0.00000000</i>
   <i name="OFIELD_Q6_FAR">      0.00000000</i>
   <i name="OFIELD_A">      0.00000000</i>
  </separator>
  <separator name="optional k-points parameters" >
   <i type="int" name="KPOINTS_OPT_MODE">     1</i>
   <i type="logical" name="LKPOINTS_OPT"> F  </i>
  </separator>
 </parameters>
 <atominfo>
  <atoms>       2 </atoms>
  <types>       1 </types>
  <array name="atoms" >
   <dimension dim="1">ion</dimension>
   <field type="string">element</field>
   <field type="int">atomtype</field>
   <set>
    <rc><c>Sb</c><c>   1</c></rc>
    <rc><c>Sb</c><c>   1</c></rc>
   </set>
  </array>
  <array name="atomtypes" >
   <dimension dim="1">type</dimension>
   <field type="int">atomspertype</field>
   <field type="string">element</field>
   <field>mass</field>
   <field>valence</field>
   <field type="string">pseudopotential</field>
   <set>
    <rc><c>   2</c><c>Sb</c><c>    121.75000000</c><c>      5.00000000</c><c>  PAW_PBE Sb_GW 21Mar2012               </c></rc>
   </set>
  </array>
 </atominfo>
 <structure name="initialpos" >
  <crystal>
   <varray name="basis" >
    <v>       4.11336655       0.00000000       0.00000000 </v>
    <v>      -2.05668327       3.56227993       0.00000000 </v>
    <v>       0.00000000       0.00000000      16.00000000 </v>
   </varray>
   <i name="volume">    234.44740948 </i>
   <varray name="rec_basis" >
    <v>       0.24310987       0.14035955       0.00000000 </v>
    <v>       0.00000000       0.28071910       0.00000000 </v>
    <v>       0.00000000       0.00000000       0.06250000 </v>
   </varray>
  </crystal>
  <varray name="positions" >
   <v>       0.66666667       0.33333333       0.44862540 </v>
   <v>       0.33333333       0.66666667       0.55137460 </v>
  </varray>
 </structure>
 <calculation>
  <scstep>
   <time name="dav">    0.34    0.34</time>
   <time name="total">    0.65    0.70</time>
   <energy>
    <i name="alphaZ">      2.97593478 </i>
    <i name="ewald">    213.91894841 </i>
    <i name="hartreedc">   -467.82089709 </i>
    <i name="XCdc">    -92.70009870 </i>
    <i name="pawpsdc">    327.35893868 </i>
    <i name="pawaedc">   -219.44694627 </i>
    <i name="eentropy">     -0.00026751 </i>
    <i name="bandstr">    -17.85968621 </i>
    <i name="atom">    299.90038058 </i>
    <i name="e_fr_energy">     46.32630667 </i>
    <i name="e_wo_entrp">     46.32657418 </i>
    <i name="e_0_energy">     46.32644042 </i>
   </energy>
  </scstep>
  <scstep>
   <time name="dav">    0.46    0.46</time>
   <time name="total">    0.46    0.46</time>
   <energy>
    <i name="e_fr_energy">     -4.50914506 </i>
    <i name="e_wo_entrp">     -4.50914506 </i>
    <i name="e_0_energy">     -4.50914506 </i>
   </energy>
  </scstep>
  <scstep>
   <time name="dav">    0.40    0.40</time>
   <time name="total">    0.40    0.40</time>
   <energy>
    <i name="e_fr_energy">     -8.10734167 </i>
    <i name="e_wo_entrp">     -8.10734167 </i>
    <i name="e_0_energy">     -8.10734167 </i>
   </energy>
  </scstep>
  <scstep>
   <time name="dav">    0.43    0.43</time>
   <time name="total">    0.43    0.43</time>
   <energy>
    <i name="e_fr_energy">     -8.17306767 </i>
    <i name="e_wo_entrp">     -8.17306767 </i>
    <i name="e_0_energy">     -8.17306767 </i>
   </energy>
  </scstep>
  <scstep>
   <time name="dav">    0.40    0.41</time>
   <time name="total">    0.41    0.41</time>
   <energy>
    <i name="e_fr_energy">     -8.17397596 </i>
    <i name="e_wo_entrp">     -8.17397596 </i>
    <i name="e_0_energy">     -8.17397596 </i>
   </energy>
  </scstep>
  <scstep>
   <time name="dav">    0.44    0.44</time>
   <time name="total">    0.44    0.44</time>
   <energy>
    <i name="e_fr_energy">     -8.17399271 </i>
    <i name="e_wo_entrp">     -8.17399271 </i>
    <i name="e_0_energy">     -8.17399271 </i>
   </energy>
  </scstep>
  <scstep>
   <time name="dav">    0.40    0.40</time>
   <time name="total">    0.40    0.40</time>
   <energy>
    <i name="e_fr_energy">     -8.17399292 </i>
    <i name="e_wo_entrp">     -8.17399292 </i>
    <i name="e_0_energy">     -8.17399292 </i>
   </energy>
  </scstep>
  <scstep>
   <time name="dav">    0.37    0.37</time>
   <time name="total">    0.37    0.37</time>
   <energy>
    <i name="e_fr_energy">     -8.17399292 </i>
    <i name="e_wo_entrp">     -8.17399292 </i>
    <i name="e_0_energy">     -8.17399292 </i>
   </energy>
  </scstep>
  <scstep>
   <time name="dav">    0.31    0.31</time>
   <time name="total">    0.31    0.31</time>
   <energy>
    <i name="e_fr_energy">     -8.17399292 </i>
    <i name="e_wo_entrp">     -8.17399292 </i>
    <i name="e_0_energy">     -8.17399292 </i>
   </energy>
  </scstep>
  <scstep>
   <time name="dav">    0.29    0.29</time>
   <time name="total">    0.29    0.29</time>
   <energy>
    <i name="e_fr_energy">     -8.17399292 </i>
    <i name="e_wo_entrp">     -8.17399292 </i>
    <i name="e_0_energy">     -8.17399292 </i>
   </energy>
  </scstep>
  <scstep>
   <time name="dav">    0.27    0.27</time>
   <time name="total">    0.27    0.27</time>
   <energy>
    <i name="e_fr_energy">     -8.17399292 </i>
    <i name="e_wo_entrp">     -8.17399292 </i>
    <i name="e_0_energy">     -8.17399292 </i>
   </energy>
  </scstep>
  <scstep>
   <time name="dav">    0.28    0.28</time>
   <time name="total">    0.34    0.34</time>
   <energy>
    <i name="e_fr_energy">     -8.17399292 </i>
    <i name="e_wo_entrp">     -8.17399292 </i>
    <i name="e_0_energy">     -8.17399292 </i>
   </energy>
  </scstep>
  <scstep>
   <time name="dav">    0.38    0.38</time>
   <time name="total">    0.76    0.81</time>
   <energy>
    <i name="e_fr_energy">     -8.16002258 </i>
    <i name="e_wo_entrp">     -8.16002258 </i>
    <i name="e_0_energy">     -8.16002258 </i>
   </energy>
  </scstep>
  <scstep>
   <time name="dav">    0.39    0.39</time>
   <time name="total">    0.76    0.76</time>
   <energy>
    <i name="e_fr_energy">     -8.12806261 </i>
    <i name="e_wo_entrp">     -8.12806261 </i>
    <i name="e_0_energy">     -8.12806261 </i>
   </energy>
  </scstep>
  <scstep>
   <time name="dav">    0.34    0.34</time>
   <time name="total">    0.72    0.72</time>
   <energy>
    <i name="e_fr_energy">     -8.12469497 </i>
    <i name="e_wo_entrp">     -8.12469497 </i>
    <i name="e_0_energy">     -8.12469497 </i>
   </energy>
  </scstep>
  <scstep>
   <time name="dav">    0.39    0.39</time>
   <time name="total">    0.76    0.76</time>
   <energy>
    <i name="e_fr_energy">     -8.12446725 </i>
    <i name="e_wo_entrp">     -8.12446725 </i>
    <i name="e_0_energy">     -8.12446725 </i>
   </energy>
  </scstep>
  <scstep>
   <time name="dav">    0.35    0.35</time>
   <time name="total">    0.73    0.73</time>
   <energy>
    <i name="e_fr_energy">     -8.12435656 </i>
    <i name="e_wo_entrp">     -8.12435656 </i>
    <i name="e_0_energy">     -8.12435656 </i>
   </energy>
  </scstep>
  <scstep>
   <time name="dav">    0.35    0.35</time>
   <time name="total">    0.72    0.72</time>
   <energy>
    <i name="e_fr_energy">     -8.12433877 </i>
    <i name="e_wo_entrp">     -8.12433877 </i>
    <i name="e_0_energy">     -8.12433877 </i>
   </energy>
  </scstep>
  <scstep>
   <time name="dav">    0.37    0.37</time>
   <time name="total">    0.74    0.75</time>
   <energy>
    <i name="e_fr_energy">     -8.12433729 </i>
    <i name="e_wo_entrp">     -8.12433729 </i>
    <i name="e_0_energy">     -8.12433729 </i>
   </energy>
  </scstep>
  <scstep>
   <time name="dav">    0.37    0.37</time>
   <time name="total">    0.68    0.68</time>
   <energy>
    <i name="alphaZ">      2.97593478 </i>
    <i name="ewald">    213.91894841 </i>
    <i name="hartreedc">   -472.86392363 </i>
    <i name="XCdc">    -92.28792144 </i>
    <i name="pawpsdc">    363.39625755 </i>
    <i name="pawaedc">   -255.62337708 </i>
    <i name="eentropy">     -0.00000000 </i>
    <i name="bandstr">    -67.54063550 </i>
    <i name="atom">    299.90038058 </i>
    <i name="e_fr_energy">     -8.12433634 </i>
    <i name="e_wo_entrp">     -8.12433634 </i>
    <i name="e_0_energy">     -8.12433634 </i>
   </energy>
  </scstep>
  <structure>
   <crystal>
    <varray name="basis" >
     <v>       4.11336655       0.00000000       0.00000000 </v>
     <v>      -2.05668327       3.56227993       0.00000000 </v>
     <v>       0.00000000       0.00000000      16.00000000 </v>
    </varray>
    <i name="volume">    234.44740948 </i>
    <varray name="rec_basis" >
     <v>       0.24310987       0.14035955       0.00000000 </v>
     <v>       0.00000000       0.28071910       0.00000000 </v>
     <v>       0.00000000       0.00000000       0.06250000 </v>
    </varray>
   </crystal>
   <varray name="positions" >
    <v>       0.66666667       0.33333333       0.44862540 </v>
    <v>       0.33333333       0.66666667       0.55137460 </v>
   </varray>
  </structure>
  <varray name="forces" >
   <v>       0.00000000       0.00000000       0.00240562 </v>
   <v>      -0.00000000      -0.00000000      -0.00240562 </v>
  </varray>
  <varray name="stress" >
   <v>       0.09608826       0.00000000       0.00000000 </v>
   <v>       0.00000000       0.09608826      -0.00000000 </v>
   <v>       0.00000000       0.00000000      -0.07036530 </v>
  </varray>
  <energy>
   <i name="e_fr_energy">     -8.12433634 </i>
   <i name="e_wo_entrp">     -8.12433634 </i>
   <i name="e_0_energy">     -8.12433634 </i>
  </energy>
  <time name="totalsc">   12.25   12.83</time>
  <eigenvalues>
   <array>
    <dimension dim="1">band</dimension>
    <dimension dim="2">kpoint</dimension>
    <dimension dim="3">spin</dimension>
    <field>eigene</field>
    <field>occ</field>
    <set>
     <set comment="spin 1">
      <set comment="kpoint 1">
       <r>  -13.5663    1.0000 </r>
       <r>   -8.5939    1.0000 </r>
       <r>   -2.8926    1.0000 </r>
       <r>   -2.2856    1.0000 </r>
       <r>   -2.2856    1.0000 </r>
       <r>   -0.7183    0.0000 </r>
       <r>    0.5053    0.0000 </r>
       <r>    0.5053    0.0000 </r>
       <r>    2.0888    0.0000 </r>
       <r>    2.1697    0.0000 </r>
       <r>    3.6333    0.0000 </r>
       <r>    4.5286    0.0000 </r>
      </set>
      <set comment="kpoint 2">
       <r>  -13.4785    1.0000 </r>
       <r>   -8.5912    1.0000 </r>
       <r>   -3.1109    1.0000 </r>
       <r>   -2.8547    1.0000 </r>
       <r>   -2.4846    1.0000 </r>
       <r>   -0.1976    0.0000 </r>
       <r>    0.4336    0.0000 </r>
       <r>    0.6961    0.0000 </r>
       <r>    2.2076    0.0000 </r>
       <r>    2.2716    0.0000 </r>
       <r>    3.7135    0.0000 </r>
       <r>    4.6249    0.0000 </r>
      </set>
      <set comment="kpoint 3">
       <r>  -13.2187    1.0000 </r>
       <r>   -8.6319    1.0000 </r>
       <r>   -4.2564    1.0000 </r>
       <r>   -2.9080    1.0000 </r>
       <r>   -2.7893    1.0000 </r>
       <r>   -0.6052    0.0000 </r>
       <r>    1.0391    0.0000 </r>
       <r>    1.0836    0.0000 </r>
       <r>    2.4418    0.0000 </r>
       <r>    2.5956    0.0000 </r>
       <r>    3.7705    0.0000 </r>
       <r>    4.5171    0.0000 </r>
      </set>
      <set comment="kpoint 4">
       <r>  -12.8001    1.0000 </r>
       <r>   -8.8618    1.0000 </r>
       <r>   -5.0581    1.0000 </r>
       <r>   -3.3321    1.0000 </r>
       <r>   -2.8784    1.0000 </r>
       <r>   -0.9984    0.0000 </r>
       <r>    1.0870    0.0000 </r>
       <r>    1.2435    0.0000 </r>
       <r>    2.7640    0.0000 </r>
       <r>    2.9996    0.0000 </r>
       <r>    3.8930    0.0000 </r>
       <r>    4.8856    0.0000 </r>
      </set>
      <set comment="kpoint 5">
       <r>  -12.2614    1.0000 </r>
       <r>   -9.3813    1.0000 </r>
       <r>   -5.3293    1.0000 </r>
       <r>   -3.6500    1.0000 </r>
       <r>   -3.2677    1.0000 </r>
       <r>   -0.9602    0.0000 </r>
       <r>    0.6129    0.0000 </r>
       <r>    1.2833    0.0000 </r>
       <r>    3.0967    0.0000 </r>
       <r>    3.4017    0.0000 </r>
       <r>    4.0267    0.0000 </r>
       <r>    5.2032    0.0000 </r>
      </set>
      <set comment="kpoint 6">
       <r>  -11.7481    1.0000 </r>
       <r>   -9.9562    1.0000 </r>
       <r>   -5.2579    1.0000 </r>
       <r>   -3.8173    1.0000 </r>
       <r>   -3.6791    1.0000 </r>
       <r>   -0.7176    0.0000 </r>
       <r>    0.2183    0.0000 </r>
       <r>    1.2670    0.0000 </r>
       <r>    2.8470    0.0000 </r>
       <r>    4.2102    0.0000 </r>
       <r>    4.6158    0.0000 </r>
       <r>    5.1133    0.0000 </r>
      </set>
      <set comment="kpoint 7">
       <r>  -13.3046    1.0000 </r>
       <r>   -8.6093    1.0000 </r>
       <r>   -3.9125    1.0000 </r>
       <r>   -2.9472    1.0000 </r>
       <r>   -2.7857    1.0000 </r>
       <r>    0.0418    0.0000 </r>
       <r>    0.2502    0.0000 </r>
       <r>    1.2149    0.0000 </r>
       <r>    2.4291    0.0000 </r>
       <r>    2.4478    0.0000 </r>
       <r>    3.7170    0.0000 </r>
       <r>    4.5716    0.0000 </r>
      </set>
      <set comment="kpoint 8">
       <r>  -12.9644    1.0000 </r>
       <r>   -8.7414    1.0000 </r>
       <r>   -4.7308    1.0000 </r>
       <r>   -3.5414    1.0000 </r>
       <r>   -2.7680    1.0000 </r>
       <r>   -0.4141    0.0000 </r>
       <r>    0.7228    0.0000 </r>
       <r>    1.4033    0.0000 </r>
       <r>    2.6685    0.0000 </r>
       <r>    2.8322    0.0000 </r>
       <r>    3.6972    0.0000 </r>
       <r>    4.6907    0.0000 </r>
      </set>
      <set comment="kpoint 9">
       <r>  -12.4795    1.0000 </r>
       <r>   -9.1284    1.0000 </r>
       <r>   -5.1997    1.0000 </r>
       <r>   -3.9809    1.0000 </r>
       <r>   -2.9727    1.0000 </r>
       <r>   -0.6299    0.0000 </r>
       <r>    0.9117    0.0000 </r>
       <r>    1.0518    0.0000 </r>
       <r>    3.1016    0.0000 </r>
       <r>    3.2652    0.0000 </r>
       <r>    3.9200    0.0000 </r>
       <r>    5.1593    0.0000 </r>
      </set>
      <set comment="kpoint 10">
       <r>  -11.9190    1.0000 </r>
       <r>   -9.7254    1.0000 </r>
       <r>   -5.2841    1.0000 </r>
       <r>   -4.1674    1.0000 </r>
       <r>   -3.4216    1.0000 </r>
       <r>   -0.4587    0.0000 </r>
       <r>    0.4457    0.0000 </r>
       <r>    1.0554    0.0000 </r>
       <r>    3.0976    0.0000 </r>
       <r>    3.8837    0.0000 </r>
       <r>    4.3783    0.0000 </r>
       <r>    5.3963    0.0000 </r>
      </set>
      <set comment="kpoint 11">
       <r>  -11.5810    1.0000 </r>
       <r>  -10.0994    1.0000 </r>
       <r>   -5.2558    1.0000 </r>
       <r>   -4.1222    1.0000 </r>
       <r>   -3.7428    1.0000 </r>
       <r>   -0.1572    0.0000 </r>
       <r>    0.0506    0.0000 </r>
       <r>    1.0836    0.0000 </r>
       <r>    2.9112    0.0000 </r>
       <r>    4.7582    0.0000 </r>
       <r>    4.7735    0.0000 </r>
       <r>    5.0700    0.0000 </r>
      </set>
      <set comment="kpoint 12">
       <r>  -12.5541    1.0000 </r>
       <r>   -9.0344    1.0000 </r>
       <r>   -4.9842    1.0000 </r>
       <r>   -4.3757    1.0000 </r>
       <r>   -2.8642    1.0000 </r>
       <r>   -0.0622    0.0000 </r>
       <r>    0.3730    0.0000 </r>
       <r>    1.4661    0.0000 </r>
       <r>    3.0982    0.0000 </r>
       <r>    3.1567    0.0000 </r>
       <r>    3.7502    0.0000 </r>
       <r>    4.9605    0.0000 </r>
      </set>
      <set comment="kpoint 13">
       <r>  -12.0215    1.0000 </r>
       <r>   -9.5465    1.0000 </r>
       <r>   -5.1534    1.0000 </r>
       <r>   -4.7438    1.0000 </r>
       <r>   -3.1900    1.0000 </r>
       <r>   -0.1319    0.0000 </r>
       <r>    0.3493    0.0000 </r>
       <r>    1.3870    0.0000 </r>
       <r>    3.4841    0.0000 </r>
       <r>    3.7576    0.0000 </r>
       <r>    4.2316    0.0000 </r>
       <r>    4.8366    0.0000 </r>
      </set>
      <set comment="kpoint 14">
       <r>  -11.4902    1.0000 </r>
       <r>  -10.1051    1.0000 </r>
       <r>   -5.4143    1.0000 </r>
       <r>   -4.4845    1.0000 </r>
       <r>   -3.6460    1.0000 </r>
       <r>   -0.3006    0.0000 </r>
       <r>    0.6606    0.0000 </r>
       <r>    1.0983    0.0000 </r>
       <r>    3.3724    0.0000 </r>
       <r>    4.5499    0.0000 </r>
       <r>    4.8462    0.0000 </r>
       <r>    5.2085    0.0000 </r>
      </set>
      <set comment="kpoint 15">
       <r>  -11.4693    1.0000 </r>
       <r>  -10.0767    1.0000 </r>
       <r>   -5.5356    1.0000 </r>
       <r>   -4.6049    1.0000 </r>
       <r>   -3.5541    1.0000 </r>
       <r>   -0.5019    0.0000 </r>
       <r>    0.7068    0.0000 </r>
       <r>    1.5533    0.0000 </r>
       <r>    4.2029    0.0000 </r>
       <r>    4.3766    0.0000 </r>
       <r>    4.5525    0.0000 </r>
       <r>    4.7279    0.0000 </r>
      </set>
      <set comment="kpoint 16">
       <r>  -11.0486    1.0000 </r>
       <r>  -10.4909    1.0000 </r>
       <r>   -5.7366    1.0000 </r>
       <r>   -4.2772    1.0000 </r>
       <r>   -3.8874    1.0000 </r>
       <r>   -0.7061    0.0000 </r>
       <r>    1.1292    0.0000 </r>
       <r>    1.3245    0.0000 </r>
       <r>    4.2799    0.0000 </r>
       <r>    4.4588    0.0000 </r>
       <r>    5.2847    0.0000 </r>
       <r>    5.3846    0.0000 </r>
      </set>
      <set comment="kpoint 17">
       <r>  -13.5663    1.0000 </r>
       <r>   -8.5939    1.0000 </r>
       <r>   -2.8926    1.0000 </r>
       <r>   -2.2856    1.0000 </r>
       <r>   -2.2856    1.0000 </r>
       <r>   -0.7185    0.0000 </r>
       <r>    0.5053    0.0000 </r>
       <r>    0.5053    0.0000 </r>
       <r>    1.9597    0.0000 </r>
       <r>    2.3891    0.0000 </r>
       <r>    3.3750    0.0000 </r>
       <r>    4.6142    0.0000 </r>
      </set>
      <set comment="kpoint 18">
       <r>  -13.4785    1.0000 </r>
       <r>   -8.5912    1.0000 </r>
       <r>   -3.1109    1.0000 </r>
       <r>   -2.8547    1.0000 </r>
       <r>   -2.4846    1.0000 </r>
       <r>   -0.1977    0.0000 </r>
       <r>    0.4332    0.0000 </r>
       <r>    0.6961    0.0000 </r>
       <r>    2.0806    0.0000 </r>
       <r>    2.4827    0.0000 </r>
       <r>    3.4807    0.0000 </r>
       <r>    4.7087    0.0000 </r>
      </set>
      <set comment="kpoint 19">
       <r>  -13.4785    1.0000 </r>
       <r>   -8.5912    1.0000 </r>
       <r>   -3.1109    1.0000 </r>
       <r>   -2.8547    1.0000 </r>
       <r>   -2.4846    1.0000 </r>
       <r>   -0.1978    0.0000 </r>
       <r>    0.4336    0.0000 </r>
       <r>    0.6962    0.0000 </r>
       <r>    2.0733    0.0000 </r>
       <r>    2.4963    0.0000 </r>
       <r>    3.4647    0.0000 </r>
       <r>    4.7402    0.0000 </r>
      </set>
      <set comment="kpoint 20">
       <r>  -13.2187    1.0000 </r>
       <r>   -8.6319    1.0000 </r>
       <r>   -4.2564    1.0000 </r>
       <r>   -2.9080    1.0000 </r>
       <r>   -2.7893    1.0000 </r>
       <r>   -0.6052    0.0000 </r>
       <r>    1.0391    0.0000 </r>
       <r>    1.0816    0.0000 </r>
       <r>    2.3756    0.0000 </r>
       <r>    2.7157    0.0000 </r>
       <r>    3.7819    0.0000 </r>
       <r>    4.1747    0.0000 </r>
      </set>
      <set comment="kpoint 21">
       <r>  -13.2187    1.0000 </r>
       <r>   -8.6319    1.0000 </r>
       <r>   -4.2564    1.0000 </r>
       <r>   -2.9080    1.0000 </r>
       <r>   -2.7893    1.0000 </r>
       <r>   -0.6052    0.0000 </r>
       <r>    1.0391    0.0000 </r>
       <r>    1.0833    0.0000 </r>
       <r>    2.3316    0.0000 </r>
       <r>    2.8071    0.0000 </r>
       <r>    3.6046    0.0000 </r>
       <r>    4.3717    0.0000 </r>
      </set>
      <set comment="kpoint 22">
       <r>  -12.8001    1.0000 </r>
       <r>   -8.8618    1.0000 </r>
       <r>   -5.0581    1.0000 </r>
       <r>   -3.3321    1.0000 </r>
       <r>   -2.8784    1.0000 </r>
       <r>   -0.9984    0.0000 </r>
       <r>    1.0868    0.0000 </r>
       <r>    1.2435    0.0000 </r>
       <r>    2.6994    0.0000 </r>
       <r>    3.0933    0.0000 </r>
       <r>    4.1154    0.0000 </r>
       <r>    4.2870    0.0000 </r>
      </set>
      <set comment="kpoint 23">
       <r>  -12.8001    1.0000 </r>
       <r>   -8.8618    1.0000 </r>
       <r>   -5.0581    1.0000 </r>
       <r>   -3.3321    1.0000 </r>
       <r>   -2.8784    1.0000 </r>
       <r>   -0.9984    0.0000 </r>
       <r>    1.0874    0.0000 </r>
       <r>    1.2435    0.0000 </r>
       <r>    2.6745    0.0000 </r>
       <r>    3.1647    0.0000 </r>
       <r>    3.8617    0.0000 </r>
       <r>    4.6125    0.0000 </r>
      </set>
      <set comment="kpoint 24">
       <r>  -12.2614    1.0000 </r>
       <r>   -9.3813    1.0000 </r>
       <r>   -5.3293    1.0000 </r>
       <r>   -3.6500    1.0000 </r>
       <r>   -3.2677    1.0000 </r>
       <r>   -0.9602    0.0000 </r>
       <r>    0.6129    0.0000 </r>
       <r>    1.2833    0.0000 </r>
       <r>    3.1147    0.0000 </r>
       <r>    3.3184    0.0000 </r>
       <r>    4.3141    0.0000 </r>
       <r>    4.7841    0.0000 </r>
      </set>
      <set comment="kpoint 25">
       <r>  -12.2614    1.0000 </r>
       <r>   -9.3813    1.0000 </r>
       <r>   -5.3293    1.0000 </r>
       <r>   -3.6500    1.0000 </r>
       <r>   -3.2677    1.0000 </r>
       <r>   -0.9602    0.0000 </r>
       <r>    0.6130    0.0000 </r>
       <r>    1.2833    0.0000 </r>
       <r>    3.1089    0.0000 </r>
       <r>    3.3380    0.0000 </r>
       <r>    4.2033    0.0000 </r>
       <r>    5.0034    0.0000 </r>
      </set>
      <set comment="kpoint 26">
       <r>  -11.7481    1.0000 </r>
       <r>   -9.9562    1.0000 </r>
       <r>   -5.2579    1.0000 </r>
       <r>   -3.8173    1.0000 </r>
       <r>   -3.6791    1.0000 </r>
       <r>   -0.7176    0.0000 </r>
       <r>    0.2183    0.0000 </r>
       <r>    1.2670    0.0000 </r>
       <r>    2.8484    0.0000 </r>
       <r>    4.1385    0.0000 </r>
       <r>    4.7444    0.0000 </r>
       <r>    5.2149    0.0000 </r>
      </set>
      <set comment="kpoint 27">
       <r>  -11.7481    1.0000 </r>
       <r>   -9.9562    1.0000 </r>
       <r>   -5.2579    1.0000 </r>
       <r>   -3.8173    1.0000 </r>
       <r>   -3.6791    1.0000 </r>
       <r>   -0.7176    0.0000 </r>
       <r>    0.2183    0.0000 </r>
       <r>    1.2670    0.0000 </r>
       <r>    2.8487    0.0000 </r>
       <r>    4.1591    0.0000 </r>
       <r>    4.6620    0.0000 </r>
       <r>    5.1742    0.0000 </r>
      </set>
      <set comment="kpoint 28">
       <r>  -13.3046    1.0000 </r>
       <r>   -8.6093    1.0000 </r>
       <r>   -3.9125    1.0000 </r>
       <r>   -2.9472    1.0000 </r>
       <r>   -2.7857    1.0000 </r>
       <r>    0.0419    0.0000 </r>
       <r>    0.2499    0.0000 </r>
       <r>    1.2132    0.0000 </r>
       <r>    2.2961    0.0000 </r>
       <r>    2.6529    0.0000 </r>
       <r>    3.6271    0.0000 </r>
       <r>    4.2567    0.0000 </r>
      </set>
      <set comment="kpoint 29">
       <r>  -12.9644    1.0000 </r>
       <r>   -8.7414    1.0000 </r>
       <r>   -4.7308    1.0000 </r>
       <r>   -3.5414    1.0000 </r>
       <r>   -2.7680    1.0000 </r>
       <r>   -0.4140    0.0000 </r>
       <r>    0.7226    0.0000 </r>
       <r>    1.4021    0.0000 </r>
       <r>    2.6066    0.0000 </r>
       <r>    2.9169    0.0000 </r>
       <r>    3.9080    0.0000 </r>
       <r>    4.1240    0.0000 </r>
      </set>
      <set comment="kpoint 30">
       <r>  -12.9644    1.0000 </r>
       <r>   -8.7414    1.0000 </r>
       <r>   -4.7308    1.0000 </r>
       <r>   -3.5414    1.0000 </r>
       <r>   -2.7680    1.0000 </r>
       <r>   -0.4141    0.0000 </r>
       <r>    0.7229    0.0000 </r>
       <r>    1.4029    0.0000 </r>
       <r>    2.5688    0.0000 </r>
       <r>    3.0009    0.0000 </r>
       <r>    3.7083    0.0000 </r>
       <r>    4.3267    0.0000 </r>
      </set>
      <set comment="kpoint 31">
       <r>  -12.4795    1.0000 </r>
       <r>   -9.1284    1.0000 </r>
       <r>   -5.1997    1.0000 </r>
       <r>   -3.9809    1.0000 </r>
       <r>   -2.9727    1.0000 </r>
       <r>   -0.6298    0.0000 </r>
       <r>    0.9118    0.0000 </r>
       <r>    1.0517    0.0000 </r>
       <r>    3.0625    0.0000 </r>
       <r>    3.2698    0.0000 </r>
       <r>    4.1941    0.0000 </r>
       <r>    4.5819    0.0000 </r>
      </set>
      <set comment="kpoint 32">
       <r>  -12.4795    1.0000 </r>
       <r>   -9.1284    1.0000 </r>
       <r>   -5.1997    1.0000 </r>
       <r>   -3.9809    1.0000 </r>
       <r>   -2.9727    1.0000 </r>
       <r>   -0.6299    0.0000 </r>
       <r>    0.9118    0.0000 </r>
       <r>    1.0520    0.0000 </r>
       <r>    3.0304    0.0000 </r>
       <r>    3.3376    0.0000 </r>
       <r>    4.0379    0.0000 </r>
       <r>    4.7887    0.0000 </r>
      </set>
      <set comment="kpoint 33">
       <r>  -11.9190    1.0000 </r>
       <r>   -9.7254    1.0000 </r>
       <r>   -5.2841    1.0000 </r>
       <r>   -4.1674    1.0000 </r>
       <r>   -3.4216    1.0000 </r>
       <r>   -0.4587    0.0000 </r>
       <r>    0.4457    0.0000 </r>
       <r>    1.0555    0.0000 </r>
       <r>    3.1017    0.0000 </r>
       <r>    3.8019    0.0000 </r>
       <r>    4.6302    0.0000 </r>
       <r>    5.2247    0.0000 </r>
      </set>
      <set comment="kpoint 34">
       <r>  -11.9190    1.0000 </r>
       <r>   -9.7254    1.0000 </r>
       <r>   -5.2841    1.0000 </r>
       <r>   -4.1674    1.0000 </r>
       <r>   -3.4216    1.0000 </r>
       <r>   -0.4587    0.0000 </r>
       <r>    0.4457    0.0000 </r>
       <r>    1.0555    0.0000 </r>
       <r>    3.1017    0.0000 </r>
       <r>    3.8134    0.0000 </r>
       <r>    4.5509    0.0000 </r>
       <r>    5.3481    0.0000 </r>
      </set>
      <set comment="kpoint 35">
       <r>  -11.5810    1.0000 </r>
       <r>  -10.0994    1.0000 </r>
       <r>   -5.2558    1.0000 </r>
       <r>   -4.1222    1.0000 </r>
       <r>   -3.7428    1.0000 </r>
       <r>   -0.1572    0.0000 </r>
       <r>    0.0506    0.0000 </r>
       <r>    1.0837    0.0000 </r>
       <r>    2.9122    0.0000 </r>
       <r>    4.7004    0.0000 </r>
       <r>    4.7315    0.0000 </r>
       <r>    5.1104    0.0000 </r>
      </set>
      <set comment="kpoint 36">
       <r>  -12.5541    1.0000 </r>
       <r>   -9.0344    1.0000 </r>
       <r>   -4.9842    1.0000 </r>
       <r>   -4.3757    1.0000 </r>
       <r>   -2.8642    1.0000 </r>
       <r>   -0.0621    0.0000 </r>
       <r>    0.3730    0.0000 </r>
       <r>    1.4658    0.0000 </r>
       <r>    3.0456    0.0000 </r>
       <r>    3.1698    0.0000 </r>
       <r>    3.9593    0.0000 </r>
       <r>    4.5750    0.0000 </r>
      </set>
      <set comment="kpoint 37">
       <r>  -12.0215    1.0000 </r>
       <r>   -9.5465    1.0000 </r>
       <r>   -5.1534    1.0000 </r>
       <r>   -4.7438    1.0000 </r>
       <r>   -3.1900    1.0000 </r>
       <r>   -0.1319    0.0000 </r>
       <r>    0.3493    0.0000 </r>
       <r>    1.3869    0.0000 </r>
       <r>    3.5026    0.0000 </r>
       <r>    3.6639    0.0000 </r>
       <r>    4.4588    0.0000 </r>
       <r>    4.8381    0.0000 </r>
      </set>
      <set comment="kpoint 38">
       <r>  -12.0215    1.0000 </r>
       <r>   -9.5465    1.0000 </r>
       <r>   -5.1534    1.0000 </r>
       <r>   -4.7438    1.0000 </r>
       <r>   -3.1900    1.0000 </r>
       <r>   -0.1319    0.0000 </r>
       <r>    0.3493    0.0000 </r>
       <r>    1.3870    0.0000 </r>
       <r>    3.4903    0.0000 </r>
       <r>    3.6871    0.0000 </r>
       <r>    4.4164    0.0000 </r>
       <r>    4.8259    0.0000 </r>
      </set>
      <set comment="kpoint 39">
       <r>  -11.4902    1.0000 </r>
       <r>  -10.1051    1.0000 </r>
       <r>   -5.4143    1.0000 </r>
       <r>   -4.4845    1.0000 </r>
       <r>   -3.6460    1.0000 </r>
       <r>   -0.3006    0.0000 </r>
       <r>    0.6606    0.0000 </r>
       <r>    1.0983    0.0000 </r>
       <r>    3.3736    0.0000 </r>
       <r>    4.4739    0.0000 </r>
       <r>    4.9591    0.0000 </r>
       <r>    5.2569    0.0000 </r>
      </set>
      <set comment="kpoint 40">
       <r>  -11.4902    1.0000 </r>
       <r>  -10.1051    1.0000 </r>
       <r>   -5.4143    1.0000 </r>
       <r>   -4.4845    1.0000 </r>
       <r>   -3.6460    1.0000 </r>
       <r>   -0.3006    0.0000 </r>
       <r>    0.6606    0.0000 </r>
       <r>    1.0983    0.0000 </r>
       <r>    3.3741    0.0000 </r>
       <r>    4.4828    0.0000 </r>
       <r>    4.9080    0.0000 </r>
       <r>    5.2876    0.0000 </r>
      </set>
      <set comment="kpoint 41">
       <r>  -11.4693    1.0000 </r>
       <r>  -10.0767    1.0000 </r>
       <r>   -5.5356    1.0000 </r>
       <r>   -4.6048    1.0000 </r>
       <r>   -3.5541    1.0000 </r>
       <r>   -0.5019    0.0000 </r>
       <r>    0.7069    0.0000 </r>
       <r>    1.5533    0.0000 </r>
       <r>    4.2134    0.0000 </r>
       <r>    4.3302    0.0000 </r>
       <r>    4.5824    0.0000 </r>
       <r>    4.6914    0.0000 </r>
      </set>
      <set comment="kpoint 42">
       <r>  -11.0486    1.0000 </r>
       <r>  -10.4909    1.0000 </r>
       <r>   -5.7366    1.0000 </r>
       <r>   -4.2772    1.0000 </r>
       <r>   -3.8874    1.0000 </r>
       <r>   -0.7061    0.0000 </r>
       <r>    1.1292    0.0000 </r>
       <r>    1.3245    0.0000 </r>
       <r>    4.2816    0.0000 </r>
       <r>    4.4626    0.0000 </r>
       <r>    5.2673    0.0000 </r>
       <r>    5.3257    0.0000 </r>
      </set>
     </set>
    </set>
   </array>
  </eigenvalues>
  <separator name="orbital magnetization" >
   <v name="MAGDIPOLOUT">      0.00000000      0.00000000      0.00000000</v>
  </separator>
  <dos>
   <i name="efermi">     -2.24244033 </i>
   <total>
    <array>
     <dimension dim="1">gridpoints</dimension>
     <dimension dim="2">spin</dimension>
     <field>energy</field>
     <field>total</field>
     <field>integrated</field>
     <set>
      <set comment="spin 1">
       <r>   -14.5144     0.0000     0.0000 </r>
       <r>   -14.5110     0.0000     0.0000 </r>
       <r>   -14.5075     0.0000     0.0000 </r>
       <r>   -14.5040     0.0000     0.0000 </r>
       <r>   -14.5005     0.0000     0.0000 </r>
       <r>   -14.4971     0.0000     0.0000 </r>
       <r>   -14.4936     0.0000     0.0000 </r>
       <r>   -14.4901     0.0000     0.0000 </r>
       <r>   -14.4866     0.0000     0.0000 </r>
       <r>   -14.4832     0.0000     0.0000 </r>
       <r>   -14.4797     0.0000     0.0000 </r>
       <r>   -14.4762     0.0000     0.0000 </r>
       <r>   -14.4727     0.0000     0.0000 </r>
       <r>   -14.4692     0.0000     0.0000 </r>
       <r>   -14.4658     0.0000     0.0000 </r>
       <r>   -14.4623     0.0000     0.0000 </r>
       <r>   -14.4588     0.0000     0.0000 </r>
       <r>   -14.4553     0.0000     0.0000 </r>
       <r>   -14.4519     0.0000     0.0000 </r>
       <r>   -14.4484     0.0000     0.0000 </r>
       <r>   -14.4449     0.0000     0.0000 </r>
       <r>   -14.4414     0.0000     0.0000 </r>
       <r>   -14.4380     0.0000     0.0000 </r>
       <r>   -14.4345     0.0000     0.0000 </r>
       <r>   -14.4310     0.0000     0.0000 </r>
       <r>   -14.4275     0.0000     0.0000 </r>
       <r>   -14.4241     0.0000     0.0000 </r>
       <r>   -14.4206     0.0000     0.0000 </r>
       <r>   -14.4171     0.0000     0.0000 </r>
       <r>   -14.4136     0.0000     0.0000 </r>
       <r>   -14.4101     0.0000     0.0000 </r>
       <r>   -14.4067     0.0000     0.0000 </r>
       <r>   -14.4032     0.0000     0.0000 </r>
       <r>   -14.3997     0.0000     0.0000 </r>
       <r>   -14.3962     0.0000     0.0000 </r>
       <r>   -14.3928     0.0000     0.0000 </r>
       <r>   -14.3893     0.0000     0.0000 </r>
       <r>   -14.3858     0.0000     0.0000 </r>
       <r>   -14.3823     0.0000     0.0000 </r>
       <r>   -14.3789     0.0000     0.0000 </r>
       <r>   -14.3754     0.0000     0.0000 </r>
       <r>   -14.3719     0.0000     0.0000 </r>
       <r>   -14.3684     0.0000     0.0000 </r>
       <r>   -14.3650     0.0000     0.0000 </r>
       <r>   -14.3615     0.0000     0.0000 </r>
       <r>   -14.3580     0.0000     0.0000 </r>
       <r>   -14.3545     0.0000     0.0000 </r>
       <r>   -14.3510     0.0000     0.0000 </r>
       <r>   -14.3476     0.0000     0.0000 </r>
       <r>   -14.3441     0.0000     0.0000 </r>
       <r>   -14.3406     0.0000     0.0000 </r>
       <r>   -14.3371     0.0000     0.0000 </r>
       <r>   -14.3337     0.0000     0.0000 </r>
       <r>   -14.3302     0.0000     0.0000 </r>
       <r>   -14.3267     0.0000     0.0000 </r>
       <r>   -14.3232     0.0000     0.0000 </r>
       <r>   -14.3198     0.0000     0.0000 </r>
       <r>   -14.3163     0.0000     0.0000 </r>
       <r>   -14.3128     0.0000     0.0000 </r>
       <r>   -14.3093     0.0000     0.0000 </r>
       <r>   -14.3059     0.0000     0.0000 </r>
       <r>   -14.3024     0.0000     0.0000 </r>
       <r>   -14.2989     0.0000     0.0000 </r>
       <r>   -14.2954     0.0000     0.0000 </r>
       <r>   -14.2919     0.0000     0.0000 </r>
       <r>   -14.2885     0.0000     0.0000 </r>
       <r>   -14.2850     0.0000     0.0000 </r>
       <r>   -14.2815     0.0000     0.0000 </r>
       <r>   -14.2780     0.0000     0.0000 </r>
       <r>   -14.2746     0.0000     0.0000 </r>
       <r>   -14.2711     0.0000     0.0000 </r>
       <r>   -14.2676     0.0000     0.0000 </r>
       <r>   -14.2641     0.0000     0.0000 </r>
       <r>   -14.2607     0.0000     0.0000 </r>
       <r>   -14.2572     0.0000     0.0000 </r>
       <r>   -14.2537     0.0000     0.0000 </r>
       <r>   -14.2502     0.0000     0.0000 </r>
       <r>   -14.2467     0.0000     0.0000 </r>
       <r>   -14.2433     0.0000     0.0000 </r>
       <r>   -14.2398     0.0000     0.0000 </r>
       <r>   -14.2363     0.0000     0.0000 </r>
       <r>   -14.2328     0.0000     0.0000 </r>
       <r>   -14.2294     0.0000     0.0000 </r>
       <r>   -14.2259     0.0000     0.0000 </r>
       <r>   -14.2224     0.0000     0.0000 </r>
       <r>   -14.2189     0.0000     0.0000 </r>
       <r>   -14.2155     0.0000     0.0000 </r>
       <r>   -14.2120     0.0000     0.0000 </r>
       <r>   -14.2085     0.0000     0.0000 </r>
       <r>   -14.2050     0.0000     0.0000 </r>
       <r>   -14.2016     0.0000     0.0000 </r>
       <r>   -14.1981     0.0000     0.0000 </r>
       <r>   -14.1946     0.0000     0.0000 </r>
       <r>   -14.1911     0.0000     0.0000 </r>
       <r>   -14.1876     0.0000     0.0000 </r>
       <r>   -14.1842     0.0000     0.0000 </r>
       <r>   -14.1807     0.0000     0.0000 </r>
       <r>   -14.1772     0.0000     0.0000 </r>
       <r>   -14.1737     0.0000     0.0000 </r>
       <r>   -14.1703     0.0000     0.0000 </r>
       <r>   -14.1668     0.0000     0.0000 </r>
       <r>   -14.1633     0.0000     0.0000 </r>
       <r>   -14.1598     0.0000     0.0000 </r>
       <r>   -14.1564     0.0000     0.0000 </r>
       <r>   -14.1529     0.0000     0.0000 </r>
       <r>   -14.1494     0.0000     0.0000 </r>
       <r>   -14.1459     0.0000     0.0000 </r>
       <r>   -14.1425     0.0000     0.0000 </r>
       <r>   -14.1390     0.0000     0.0000 </r>
       <r>   -14.1355     0.0000     0.0000 </r>
       <r>   -14.1320     0.0000     0.0000 </r>
       <r>   -14.1285     0.0000     0.0000 </r>
       <r>   -14.1251     0.0000     0.0000 </r>
       <r>   -14.1216     0.0000     0.0000 </r>
       <r>   -14.1181     0.0000     0.0000 </r>
       <r>   -14.1146     0.0000     0.0000 </r>
       <r>   -14.1112     0.0000     0.0000 </r>
       <r>   -14.1077     0.0000     0.0000 </r>
       <r>   -14.1042     0.0000     0.0000 </r>
       <r>   -14.1007     0.0000     0.0000 </r>
       <r>   -14.0973     0.0000     0.0000 </r>
       <r>   -14.0938     0.0000     0.0000 </r>
       <r>   -14.0903     0.0000     0.0000 </r>
       <r>   -14.0868     0.0000     0.0000 </r>
       <r>   -14.0834     0.0000     0.0000 </r>
       <r>   -14.0799     0.0000     0.0000 </r>
       <r>   -14.0764     0.0000     0.0000 </r>
       <r>   -14.0729     0.0000     0.0000 </r>
       <r>   -14.0694     0.0000     0.0000 </r>
       <r>   -14.0660     0.0000     0.0000 </r>
       <r>   -14.0625     0.0000     0.0000 </r>
       <r>   -14.0590     0.0000     0.0000 </r>
       <r>   -14.0555     0.0000     0.0000 </r>
       <r>   -14.0521     0.0000     0.0000 </r>
       <r>   -14.0486     0.0000     0.0000 </r>
       <r>   -14.0451     0.0000     0.0000 </r>
       <r>   -14.0416     0.0000     0.0000 </r>
       <r>   -14.0382     0.0000     0.0000 </r>
       <r>   -14.0347     0.0000     0.0000 </r>
       <r>   -14.0312     0.0000     0.0000 </r>
       <r>   -14.0277     0.0000     0.0000 </r>
       <r>   -14.0243     0.0000     0.0000 </r>
       <r>   -14.0208     0.0000     0.0000 </r>
       <r>   -14.0173     0.0000     0.0000 </r>
       <r>   -14.0138     0.0000     0.0000 </r>
       <r>   -14.0103     0.0000     0.0000 </r>
       <r>   -14.0069     0.0000     0.0000 </r>
       <r>   -14.0034     0.0000     0.0000 </r>
       <r>   -13.9999     0.0000     0.0000 </r>
       <r>   -13.9964     0.0000     0.0000 </r>
       <r>   -13.9930     0.0000     0.0000 </r>
       <r>   -13.9895     0.0000     0.0000 </r>
       <r>   -13.9860     0.0000     0.0000 </r>
       <r>   -13.9825     0.0000     0.0000 </r>
       <r>   -13.9791     0.0000     0.0000 </r>
       <r>   -13.9756     0.0000     0.0000 </r>
       <r>   -13.9721     0.0000     0.0000 </r>
       <r>   -13.9686     0.0000     0.0000 </r>
       <r>   -13.9652     0.0000     0.0000 </r>
       <r>   -13.9617     0.0000     0.0000 </r>
       <r>   -13.9582     0.0000     0.0000 </r>
       <r>   -13.9547     0.0000     0.0000 </r>
       <r>   -13.9512     0.0000     0.0000 </r>
       <r>   -13.9478     0.0000     0.0000 </r>
       <r>   -13.9443     0.0000     0.0000 </r>
       <r>   -13.9408     0.0000     0.0000 </r>
       <r>   -13.9373     0.0000     0.0000 </r>
       <r>   -13.9339     0.0000     0.0000 </r>
       <r>   -13.9304     0.0000     0.0000 </r>
       <r>   -13.9269     0.0000     0.0000 </r>
       <r>   -13.9234     0.0000     0.0000 </r>
       <r>   -13.9200     0.0000     0.0000 </r>
       <r>   -13.9165     0.0000     0.0000 </r>
       <r>   -13.9130     0.0000     0.0000 </r>
       <r>   -13.9095     0.0000     0.0000 </r>
       <r>   -13.9061     0.0000     0.0000 </r>
       <r>   -13.9026     0.0000     0.0000 </r>
       <r>   -13.8991     0.0000     0.0000 </r>
       <r>   -13.8956     0.0000     0.0000 </r>
       <r>   -13.8921     0.0000     0.0000 </r>
       <r>   -13.8887     0.0000     0.0000 </r>
       <r>   -13.8852     0.0000     0.0000 </r>
       <r>   -13.8817     0.0000     0.0000 </r>
       <r>   -13.8782     0.0000     0.0000 </r>
       <r>   -13.8748     0.0000     0.0000 </r>
       <r>   -13.8713     0.0000     0.0000 </r>
       <r>   -13.8678     0.0000     0.0000 </r>
       <r>   -13.8643     0.0000     0.0000 </r>
       <r>   -13.8609     0.0000     0.0000 </r>
       <r>   -13.8574     0.0000     0.0000 </r>
       <r>   -13.8539     0.0000     0.0000 </r>
       <r>   -13.8504     0.0000     0.0000 </r>
       <r>   -13.8470     0.0000     0.0000 </r>
       <r>   -13.8435     0.0000     0.0000 </r>
       <r>   -13.8400     0.0000     0.0000 </r>
       <r>   -13.8365     0.0000     0.0000 </r>
       <r>   -13.8330     0.0000     0.0000 </r>
       <r>   -13.8296     0.0000     0.0000 </r>
       <r>   -13.8261     0.0000     0.0000 </r>
       <r>   -13.8226     0.0000     0.0000 </r>
       <r>   -13.8191     0.0000     0.0000 </r>
       <r>   -13.8157     0.0000     0.0000 </r>
       <r>   -13.8122     0.0000     0.0000 </r>
       <r>   -13.8087     0.0000     0.0000 </r>
       <r>   -13.8052     0.0000     0.0000 </r>
       <r>   -13.8018     0.0000     0.0000 </r>
       <r>   -13.7983     0.0000     0.0000 </r>
       <r>   -13.7948     0.0000     0.0000 </r>
       <r>   -13.7913     0.0000     0.0000 </r>
       <r>   -13.7879     0.0000     0.0000 </r>
       <r>   -13.7844     0.0000     0.0000 </r>
       <r>   -13.7809     0.0000     0.0000 </r>
       <r>   -13.7774     0.0000     0.0000 </r>
       <r>   -13.7739     0.0000     0.0000 </r>
       <r>   -13.7705     0.0000     0.0000 </r>
       <r>   -13.7670     0.0000     0.0000 </r>
       <r>   -13.7635     0.0000     0.0000 </r>
       <r>   -13.7600     0.0000     0.0000 </r>
       <r>   -13.7566     0.0000     0.0000 </r>
       <r>   -13.7531     0.0000     0.0000 </r>
       <r>   -13.7496     0.0000     0.0000 </r>
       <r>   -13.7461     0.0000     0.0000 </r>
       <r>   -13.7427     0.0000     0.0000 </r>
       <r>   -13.7392     0.0000     0.0000 </r>
       <r>   -13.7357     0.0000     0.0000 </r>
       <r>   -13.7322     0.0000     0.0000 </r>
       <r>   -13.7288     0.0000     0.0000 </r>
       <r>   -13.7253     0.0000     0.0000 </r>
       <r>   -13.7218     0.0000     0.0000 </r>
       <r>   -13.7183     0.0000     0.0000 </r>
       <r>   -13.7148     0.0000     0.0000 </r>
       <r>   -13.7114     0.0000     0.0000 </r>
       <r>   -13.7079     0.0000     0.0000 </r>
       <r>   -13.7044     0.0000     0.0000 </r>
       <r>   -13.7009     0.0000     0.0000 </r>
       <r>   -13.6975     0.0000     0.0000 </r>
       <r>   -13.6940     0.0000     0.0000 </r>
       <r>   -13.6905     0.0000     0.0000 </r>
       <r>   -13.6870     0.0000     0.0000 </r>
       <r>   -13.6836     0.0000     0.0000 </r>
       <r>   -13.6801     0.0000     0.0000 </r>
       <r>   -13.6766     0.0000     0.0000 </r>
       <r>   -13.6731     0.0000     0.0000 </r>
       <r>   -13.6697     0.0000     0.0000 </r>
       <r>   -13.6662     0.0000     0.0000 </r>
       <r>   -13.6627     0.0000     0.0000 </r>
       <r>   -13.6592     0.0000     0.0000 </r>
       <r>   -13.6557     0.0000     0.0000 </r>
       <r>   -13.6523     0.0000     0.0000 </r>
       <r>   -13.6488     0.0000     0.0000 </r>
       <r>   -13.6453     0.0000     0.0000 </r>
       <r>   -13.6418     0.0000     0.0000 </r>
       <r>   -13.6384     0.0000     0.0000 </r>
       <r>   -13.6349     0.0000     0.0000 </r>
       <r>   -13.6314     0.0000     0.0000 </r>
       <r>   -13.6279     0.0000     0.0000 </r>
       <r>   -13.6245     0.0000     0.0000 </r>
       <r>   -13.6210     0.0000     0.0000 </r>
       <r>   -13.6175     0.0000     0.0000 </r>
       <r>   -13.6140     0.0000     0.0000 </r>
       <r>   -13.6106     0.0000     0.0000 </r>
       <r>   -13.6071     0.0000     0.0000 </r>
       <r>   -13.6036     0.0000     0.0000 </r>
       <r>   -13.6001     0.0000     0.0000 </r>
       <r>   -13.5966     0.0000     0.0000 </r>
       <r>   -13.5932     0.0003     0.0000 </r>
       <r>   -13.5897     0.0019     0.0000 </r>
       <r>   -13.5862     0.0093     0.0000 </r>
       <r>   -13.5827     0.0362     0.0002 </r>
       <r>   -13.5793     0.1111     0.0006 </r>
       <r>   -13.5758     0.2687     0.0015 </r>
       <r>   -13.5723     0.5128     0.0033 </r>
       <r>   -13.5688     0.7722     0.0060 </r>
       <r>   -13.5654     0.9176     0.0091 </r>
       <r>   -13.5619     0.8603     0.0121 </r>
       <r>   -13.5584     0.6365     0.0143 </r>
       <r>   -13.5549     0.3715     0.0156 </r>
       <r>   -13.5515     0.1711     0.0162 </r>
       <r>   -13.5480     0.0622     0.0165 </r>
       <r>   -13.5445     0.0178     0.0165 </r>
       <r>   -13.5410     0.0040     0.0165 </r>
       <r>   -13.5375     0.0007     0.0165 </r>
       <r>   -13.5341     0.0001     0.0165 </r>
       <r>   -13.5306     0.0000     0.0165 </r>
       <r>   -13.5271     0.0000     0.0165 </r>
       <r>   -13.5236     0.0000     0.0165 </r>
       <r>   -13.5202     0.0000     0.0165 </r>
       <r>   -13.5167     0.0000     0.0165 </r>
       <r>   -13.5132     0.0000     0.0165 </r>
       <r>   -13.5097     0.0001     0.0165 </r>
       <r>   -13.5063     0.0011     0.0165 </r>
       <r>   -13.5028     0.0074     0.0166 </r>
       <r>   -13.4993     0.0387     0.0167 </r>
       <r>   -13.4958     0.1593     0.0172 </r>
       <r>   -13.4924     0.5176     0.0190 </r>
       <r>   -13.4889     1.3270     0.0237 </r>
       <r>   -13.4854     2.6841     0.0330 </r>
       <r>   -13.4819     4.2837     0.0479 </r>
       <r>   -13.4784     5.3944     0.0666 </r>
       <r>   -13.4750     5.3603     0.0853 </r>
       <r>   -13.4715     4.2029     0.0999 </r>
       <r>   -13.4680     2.6002     0.1089 </r>
       <r>   -13.4645     1.2693     0.1133 </r>
       <r>   -13.4611     0.4888     0.1150 </r>
       <r>   -13.4576     0.1485     0.1156 </r>
       <r>   -13.4541     0.0356     0.1157 </r>
       <r>   -13.4506     0.0067     0.1157 </r>
       <r>   -13.4472     0.0010     0.1157 </r>
       <r>   -13.4437     0.0001     0.1157 </r>
       <r>   -13.4402     0.0000     0.1157 </r>
       <r>   -13.4367     0.0000     0.1157 </r>
       <r>   -13.4333     0.0000     0.1157 </r>
       <r>   -13.4298     0.0000     0.1157 </r>
       <r>   -13.4263     0.0000     0.1157 </r>
       <r>   -13.4228     0.0000     0.1157 </r>
       <r>   -13.4193     0.0000     0.1157 </r>
       <r>   -13.4159     0.0000     0.1157 </r>
       <r>   -13.4124     0.0000     0.1157 </r>
       <r>   -13.4089     0.0000     0.1157 </r>
       <r>   -13.4054     0.0000     0.1157 </r>
       <r>   -13.4020     0.0000     0.1157 </r>
       <r>   -13.3985     0.0000     0.1157 </r>
       <r>   -13.3950     0.0000     0.1157 </r>
       <r>   -13.3915     0.0000     0.1157 </r>
       <r>   -13.3881     0.0000     0.1157 </r>
       <r>   -13.3846     0.0000     0.1157 </r>
       <r>   -13.3811     0.0000     0.1157 </r>
       <r>   -13.3776     0.0000     0.1157 </r>
       <r>   -13.3742     0.0000     0.1157 </r>
       <r>   -13.3707     0.0000     0.1157 </r>
       <r>   -13.3672     0.0000     0.1157 </r>
       <r>   -13.3637     0.0000     0.1157 </r>
       <r>   -13.3602     0.0000     0.1157 </r>
       <r>   -13.3568     0.0000     0.1157 </r>
       <r>   -13.3533     0.0000     0.1157 </r>
       <r>   -13.3498     0.0000     0.1157 </r>
       <r>   -13.3463     0.0000     0.1157 </r>
       <r>   -13.3429     0.0000     0.1157 </r>
       <r>   -13.3394     0.0000     0.1157 </r>
       <r>   -13.3359     0.0001     0.1157 </r>
       <r>   -13.3324     0.0011     0.1157 </r>
       <r>   -13.3290     0.0071     0.1157 </r>
       <r>   -13.3255     0.0374     0.1159 </r>
       <r>   -13.3220     0.1550     0.1164 </r>
       <r>   -13.3185     0.5062     0.1182 </r>
       <r>   -13.3151     1.3043     0.1227 </r>
       <r>   -13.3116     2.6513     0.1319 </r>
       <r>   -13.3081     4.2524     0.1467 </r>
       <r>   -13.3046     5.3815     0.1654 </r>
       <r>   -13.3011     5.3740     0.1841 </r>
       <r>   -13.2977     4.2346     0.1988 </r>
       <r>   -13.2942     2.6329     0.2080 </r>
       <r>   -13.2907     1.2916     0.2125 </r>
       <r>   -13.2872     0.4999     0.2142 </r>
       <r>   -13.2838     0.1526     0.2147 </r>
       <r>   -13.2803     0.0368     0.2148 </r>
       <r>   -13.2768     0.0070     0.2149 </r>
       <r>   -13.2733     0.0010     0.2149 </r>
       <r>   -13.2699     0.0001     0.2149 </r>
       <r>   -13.2664     0.0000     0.2149 </r>
       <r>   -13.2629     0.0000     0.2149 </r>
       <r>   -13.2594     0.0000     0.2149 </r>
       <r>   -13.2560     0.0000     0.2149 </r>
       <r>   -13.2525     0.0000     0.2149 </r>
       <r>   -13.2490     0.0002     0.2149 </r>
       <r>   -13.2455     0.0019     0.2149 </r>
       <r>   -13.2420     0.0117     0.2149 </r>
       <r>   -13.2386     0.0573     0.2151 </r>
       <r>   -13.2351     0.2220     0.2159 </r>
       <r>   -13.2316     0.6780     0.2183 </r>
       <r>   -13.2281     1.6334     0.2239 </r>
       <r>   -13.2247     3.1047     0.2347 </r>
       <r>   -13.2212     4.6563     0.2509 </r>
       <r>   -13.2177     5.5103     0.2701 </r>
       <r>   -13.2142     5.1455     0.2880 </r>
       <r>   -13.2108     3.7914     0.3011 </r>
       <r>   -13.2073     2.2043     0.3088 </r>
       <r>   -13.2038     1.0111     0.3123 </r>
       <r>   -13.2003     0.3659     0.3136 </r>
       <r>   -13.1969     0.1045     0.3140 </r>
       <r>   -13.1934     0.0235     0.3140 </r>
       <r>   -13.1899     0.0042     0.3140 </r>
       <r>   -13.1864     0.0006     0.3140 </r>
       <r>   -13.1829     0.0001     0.3140 </r>
       <r>   -13.1795     0.0000     0.3140 </r>
       <r>   -13.1760     0.0000     0.3140 </r>
       <r>   -13.1725     0.0000     0.3140 </r>
       <r>   -13.1690     0.0000     0.3140 </r>
       <r>   -13.1656     0.0000     0.3140 </r>
       <r>   -13.1621     0.0000     0.3140 </r>
       <r>   -13.1586     0.0000     0.3140 </r>
       <r>   -13.1551     0.0000     0.3140 </r>
       <r>   -13.1517     0.0000     0.3140 </r>
       <r>   -13.1482     0.0000     0.3140 </r>
       <r>   -13.1447     0.0000     0.3140 </r>
       <r>   -13.1412     0.0000     0.3140 </r>
       <r>   -13.1378     0.0000     0.3140 </r>
       <r>   -13.1343     0.0000     0.3140 </r>
       <r>   -13.1308     0.0000     0.3140 </r>
       <r>   -13.1273     0.0000     0.3140 </r>
       <r>   -13.1238     0.0000     0.3140 </r>
       <r>   -13.1204     0.0000     0.3140 </r>
       <r>   -13.1169     0.0000     0.3140 </r>
       <r>   -13.1134     0.0000     0.3140 </r>
       <r>   -13.1099     0.0000     0.3140 </r>
       <r>   -13.1065     0.0000     0.3140 </r>
       <r>   -13.1030     0.0000     0.3140 </r>
       <r>   -13.0995     0.0000     0.3140 </r>
       <r>   -13.0960     0.0000     0.3140 </r>
       <r>   -13.0926     0.0000     0.3140 </r>
       <r>   -13.0891     0.0000     0.3140 </r>
       <r>   -13.0856     0.0000     0.3140 </r>
       <r>   -13.0821     0.0000     0.3140 </r>
       <r>   -13.0787     0.0000     0.3140 </r>
       <r>   -13.0752     0.0000     0.3140 </r>
       <r>   -13.0717     0.0000     0.3140 </r>
       <r>   -13.0682     0.0000     0.3140 </r>
       <r>   -13.0647     0.0000     0.3140 </r>
       <r>   -13.0613     0.0000     0.3140 </r>
       <r>   -13.0578     0.0000     0.3140 </r>
       <r>   -13.0543     0.0000     0.3140 </r>
       <r>   -13.0508     0.0000     0.3140 </r>
       <r>   -13.0474     0.0000     0.3140 </r>
       <r>   -13.0439     0.0000     0.3140 </r>
       <r>   -13.0404     0.0000     0.3140 </r>
       <r>   -13.0369     0.0000     0.3140 </r>
       <r>   -13.0335     0.0000     0.3140 </r>
       <r>   -13.0300     0.0000     0.3140 </r>
       <r>   -13.0265     0.0000     0.3140 </r>
       <r>   -13.0230     0.0000     0.3140 </r>
       <r>   -13.0196     0.0000     0.3140 </r>
       <r>   -13.0161     0.0000     0.3140 </r>
       <r>   -13.0126     0.0000     0.3140 </r>
       <r>   -13.0091     0.0000     0.3140 </r>
       <r>   -13.0056     0.0000     0.3140 </r>
       <r>   -13.0022     0.0000     0.3140 </r>
       <r>   -12.9987     0.0000     0.3140 </r>
       <r>   -12.9952     0.0003     0.3141 </r>
       <r>   -12.9917     0.0027     0.3141 </r>
       <r>   -12.9883     0.0176     0.3141 </r>
       <r>   -12.9848     0.0898     0.3144 </r>
       <r>   -12.9813     0.3616     0.3157 </r>
       <r>   -12.9778     1.1479     0.3197 </r>
       <r>   -12.9744     2.8751     0.3297 </r>
       <r>   -12.9709     5.6811     0.3494 </r>
       <r>   -12.9674     8.8573     0.3802 </r>
       <r>   -12.9639    10.8963     0.4181 </r>
       <r>   -12.9604    10.5772     0.4549 </r>
       <r>   -12.9570     8.1018     0.4830 </r>
       <r>   -12.9535     4.8966     0.5001 </r>
       <r>   -12.9500     2.3350     0.5082 </r>
       <r>   -12.9465     0.8785     0.5112 </r>
       <r>   -12.9431     0.2607     0.5121 </r>
       <r>   -12.9396     0.0610     0.5124 </r>
       <r>   -12.9361     0.0113     0.5124 </r>
       <r>   -12.9326     0.0016     0.5124 </r>
       <r>   -12.9292     0.0002     0.5124 </r>
       <r>   -12.9257     0.0000     0.5124 </r>
       <r>   -12.9222     0.0000     0.5124 </r>
       <r>   -12.9187     0.0000     0.5124 </r>
       <r>   -12.9153     0.0000     0.5124 </r>
       <r>   -12.9118     0.0000     0.5124 </r>
       <r>   -12.9083     0.0000     0.5124 </r>
       <r>   -12.9048     0.0000     0.5124 </r>
       <r>   -12.9013     0.0000     0.5124 </r>
       <r>   -12.8979     0.0000     0.5124 </r>
       <r>   -12.8944     0.0000     0.5124 </r>
       <r>   -12.8909     0.0000     0.5124 </r>
       <r>   -12.8874     0.0000     0.5124 </r>
       <r>   -12.8840     0.0000     0.5124 </r>
       <r>   -12.8805     0.0000     0.5124 </r>
       <r>   -12.8770     0.0000     0.5124 </r>
       <r>   -12.8735     0.0000     0.5124 </r>
       <r>   -12.8701     0.0000     0.5124 </r>
       <r>   -12.8666     0.0000     0.5124 </r>
       <r>   -12.8631     0.0000     0.5124 </r>
       <r>   -12.8596     0.0000     0.5124 </r>
       <r>   -12.8562     0.0000     0.5124 </r>
       <r>   -12.8527     0.0000     0.5124 </r>
       <r>   -12.8492     0.0000     0.5124 </r>
       <r>   -12.8457     0.0000     0.5124 </r>
       <r>   -12.8422     0.0000     0.5124 </r>
       <r>   -12.8388     0.0000     0.5124 </r>
       <r>   -12.8353     0.0000     0.5124 </r>
       <r>   -12.8318     0.0001     0.5124 </r>
       <r>   -12.8283     0.0008     0.5124 </r>
       <r>   -12.8249     0.0058     0.5124 </r>
       <r>   -12.8214     0.0311     0.5125 </r>
       <r>   -12.8179     0.1325     0.5130 </r>
       <r>   -12.8144     0.4452     0.5145 </r>
       <r>   -12.8110     1.1799     0.5186 </r>
       <r>   -12.8075     2.4671     0.5272 </r>
       <r>   -12.8040     4.0701     0.5414 </r>
       <r>   -12.8005     5.2982     0.5598 </r>
       <r>   -12.7971     5.4421     0.5787 </r>
       <r>   -12.7936     4.4109     0.5940 </r>
       <r>   -12.7901     2.8209     0.6038 </r>
       <r>   -12.7866     1.4235     0.6088 </r>
       <r>   -12.7831     0.5667     0.6108 </r>
       <r>   -12.7797     0.1780     0.6114 </r>
       <r>   -12.7762     0.0441     0.6115 </r>
       <r>   -12.7727     0.0086     0.6116 </r>
       <r>   -12.7692     0.0013     0.6116 </r>
       <r>   -12.7658     0.0002     0.6116 </r>
       <r>   -12.7623     0.0000     0.6116 </r>
       <r>   -12.7588     0.0000     0.6116 </r>
       <r>   -12.7553     0.0000     0.6116 </r>
       <r>   -12.7519     0.0000     0.6116 </r>
       <r>   -12.7484     0.0000     0.6116 </r>
       <r>   -12.7449     0.0000     0.6116 </r>
       <r>   -12.7414     0.0000     0.6116 </r>
       <r>   -12.7380     0.0000     0.6116 </r>
       <r>   -12.7345     0.0000     0.6116 </r>
       <r>   -12.7310     0.0000     0.6116 </r>
       <r>   -12.7275     0.0000     0.6116 </r>
       <r>   -12.7240     0.0000     0.6116 </r>
       <r>   -12.7206     0.0000     0.6116 </r>
       <r>   -12.7171     0.0000     0.6116 </r>
       <r>   -12.7136     0.0000     0.6116 </r>
       <r>   -12.7101     0.0000     0.6116 </r>
       <r>   -12.7067     0.0000     0.6116 </r>
       <r>   -12.7032     0.0000     0.6116 </r>
       <r>   -12.6997     0.0000     0.6116 </r>
       <r>   -12.6962     0.0000     0.6116 </r>
       <r>   -12.6928     0.0000     0.6116 </r>
       <r>   -12.6893     0.0000     0.6116 </r>
       <r>   -12.6858     0.0000     0.6116 </r>
       <r>   -12.6823     0.0000     0.6116 </r>
       <r>   -12.6789     0.0000     0.6116 </r>
       <r>   -12.6754     0.0000     0.6116 </r>
       <r>   -12.6719     0.0000     0.6116 </r>
       <r>   -12.6684     0.0000     0.6116 </r>
       <r>   -12.6649     0.0000     0.6116 </r>
       <r>   -12.6615     0.0000     0.6116 </r>
       <r>   -12.6580     0.0000     0.6116 </r>
       <r>   -12.6545     0.0000     0.6116 </r>
       <r>   -12.6510     0.0000     0.6116 </r>
       <r>   -12.6476     0.0000     0.6116 </r>
       <r>   -12.6441     0.0000     0.6116 </r>
       <r>   -12.6406     0.0000     0.6116 </r>
       <r>   -12.6371     0.0000     0.6116 </r>
       <r>   -12.6337     0.0000     0.6116 </r>
       <r>   -12.6302     0.0000     0.6116 </r>
       <r>   -12.6267     0.0000     0.6116 </r>
       <r>   -12.6232     0.0000     0.6116 </r>
       <r>   -12.6198     0.0000     0.6116 </r>
       <r>   -12.6163     0.0000     0.6116 </r>
       <r>   -12.6128     0.0000     0.6116 </r>
       <r>   -12.6093     0.0000     0.6116 </r>
       <r>   -12.6058     0.0000     0.6116 </r>
       <r>   -12.6024     0.0000     0.6116 </r>
       <r>   -12.5989     0.0000     0.6116 </r>
       <r>   -12.5954     0.0000     0.6116 </r>
       <r>   -12.5919     0.0000     0.6116 </r>
       <r>   -12.5885     0.0000     0.6116 </r>
       <r>   -12.5850     0.0002     0.6116 </r>
       <r>   -12.5815     0.0014     0.6116 </r>
       <r>   -12.5780     0.0088     0.6116 </r>
       <r>   -12.5746     0.0449     0.6118 </r>
       <r>   -12.5711     0.1807     0.6124 </r>
       <r>   -12.5676     0.5738     0.6144 </r>
       <r>   -12.5641     1.4373     0.6194 </r>
       <r>   -12.5607     2.8402     0.6293 </r>
       <r>   -12.5572     4.4283     0.6447 </r>
       <r>   -12.5537     5.4480     0.6636 </r>
       <r>   -12.5502     5.2888     0.6820 </r>
       <r>   -12.5467     4.0513     0.6961 </r>
       <r>   -12.5433     2.4487     0.7046 </r>
       <r>   -12.5398     1.1678     0.7086 </r>
       <r>   -12.5363     0.4393     0.7102 </r>
       <r>   -12.5328     0.1304     0.7106 </r>
       <r>   -12.5294     0.0305     0.7107 </r>
       <r>   -12.5259     0.0056     0.7107 </r>
       <r>   -12.5224     0.0008     0.7107 </r>
       <r>   -12.5189     0.0001     0.7107 </r>
       <r>   -12.5155     0.0000     0.7107 </r>
       <r>   -12.5120     0.0001     0.7107 </r>
       <r>   -12.5085     0.0011     0.7107 </r>
       <r>   -12.5050     0.0076     0.7108 </r>
       <r>   -12.5016     0.0434     0.7109 </r>
       <r>   -12.4981     0.1949     0.7116 </r>
       <r>   -12.4946     0.6910     0.7140 </r>
       <r>   -12.4911     1.9324     0.7207 </r>
       <r>   -12.4876     4.2632     0.7355 </r>
       <r>   -12.4842     7.4207     0.7613 </r>
       <r>   -12.4807    10.1917     0.7968 </r>
       <r>   -12.4772    11.0451     0.8352 </r>
       <r>   -12.4737     9.4451     0.8680 </r>
       <r>   -12.4703     6.3732     0.8902 </r>
       <r>   -12.4668     3.3931     0.9020 </r>
       <r>   -12.4633     1.4253     0.9069 </r>
       <r>   -12.4598     0.4723     0.9086 </r>
       <r>   -12.4564     0.1235     0.9090 </r>
       <r>   -12.4529     0.0255     0.9091 </r>
       <r>   -12.4494     0.0041     0.9091 </r>
       <r>   -12.4459     0.0005     0.9091 </r>
       <r>   -12.4425     0.0001     0.9091 </r>
       <r>   -12.4390     0.0000     0.9091 </r>
       <r>   -12.4355     0.0000     0.9091 </r>
       <r>   -12.4320     0.0000     0.9091 </r>
       <r>   -12.4285     0.0000     0.9091 </r>
       <r>   -12.4251     0.0000     0.9091 </r>
       <r>   -12.4216     0.0000     0.9091 </r>
       <r>   -12.4181     0.0000     0.9091 </r>
       <r>   -12.4146     0.0000     0.9091 </r>
[...]
        <r>  0.3409  0.0251  0.0029  0.0007 </r>
       </set>
       <set comment="band 2">
        <r>  0.3978  0.0244  0.0069  0.0010 </r>
        <r>  0.3978  0.0244  0.0069  0.0010 </r>
       </set>
       <set comment="band 3">
        <r>  0.0104  0.2610  0.0091  0.0006 </r>
        <r>  0.0104  0.2610  0.0091  0.0006 </r>
       </set>
       <set comment="band 4">
        <r>  0.0091  0.3061  0.0170  0.0024 </r>
        <r>  0.0091  0.3061  0.0170  0.0024 </r>
       </set>
       <set comment="band 5">
        <r>  0.0326  0.3006  0.0025  0.0017 </r>
        <r>  0.0326  0.3006  0.0025  0.0017 </r>
       </set>
       <set comment="band 6">
        <r>  0.0311  0.2153  0.0266  0.0042 </r>
        <r>  0.0311  0.2153  0.0266  0.0042 </r>
       </set>
       <set comment="band 7">
        <r>  0.0028  0.3114  0.0254  0.0036 </r>
        <r>  0.0028  0.3114  0.0254  0.0036 </r>
       </set>
       <set comment="band 8">
        <r>  0.0318  0.2191  0.0380  0.0053 </r>
        <r>  0.0318  0.2191  0.0380  0.0053 </r>
       </set>
       <set comment="band 9">
        <r>  0.0056  0.0158  0.0282  0.0015 </r>
        <r>  0.0056  0.0158  0.0282  0.0015 </r>
       </set>
       <set comment="band 10">
        <r>  0.0019  0.0885  0.0307  0.0028 </r>
        <r>  0.0019  0.0885  0.0307  0.0028 </r>
       </set>
       <set comment="band 11">
        <r>  0.0030  0.0286  0.0424  0.0025 </r>
        <r>  0.0030  0.0286  0.0424  0.0025 </r>
       </set>
       <set comment="band 12">
        <r>  0.0033  0.0290  0.0171  0.0017 </r>
        <r>  0.0033  0.0290  0.0171  0.0017 </r>
       </set>
      </set>
      <set comment="kpoint 33">
       <set comment="band 1">
        <r>  0.3500  0.0274  0.0047  0.0008 </r>
        <r>  0.3500  0.0274  0.0047  0.0008 </r>
       </set>
       <set comment="band 2">
        <r>  0.3720  0.0363  0.0073  0.0008 </r>
        <r>  0.3720  0.0363  0.0073  0.0008 </r>
       </set>
       <set comment="band 3">
        <r>  0.0425  0.2421  0.0046  0.0005 </r>
        <r>  0.0425  0.2421  0.0046  0.0005 </r>
       </set>
       <set comment="band 4">
        <r>  0.0057  0.3043  0.0149  0.0022 </r>
        <r>  0.0057  0.3043  0.0149  0.0022 </r>
       </set>
       <set comment="band 5">
        <r>  0.0372  0.2855  0.0031  0.0017 </r>
        <r>  0.0372  0.2855  0.0031  0.0017 </r>
       </set>
       <set comment="band 6">
        <r>  0.0247  0.2165  0.0330  0.0036 </r>
        <r>  0.0247  0.2165  0.0330  0.0036 </r>
       </set>
       <set comment="band 7">
        <r>  0.0121  0.2295  0.0414  0.0032 </r>
        <r>  0.0121  0.2295  0.0414  0.0032 </r>
       </set>
       <set comment="band 8">
        <r>  0.0109  0.2819  0.0276  0.0032 </r>
        <r>  0.0109  0.2819  0.0276  0.0032 </r>
       </set>
       <set comment="band 9">
        <r>  0.0002  0.0519  0.0821  0.0021 </r>
        <r>  0.0002  0.0519  0.0821  0.0021 </r>
       </set>
       <set comment="band 10">
        <r>  0.0080  0.0117  0.0149  0.0014 </r>
        <r>  0.0080  0.0117  0.0149  0.0014 </r>
       </set>
       <set comment="band 11">
        <r>  0.0014  0.0402  0.0146  0.0012 </r>
        <r>  0.0014  0.0402  0.0146  0.0012 </r>
       </set>
       <set comment="band 12">
        <r>  0.0113  0.0194  0.0183  0.0019 </r>
        <r>  0.0113  0.0194  0.0183  0.0019 </r>
       </set>
      </set>
      <set comment="kpoint 34">
       <set comment="band 1">
        <r>  0.3500  0.0274  0.0047  0.0008 </r>
        <r>  0.3500  0.0274  0.0047  0.0008 </r>
       </set>
       <set comment="band 2">
        <r>  0.3720  0.0363  0.0073  0.0008 </r>
        <r>  0.3720  0.0363  0.0073  0.0008 </r>
       </set>
       <set comment="band 3">
        <r>  0.0425  0.2421  0.0046  0.0005 </r>
        <r>  0.0425  0.2421  0.0046  0.0005 </r>
       </set>
       <set comment="band 4">
        <r>  0.0057  0.3043  0.0149  0.0022 </r>
        <r>  0.0057  0.3043  0.0149  0.0022 </r>
       </set>
       <set comment="band 5">
        <r>  0.0372  0.2855  0.0031  0.0017 </r>
        <r>  0.0372  0.2855  0.0031  0.0017 </r>
       </set>
       <set comment="band 6">
        <r>  0.0247  0.2165  0.0330  0.0036 </r>
        <r>  0.0247  0.2165  0.0330  0.0036 </r>
       </set>
       <set comment="band 7">
        <r>  0.0121  0.2295  0.0414  0.0032 </r>
        <r>  0.0121  0.2295  0.0414  0.0032 </r>
       </set>
       <set comment="band 8">
        <r>  0.0109  0.2819  0.0276  0.0032 </r>
        <r>  0.0109  0.2819  0.0276  0.0032 </r>
       </set>
       <set comment="band 9">
        <r>  0.0002  0.0516  0.0825  0.0021 </r>
        <r>  0.0002  0.0516  0.0825  0.0021 </r>
       </set>
       <set comment="band 10">
        <r>  0.0079  0.0128  0.0125  0.0014 </r>
        <r>  0.0079  0.0128  0.0125  0.0014 </r>
       </set>
       <set comment="band 11">
        <r>  0.0037  0.0348  0.0205  0.0009 </r>
        <r>  0.0037  0.0348  0.0205  0.0009 </r>
       </set>
       <set comment="band 12">
        <r>  0.0055  0.0360  0.0191  0.0035 </r>
        <r>  0.0055  0.0360  0.0191  0.0035 </r>
       </set>
      </set>
      <set comment="kpoint 35">
       <set comment="band 1">
        <r>  0.3603  0.0263  0.0059  0.0009 </r>
        <r>  0.3603  0.0263  0.0059  0.0009 </r>
       </set>
       <set comment="band 2">
        <r>  0.3526  0.0432  0.0066  0.0006 </r>
        <r>  0.3526  0.0432  0.0066  0.0006 </r>
       </set>
       <set comment="band 3">
        <r>  0.0600  0.2354  0.0034  0.0006 </r>
        <r>  0.0600  0.2354  0.0034  0.0006 </r>
       </set>
       <set comment="band 4">
        <r>  0.0020  0.3136  0.0147  0.0022 </r>
        <r>  0.0020  0.3136  0.0147  0.0022 </r>
       </set>
       <set comment="band 5">
        <r>  0.0373  0.2673  0.0028  0.0016 </r>
        <r>  0.0373  0.2673  0.0028  0.0016 </r>
       </set>
       <set comment="band 6">
        <r>  0.0349  0.2140  0.0446  0.0049 </r>
        <r>  0.0349  0.2140  0.0446  0.0049 </r>
       </set>
       <set comment="band 7">
        <r>  0.0007  0.2315  0.0324  0.0012 </r>
        <r>  0.0007  0.2315  0.0324  0.0012 </r>
       </set>
       <set comment="band 8">
        <r>  0.0075  0.2914  0.0259  0.0028 </r>
        <r>  0.0075  0.2914  0.0259  0.0028 </r>
       </set>
       <set comment="band 9">
        <r>  0.0001  0.0205  0.0905  0.0018 </r>
        <r>  0.0001  0.0205  0.0905  0.0018 </r>
       </set>
       <set comment="band 10">
        <r>  0.0091  0.0126  0.0200  0.0019 </r>
        <r>  0.0091  0.0126  0.0200  0.0019 </r>
       </set>
       <set comment="band 11">
        <r>  0.0123  0.0193  0.0139  0.0026 </r>
        <r>  0.0123  0.0193  0.0139  0.0026 </r>
       </set>
       <set comment="band 12">
        <r>  0.0027  0.0596  0.0134  0.0028 </r>
        <r>  0.0027  0.0596  0.0134  0.0028 </r>
       </set>
      </set>
      <set comment="kpoint 36">
       <set comment="band 1">
        <r>  0.3398  0.0248  0.0027  0.0007 </r>
        <r>  0.3398  0.0248  0.0027  0.0007 </r>
       </set>
       <set comment="band 2">
        <r>  0.4039  0.0212  0.0066  0.0010 </r>
        <r>  0.4039  0.0212  0.0066  0.0010 </r>
       </set>
       <set comment="band 3">
        <r>  0.0020  0.2714  0.0111  0.0009 </r>
        <r>  0.0020  0.2714  0.0111  0.0009 </r>
       </set>
       <set comment="band 4">
        <r>  0.0129  0.2861  0.0171  0.0018 </r>
        <r>  0.0129  0.2861  0.0171  0.0018 </r>
       </set>
       <set comment="band 5">
        <r>  0.0284  0.3039  0.0027  0.0016 </r>
        <r>  0.0284  0.3039  0.0027  0.0016 </r>
       </set>
       <set comment="band 6">
        <r>  0.0271  0.2306  0.0219  0.0038 </r>
        <r>  0.0271  0.2306  0.0219  0.0038 </r>
       </set>
       <set comment="band 7">
        <r>  0.0134  0.2854  0.0235  0.0041 </r>
        <r>  0.0134  0.2854  0.0235  0.0041 </r>
       </set>
       <set comment="band 8">
        <r>  0.0429  0.2795  0.0199  0.0074 </r>
        <r>  0.0429  0.2795  0.0199  0.0074 </r>
       </set>
       <set comment="band 9">
        <r>  0.0011  0.0255  0.0185  0.0021 </r>
        <r>  0.0011  0.0255  0.0185  0.0021 </r>
       </set>
       <set comment="band 10">
        <r>  0.0004  0.0542  0.0637  0.0070 </r>
        <r>  0.0004  0.0542  0.0637  0.0070 </r>
       </set>
       <set comment="band 11">
        <r>  0.0009  0.0216  0.0504  0.0052 </r>
        <r>  0.0009  0.0216  0.0504  0.0052 </r>
       </set>
       <set comment="band 12">
        <r>  0.0030  0.0170  0.0258  0.0023 </r>
        <r>  0.0030  0.0170  0.0258  0.0023 </r>
       </set>
      </set>
      <set comment="kpoint 37">
       <set comment="band 1">
        <r>  0.3462  0.0280  0.0042  0.0007 </r>
        <r>  0.3462  0.0280  0.0042  0.0007 </r>
       </set>
       <set comment="band 2">
        <r>  0.3899  0.0289  0.0077  0.0010 </r>
        <r>  0.3899  0.0289  0.0077  0.0010 </r>
       </set>
       <set comment="band 3">
        <r>  0.0215  0.2580  0.0097  0.0007 </r>
        <r>  0.0215  0.2580  0.0097  0.0007 </r>
       </set>
       <set comment="band 4">
        <r>  0.0099  0.2757  0.0122  0.0011 </r>
        <r>  0.0099  0.2757  0.0122  0.0011 </r>
       </set>
       <set comment="band 5">
        <r>  0.0376  0.2967  0.0030  0.0014 </r>
        <r>  0.0376  0.2967  0.0030  0.0014 </r>
       </set>
       <set comment="band 6">
        <r>  0.0100  0.2359  0.0269  0.0030 </r>
        <r>  0.0100  0.2359  0.0269  0.0030 </r>
       </set>
       <set comment="band 7">
        <r>  0.0150  0.2418  0.0262  0.0032 </r>
        <r>  0.0150  0.2418  0.0262  0.0032 </r>
       </set>
       <set comment="band 8">
        <r>  0.0363  0.2759  0.0258  0.0066 </r>
        <r>  0.0363  0.2759  0.0258  0.0066 </r>
       </set>
       <set comment="band 9">
        <r>  0.0003  0.0711  0.0850  0.0074 </r>
        <r>  0.0003  0.0711  0.0850  0.0074 </r>
       </set>
       <set comment="band 10">
        <r>  0.0042  0.0182  0.0107  0.0016 </r>
        <r>  0.0042  0.0182  0.0107  0.0016 </r>
       </set>
       <set comment="band 11">
        <r>  0.0010  0.0398  0.0298  0.0022 </r>
        <r>  0.0010  0.0398  0.0298  0.0022 </r>
       </set>
       <set comment="band 12">
        <r>  0.0041  0.0499  0.1077  0.0119 </r>
        <r>  0.0041  0.0499  0.1077  0.0119 </r>
       </set>
      </set>
      <set comment="kpoint 38">
       <set comment="band 1">
        <r>  0.3462  0.0280  0.0042  0.0007 </r>
        <r>  0.3462  0.0280  0.0042  0.0007 </r>
       </set>
       <set comment="band 2">
        <r>  0.3899  0.0289  0.0077  0.0010 </r>
        <r>  0.3899  0.0289  0.0077  0.0010 </r>
       </set>
       <set comment="band 3">
        <r>  0.0215  0.2580  0.0097  0.0007 </r>
        <r>  0.0215  0.2580  0.0097  0.0007 </r>
       </set>
       <set comment="band 4">
        <r>  0.0099  0.2757  0.0122  0.0011 </r>
        <r>  0.0099  0.2757  0.0122  0.0011 </r>
       </set>
       <set comment="band 5">
        <r>  0.0376  0.2967  0.0030  0.0014 </r>
        <r>  0.0376  0.2967  0.0030  0.0014 </r>
       </set>
       <set comment="band 6">
        <r>  0.0100  0.2359  0.0269  0.0030 </r>
        <r>  0.0100  0.2359  0.0269  0.0030 </r>
       </set>
       <set comment="band 7">
        <r>  0.0150  0.2418  0.0262  0.0032 </r>
        <r>  0.0150  0.2418  0.0262  0.0032 </r>
       </set>
       <set comment="band 8">
        <r>  0.0363  0.2760  0.0258  0.0066 </r>
        <r>  0.0363  0.2760  0.0258  0.0066 </r>
       </set>
       <set comment="band 9">
        <r>  0.0008  0.0626  0.0813  0.0070 </r>
        <r>  0.0008  0.0626  0.0813  0.0070 </r>
       </set>
       <set comment="band 10">
        <r>  0.0038  0.0291  0.0125  0.0020 </r>
        <r>  0.0038  0.0291  0.0125  0.0020 </r>
       </set>
       <set comment="band 11">
        <r>  0.0012  0.0332  0.0345  0.0023 </r>
        <r>  0.0012  0.0332  0.0345  0.0023 </r>
       </set>
       <set comment="band 12">
        <r>  0.0045  0.0500  0.1059  0.0117 </r>
        <r>  0.0045  0.0500  0.1059  0.0117 </r>
       </set>
      </set>
      <set comment="kpoint 39">
       <set comment="band 1">
        <r>  0.3576  0.0286  0.0058  0.0008 </r>
        <r>  0.3576  0.0286  0.0058  0.0008 </r>
       </set>
       <set comment="band 2">
        <r>  0.3679  0.0365  0.0073  0.0008 </r>
        <r>  0.3679  0.0365  0.0073  0.0008 </r>
       </set>
       <set comment="band 3">
        <r>  0.0283  0.2516  0.0097  0.0007 </r>
        <r>  0.0283  0.2516  0.0097  0.0007 </r>
       </set>
       <set comment="band 4">
        <r>  0.0204  0.2771  0.0090  0.0009 </r>
        <r>  0.0204  0.2771  0.0090  0.0009 </r>
       </set>
       <set comment="band 5">
        <r>  0.0403  0.2777  0.0034  0.0012 </r>
        <r>  0.0403  0.2777  0.0034  0.0012 </r>
       </set>
       <set comment="band 6">
        <r>  0.0011  0.2348  0.0292  0.0023 </r>
        <r>  0.0011  0.2348  0.0292  0.0023 </r>
       </set>
       <set comment="band 7">
        <r>  0.0240  0.2477  0.0286  0.0042 </r>
        <r>  0.0240  0.2477  0.0286  0.0042 </r>
       </set>
       <set comment="band 8">
        <r>  0.0233  0.2558  0.0284  0.0043 </r>
        <r>  0.0233  0.2558  0.0284  0.0043 </r>
       </set>
       <set comment="band 9">
        <r>  0.0013  0.0312  0.0972  0.0059 </r>
        <r>  0.0013  0.0312  0.0972  0.0059 </r>
       </set>
       <set comment="band 10">
        <r>  0.0063  0.0148  0.0188  0.0022 </r>
        <r>  0.0063  0.0148  0.0188  0.0022 </r>
       </set>
       <set comment="band 11">
        <r>  0.0000  0.0583  0.0380  0.0023 </r>
        <r>  0.0000  0.0583  0.0380  0.0023 </r>
       </set>
       <set comment="band 12">
        <r>  0.0027  0.0696  0.0381  0.0031 </r>
        <r>  0.0027  0.0696  0.0381  0.0031 </r>
       </set>
      </set>
      <set comment="kpoint 40">
       <set comment="band 1">
        <r>  0.3576  0.0286  0.0058  0.0008 </r>
        <r>  0.3576  0.0286  0.0058  0.0008 </r>
       </set>
       <set comment="band 2">
        <r>  0.3679  0.0365  0.0073  0.0008 </r>
        <r>  0.3679  0.0365  0.0073  0.0008 </r>
       </set>
       <set comment="band 3">
        <r>  0.0283  0.2516  0.0097  0.0007 </r>
        <r>  0.0283  0.2516  0.0097  0.0007 </r>
       </set>
       <set comment="band 4">
        <r>  0.0204  0.2771  0.0090  0.0009 </r>
        <r>  0.0204  0.2771  0.0090  0.0009 </r>
       </set>
       <set comment="band 5">
        <r>  0.0403  0.2777  0.0034  0.0012 </r>
        <r>  0.0403  0.2777  0.0034  0.0012 </r>
       </set>
       <set comment="band 6">
        <r>  0.0011  0.2348  0.0292  0.0023 </r>
        <r>  0.0011  0.2348  0.0292  0.0023 </r>
       </set>
       <set comment="band 7">
        <r>  0.0240  0.2476  0.0286  0.0042 </r>
        <r>  0.0240  0.2476  0.0286  0.0042 </r>
       </set>
       <set comment="band 8">
        <r>  0.0233  0.2558  0.0284  0.0043 </r>
        <r>  0.0233  0.2558  0.0284  0.0043 </r>
       </set>
       <set comment="band 9">
        <r>  0.0013  0.0312  0.0974  0.0059 </r>
        <r>  0.0013  0.0312  0.0974  0.0059 </r>
       </set>
       <set comment="band 10">
        <r>  0.0064  0.0150  0.0152  0.0022 </r>
        <r>  0.0064  0.0150  0.0152  0.0022 </r>
       </set>
       <set comment="band 11">
        <r>  0.0005  0.0542  0.0425  0.0019 </r>
        <r>  0.0005  0.0542  0.0425  0.0019 </r>
       </set>
       <set comment="band 12">
        <r>  0.0025  0.0712  0.0368  0.0035 </r>
        <r>  0.0025  0.0712  0.0368  0.0035 </r>
       </set>
      </set>
      <set comment="kpoint 41">
       <set comment="band 1">
        <r>  0.3547  0.0302  0.0056  0.0008 </r>
        <r>  0.3547  0.0302  0.0056  0.0008 </r>
       </set>
       <set comment="band 2">
        <r>  0.3788  0.0318  0.0078  0.0010 </r>
        <r>  0.3788  0.0318  0.0078  0.0010 </r>
       </set>
       <set comment="band 3">
        <r>  0.0067  0.2614  0.0130  0.0006 </r>
        <r>  0.0067  0.2614  0.0130  0.0006 </r>
       </set>
       <set comment="band 4">
        <r>  0.0326  0.2621  0.0055  0.0005 </r>
        <r>  0.0326  0.2621  0.0055  0.0005 </r>
       </set>
       <set comment="band 5">
        <r>  0.0428  0.2855  0.0035  0.0010 </r>
        <r>  0.0428  0.2855  0.0035  0.0010 </r>
       </set>
       <set comment="band 6">
        <r>  0.0013  0.2273  0.0278  0.0029 </r>
        <r>  0.0013  0.2273  0.0278  0.0029 </r>
       </set>
       <set comment="band 7">
        <r>  0.0178  0.2258  0.0270  0.0026 </r>
        <r>  0.0178  0.2258  0.0270  0.0026 </r>
       </set>
       <set comment="band 8">
        <r>  0.0302  0.2958  0.0179  0.0053 </r>
        <r>  0.0302  0.2958  0.0179  0.0053 </r>
       </set>
       <set comment="band 9">
        <r>  0.0018  0.0888  0.0899  0.0123 </r>
        <r>  0.0018  0.0888  0.0899  0.0123 </r>
       </set>
       <set comment="band 10">
        <r>  0.0098  0.0302  0.0238  0.0036 </r>
        <r>  0.0098  0.0302  0.0238  0.0036 </r>
       </set>
       <set comment="band 11">
        <r>  0.0003  0.0357  0.0644  0.0019 </r>
        <r>  0.0003  0.0357  0.0644  0.0019 </r>
       </set>
       <set comment="band 12">
        <r>  0.0014  0.0388  0.0917  0.0109 </r>
        <r>  0.0014  0.0388  0.0917  0.0109 </r>
       </set>
      </set>
      <set comment="kpoint 42">
       <set comment="band 1">
        <r>  0.3639  0.0304  0.0067  0.0009 </r>
        <r>  0.3639  0.0304  0.0067  0.0009 </r>
       </set>
       <set comment="band 2">
        <r>  0.3686  0.0335  0.0073  0.0009 </r>
        <r>  0.3686  0.0335  0.0073  0.0009 </r>
       </set>
       <set comment="band 3">
        <r>  0.0038  0.2588  0.0123  0.0003 </r>
        <r>  0.0038  0.2588  0.0123  0.0003 </r>
       </set>
       <set comment="band 4">
        <r>  0.0398  0.2690  0.0050  0.0005 </r>
        <r>  0.0398  0.2690  0.0050  0.0005 </r>
       </set>
       <set comment="band 5">
        <r>  0.0437  0.2739  0.0038  0.0008 </r>
        <r>  0.0437  0.2739  0.0038  0.0008 </r>
       </set>
       <set comment="band 6">
        <r>  0.0003  0.2186  0.0277  0.0029 </r>
        <r>  0.0003  0.2186  0.0277  0.0029 </r>
       </set>
       <set comment="band 7">
        <r>  0.0175  0.2427  0.0259  0.0029 </r>
        <r>  0.0175  0.2427  0.0259  0.0029 </r>
       </set>
       <set comment="band 8">
        <r>  0.0246  0.2709  0.0221  0.0041 </r>
        <r>  0.0246  0.2709  0.0221  0.0041 </r>
       </set>
       <set comment="band 9">
        <r>  0.0074  0.0618  0.0832  0.0117 </r>
        <r>  0.0074  0.0618  0.0832  0.0117 </r>
       </set>
       <set comment="band 10">
        <r>  0.0001  0.0266  0.0791  0.0010 </r>
        <r>  0.0001  0.0266  0.0791  0.0010 </r>
       </set>
       <set comment="band 11">
        <r>  0.0079  0.0794  0.0223  0.0057 </r>
        <r>  0.0079  0.0794  0.0223  0.0057 </r>
       </set>
       <set comment="band 12">
        <r>  0.0053  0.0165  0.0248  0.0042 </r>
        <r>  0.0053  0.0165  0.0248  0.0042 </r>
       </set>
      </set>
     </set>
    </set>
   </array>
  </projected>
 </calculation>
 <structure name="finalpos" >
  <crystal>
   <varray name="basis" >
    <v>       4.11336655       0.00000000       0.00000000 </v>
    <v>      -2.05668327       3.56227993       0.00000000 </v>
    <v>       0.00000000       0.00000000      16.00000000 </v>
   </varray>
   <i name="volume">    234.44740948 </i>
   <varray name="rec_basis" >
    <v>       0.24310987       0.14035955       0.00000000 </v>
    <v>       0.00000000       0.28071910       0.00000000 </v>
    <v>       0.00000000       0.00000000       0.06250000 </v>
   </varray>
  </crystal>
  <varray name="positions" >
   <v>       0.66666667       0.33333333       0.44862540 </v>
   <v>       0.33333333       0.66666667       0.55137460 </v>
  </varray>
 </structure>
</modeling>
