   2   2   1   0
  0.1758356E+03  0.4113367E-09  0.4113367E-09  0.2400000E-08  0.5000000E-15
  1.000000000000000E-004
  CAR 
 unknown system                          
      6.56934184    -15.41144141 6001     -3.08754804      1.00000000
    -15.411  0.0000E+00  0.0000E+00
    -15.408  0.0000E+00  0.0000E+00
    -15.404  0.0000E+00  0.0000E+00
    -15.400  0.0000E+00  0.0000E+00
    -15.397  0.0000E+00  0.0000E+00
    -15.393  0.0000E+00  0.0000E+00
    -15.389  0.0000E+00  0.0000E+00
    -15.386  0.0000E+00  0.0000E+00
    -15.382  0.0000E+00  0.0000E+00
    -15.378  0.0000E+00  0.0000E+00
    -15.375  0.0000E+00  0.0000E+00
    -15.371  0.0000E+00  0.0000E+00
    -15.367  0.0000E+00  0.0000E+00
    -15.364  0.0000E+00  0.0000E+00
    -15.360  0.0000E+00  0.0000E+00
    -15.356  0.0000E+00  0.0000E+00
    -15.353  0.0000E+00  0.0000E+00
    -15.349  0.0000E+00  0.0000E+00
    -15.345  0.0000E+00  0.0000E+00
    -15.342  0.0000E+00  0.0000E+00
    -15.338  0.0000E+00  0.0000E+00
    -15.335  0.0000E+00  0.0000E+00
    -15.331  0.0000E+00  0.0000E+00
    -15.327  0.0000E+00  0.0000E+00
    -15.324  0.0000E+00  0.0000E+00
    -15.320  0.0000E+00  0.0000E+00
    -15.316  0.0000E+00  0.0000E+00
    -15.313  0.0000E+00  0.0000E+00
    -15.309  0.0000E+00  0.0000E+00
    -15.305  0.0000E+00  0.0000E+00
    -15.302  0.0000E+00  0.0000E+00
    -15.298  0.0000E+00  0.0000E+00
    -15.294  0.0000E+00  0.0000E+00
    -15.291  0.0000E+00  0.0000E+00
    -15.287  0.0000E+00  0.0000E+00
    -15.283  0.0000E+00  0.0000E+00
    -15.280  0.0000E+00  0.0000E+00
    -15.276  0.0000E+00  0.0000E+00
    -15.272  0.0000E+00  0.0000E+00
    -15.269  0.0000E+00  0.0000E+00
    -15.265  0.0000E+00  0.0000E+00
    -15.261  0.0000E+00  0.0000E+00
    -15.258  0.0000E+00  0.0000E+00
    -15.254  0.0000E+00  0.0000E+00
    -15.250  0.0000E+00  0.0000E+00
    -15.247  0.0000E+00  0.0000E+00
    -15.243  0.0000E+00  0.0000E+00
    -15.239  0.0000E+00  0.0000E+00
    -15.236  0.0000E+00  0.0000E+00
    -15.232  0.0000E+00  0.0000E+00
    -15.228  0.0000E+00  0.0000E+00
    -15.225  0.0000E+00  0.0000E+00
    -15.221  0.0000E+00  0.0000E+00
    -15.217  0.0000E+00  0.0000E+00
    -15.214  0.0000E+00  0.0000E+00
    -15.210  0.0000E+00  0.0000E+00
    -15.206  0.0000E+00  0.0000E+00
    -15.203  0.0000E+00  0.0000E+00
    -15.199  0.0000E+00  0.0000E+00
    -15.195  0.0000E+00  0.0000E+00
    -15.192  0.0000E+00  0.0000E+00
    -15.188  0.0000E+00  0.0000E+00
    -15.184  0.0000E+00  0.0000E+00
    -15.181  0.0000E+00  0.0000E+00
    -15.177  0.0000E+00  0.0000E+00
    -15.173  0.0000E+00  0.0000E+00
    -15.170  0.0000E+00  0.0000E+00
    -15.166  0.0000E+00  0.0000E+00
    -15.162  0.0000E+00  0.0000E+00
    -15.159  0.0000E+00  0.0000E+00
    -15.155  0.0000E+00  0.0000E+00
    -15.151  0.0000E+00  0.0000E+00
    -15.148  0.0000E+00  0.0000E+00
    -15.144  0.0000E+00  0.0000E+00
    -15.140  0.0000E+00  0.0000E+00
    -15.137  0.0000E+00  0.0000E+00
    -15.133  0.0000E+00  0.0000E+00
    -15.129  0.0000E+00  0.0000E+00
    -15.126  0.0000E+00  0.0000E+00
    -15.122  0.0000E+00  0.0000E+00
    -15.118  0.0000E+00  0.0000E+00
    -15.115  0.0000E+00  0.0000E+00
    -15.111  0.0000E+00  0.0000E+00
    -15.107  0.0000E+00  0.0000E+00
    -15.104  0.0000E+00  0.0000E+00
    -15.100  0.0000E+00  0.0000E+00
    -15.096  0.0000E+00  0.0000E+00
    -15.093  0.0000E+00  0.0000E+00
    -15.089  0.0000E+00  0.0000E+00
    -15.085  0.0000E+00  0.0000E+00
    -15.082  0.0000E+00  0.0000E+00
    -15.078  0.0000E+00  0.0000E+00
    -15.074  0.0000E+00  0.0000E+00
    -15.071  0.0000E+00  0.0000E+00
    -15.067  0.0000E+00  0.0000E+00
    -15.063  0.0000E+00  0.0000E+00
    -15.060  0.0000E+00  0.0000E+00
    -15.056  0.0000E+00  0.0000E+00
    -15.052  0.0000E+00  0.0000E+00
    -15.049  0.0000E+00  0.0000E+00
    -15.045  0.0000E+00  0.0000E+00
    -15.041  0.0000E+00  0.0000E+00
    -15.038  0.0000E+00  0.0000E+00
    -15.034  0.0000E+00  0.0000E+00
    -15.030  0.0000E+00  0.0000E+00
    -15.027  0.0000E+00  0.0000E+00
    -15.023  0.0000E+00  0.0000E+00
    -15.019  0.0000E+00  0.0000E+00
    -15.016  0.0000E+00  0.0000E+00
    -15.012  0.0000E+00  0.0000E+00
    -15.008  0.0000E+00  0.0000E+00
    -15.005  0.0000E+00  0.0000E+00
    -15.001  0.0000E+00  0.0000E+00
    -14.997  0.0000E+00  0.0000E+00
    -14.994  0.0000E+00  0.0000E+00
    -14.990  0.0000E+00  0.0000E+00
    -14.986  0.0000E+00  0.0000E+00
    -14.983  0.0000E+00  0.0000E+00
    -14.979  0.0000E+00  0.0000E+00
    -14.975  0.0000E+00  0.0000E+00
    -14.972  0.0000E+00  0.0000E+00
    -14.968  0.0000E+00  0.0000E+00
    -14.964  0.0000E+00  0.0000E+00
    -14.961  0.0000E+00  0.0000E+00
    -14.957  0.0000E+00  0.0000E+00
    -14.954  0.0000E+00  0.0000E+00
    -14.950  0.0000E+00  0.0000E+00
    -14.946  0.0000E+00  0.0000E+00
    -14.943  0.0000E+00  0.0000E+00
    -14.939  0.0000E+00  0.0000E+00
    -14.935  0.0000E+00  0.0000E+00
    -14.932  0.0000E+00  0.0000E+00
    -14.928  0.0000E+00  0.0000E+00
    -14.924  0.0000E+00  0.0000E+00
    -14.921  0.0000E+00  0.0000E+00
    -14.917  0.0000E+00  0.0000E+00
    -14.913  0.0000E+00  0.0000E+00
    -14.910  0.0000E+00  0.0000E+00
    -14.906  0.0000E+00  0.0000E+00
    -14.902  0.0000E+00  0.0000E+00
    -14.899  0.0000E+00  0.0000E+00
    -14.895  0.0000E+00  0.0000E+00
    -14.891  0.0000E+00  0.0000E+00
    -14.888  0.0000E+00  0.0000E+00
    -14.884  0.0000E+00  0.0000E+00
    -14.880  0.0000E+00  0.0000E+00
    -14.877  0.0000E+00  0.0000E+00
    -14.873  0.0000E+00  0.0000E+00
    -14.869  0.0000E+00  0.0000E+00
    -14.866  0.0000E+00  0.0000E+00
    -14.862  0.0000E+00  0.0000E+00
    -14.858  0.0000E+00  0.0000E+00
    -14.855  0.0000E+00  0.0000E+00
    -14.851  0.0000E+00  0.0000E+00
    -14.847  0.0000E+00  0.0000E+00
    -14.844  0.0000E+00  0.0000E+00
    -14.840  0.0000E+00  0.0000E+00
    -14.836  0.0000E+00  0.0000E+00
    -14.833  0.0000E+00  0.0000E+00
    -14.829  0.0000E+00  0.0000E+00
    -14.825  0.0000E+00  0.0000E+00
    -14.822  0.0000E+00  0.0000E+00
    -14.818  0.0000E+00  0.0000E+00
    -14.814  0.0000E+00  0.0000E+00
    -14.811  0.0000E+00  0.0000E+00
    -14.807  0.0000E+00  0.0000E+00
    -14.803  0.0000E+00  0.0000E+00
    -14.800  0.0000E+00  0.0000E+00
    -14.796  0.0000E+00  0.0000E+00
    -14.792  0.0000E+00  0.0000E+00
    -14.789  0.0000E+00  0.0000E+00
    -14.785  0.0000E+00  0.0000E+00
    -14.781  0.0000E+00  0.0000E+00
    -14.778  0.0000E+00  0.0000E+00
    -14.774  0.0000E+00  0.0000E+00
    -14.770  0.0000E+00  0.0000E+00
    -14.767  0.0000E+00  0.0000E+00
    -14.763  0.0000E+00  0.0000E+00
    -14.759  0.0000E+00  0.0000E+00
    -14.756  0.0000E+00  0.0000E+00
    -14.752  0.0000E+00  0.0000E+00
    -14.748  0.0000E+00  0.0000E+00
    -14.745  0.0000E+00  0.0000E+00
    -14.741  0.0000E+00  0.0000E+00
    -14.737  0.0000E+00  0.0000E+00
    -14.734  0.0000E+00  0.0000E+00
    -14.730  0.0000E+00  0.0000E+00
    -14.726  0.0000E+00  0.0000E+00
    -14.723  0.0000E+00  0.0000E+00
    -14.719  0.0000E+00  0.0000E+00
    -14.715  0.0000E+00  0.0000E+00
    -14.712  0.0000E+00  0.0000E+00
    -14.708  0.0000E+00  0.0000E+00
    -14.704  0.0000E+00  0.0000E+00
    -14.701  0.0000E+00  0.0000E+00
    -14.697  0.0000E+00  0.0000E+00
    -14.693  0.0000E+00  0.0000E+00
    -14.690  0.0000E+00  0.0000E+00
    -14.686  0.0000E+00  0.0000E+00
    -14.682  0.0000E+00  0.0000E+00
    -14.679  0.0000E+00  0.0000E+00
    -14.675  0.0000E+00  0.0000E+00
    -14.671  0.0000E+00  0.0000E+00
    -14.668  0.0000E+00  0.0000E+00
    -14.664  0.0000E+00  0.0000E+00
    -14.660  0.0000E+00  0.0000E+00
    -14.657  0.0000E+00  0.0000E+00
    -14.653  0.0000E+00  0.0000E+00
    -14.649  0.0000E+00  0.0000E+00
    -14.646  0.0000E+00  0.0000E+00
    -14.642  0.0000E+00  0.0000E+00
    -14.638  0.0000E+00  0.0000E+00
    -14.635  0.0000E+00  0.0000E+00
    -14.631  0.0000E+00  0.0000E+00
    -14.627  0.0000E+00  0.0000E+00
    -14.624  0.0000E+00  0.0000E+00
    -14.620  0.0000E+00  0.0000E+00
    -14.616  0.0000E+00  0.0000E+00
    -14.613  0.0000E+00  0.0000E+00
    -14.609  0.0000E+00  0.0000E+00
    -14.605  0.0000E+00  0.0000E+00
    -14.602  0.0000E+00  0.0000E+00
    -14.598  0.0000E+00  0.0000E+00
    -14.594  0.0000E+00  0.0000E+00
    -14.591  0.0000E+00  0.0000E+00
    -14.587  0.0000E+00  0.0000E+00
    -14.583  0.0000E+00  0.0000E+00
    -14.580  0.0000E+00  0.0000E+00
    -14.576  0.0000E+00  0.0000E+00
    -14.573  0.0000E+00  0.0000E+00
    -14.569  0.0000E+00  0.0000E+00
    -14.565  0.0000E+00  0.0000E+00
    -14.562  0.0000E+00  0.0000E+00
    -14.558  0.0000E+00  0.0000E+00
    -14.554  0.0000E+00  0.0000E+00
    -14.551  0.0000E+00  0.0000E+00
    -14.547  0.0000E+00  0.0000E+00
    -14.543  0.0000E+00  0.0000E+00
    -14.540  0.0000E+00  0.0000E+00
    -14.536  0.0000E+00  0.0000E+00
    -14.532  0.0000E+00  0.0000E+00
    -14.529  0.0000E+00  0.0000E+00
    -14.525  0.0000E+00  0.0000E+00
    -14.521  0.0000E+00  0.0000E+00
    -14.518  0.0000E+00  0.0000E+00
    -14.514  0.0000E+00  0.0000E+00
    -14.510  0.0000E+00  0.0000E+00
    -14.507  0.0000E+00  0.0000E+00
    -14.503  0.0000E+00  0.0000E+00
    -14.499  0.0000E+00  0.0000E+00
    -14.496  0.0000E+00  0.0000E+00
    -14.492  0.0000E+00  0.0000E+00
    -14.488  0.0000E+00  0.0000E+00
    -14.485  0.0000E+00  0.0000E+00
    -14.481  0.0000E+00  0.0000E+00
    -14.477  0.0000E+00  0.0000E+00
    -14.474  0.0000E+00  0.0000E+00
    -14.470  0.7514E-15  0.2753E-17
    -14.466  0.5210E-13  0.1936E-15
    -14.463  0.2528E-11  0.9453E-14
    -14.459  0.9407E-10  0.3541E-12
    -14.455  0.2686E-08  0.1020E-10
    -14.452  0.5888E-07  0.2259E-09
    -14.448  0.9906E-06  0.3855E-08
    -14.444  0.1280E-04  0.5074E-07
    -14.441  0.1270E-03  0.5159E-06
    -14.437  0.9679E-03  0.4062E-05
    -14.433  0.5670E-02  0.2483E-04
    -14.430  0.2552E-01  0.1183E-03
    -14.426  0.8833E-01  0.4419E-03
    -14.422  0.2350E+00  0.1303E-02
    -14.419  0.4809E+00  0.3065E-02
    -14.415  0.7568E+00  0.5837E-02
    -14.411  0.9160E+00  0.9193E-02
    -14.408  0.8527E+00  0.1232E-01
    -14.404  0.6105E+00  0.1455E-01
    -14.400  0.3362E+00  0.1579E-01
    -14.397  0.1424E+00  0.1631E-01
    -14.393  0.4636E-01  0.1648E-01
    -14.389  0.1161E-01  0.1652E-01
    -14.386  0.2233E-02  0.1653E-01
    -14.382  0.3303E-03  0.1653E-01
    -14.378  0.3753E-04  0.1653E-01
    -14.375  0.3275E-05  0.1653E-01
    -14.371  0.2201E-06  0.1653E-01
    -14.367  0.2920E-07  0.1653E-01
    -14.364  0.3895E-06  0.1653E-01
    -14.360  0.6490E-05  0.1653E-01
    -14.356  0.8312E-04  0.1653E-01
    -14.353  0.8177E-03  0.1653E-01
    -14.349  0.6179E-02  0.1655E-01
    -14.345  0.3588E-01  0.1669E-01
    -14.342  0.1602E+00  0.1727E-01
    -14.338  0.5495E+00  0.1929E-01
    -14.334  0.1450E+01  0.2460E-01
    -14.331  0.2941E+01  0.3537E-01
    -14.327  0.4588E+01  0.5218E-01
    -14.323  0.5506E+01  0.7235E-01
    -14.320  0.5082E+01  0.9097E-01
    -14.316  0.3607E+01  0.1042E+00
    -14.312  0.1969E+01  0.1114E+00
    -14.309  0.8269E+00  0.1144E+00
    -14.305  0.2670E+00  0.1154E+00
    -14.301  0.6626E-01  0.1156E+00
    -14.298  0.1264E-01  0.1157E+00
    -14.294  0.1853E-02  0.1157E+00
    -14.290  0.2088E-03  0.1157E+00
    -14.287  0.1806E-04  0.1157E+00
    -14.283  0.1200E-05  0.1157E+00
    -14.279  0.6122E-07  0.1157E+00
    -14.276  0.2397E-08  0.1157E+00
    -14.272  0.7201E-10  0.1157E+00
    -14.268  0.1659E-11  0.1157E+00
    -14.265  0.3005E-13  0.1157E+00
    -14.261  0.0000E+00  0.1157E+00
    -14.257  0.0000E+00  0.1157E+00
    -14.254  0.0000E+00  0.1157E+00
    -14.250  0.0000E+00  0.1157E+00
    -14.246  0.0000E+00  0.1157E+00
    -14.243  0.0000E+00  0.1157E+00
    -14.239  0.0000E+00  0.1157E+00
    -14.235  0.0000E+00  0.1157E+00
    -14.232  0.0000E+00  0.1157E+00
    -14.228  0.0000E+00  0.1157E+00
    -14.224  0.0000E+00  0.1157E+00
    -14.221  0.0000E+00  0.1157E+00
    -14.217  0.0000E+00  0.1157E+00
    -14.213  0.0000E+00  0.1157E+00
    -14.210  0.1503E-14  0.1157E+00
    -14.206  0.5410E-13  0.1157E+00
    -14.202  0.2953E-11  0.1157E+00
    -14.199  0.1232E-09  0.1157E+00
    -14.195  0.3943E-08  0.1157E+00
    -14.192  0.9682E-07  0.1157E+00
    -14.188  0.1825E-05  0.1157E+00
    -14.184  0.2641E-04  0.1157E+00
    -14.181  0.2935E-03  0.1157E+00
    -14.177  0.2506E-02  0.1157E+00
    -14.173  0.1644E-01  0.1158E+00
    -14.170  0.8285E-01  0.1161E+00
    -14.166  0.3210E+00  0.1173E+00
    -14.162  0.9563E+00  0.1208E+00
    -14.159  0.2191E+01  0.1288E+00
    -14.155  0.3859E+01  0.1429E+00
    -14.151  0.5229E+01  0.1621E+00
    -14.148  0.5449E+01  0.1820E+00
    -14.144  0.4367E+01  0.1980E+00
    -14.140  0.2692E+01  0.2079E+00
    -14.137  0.1276E+01  0.2126E+00
    -14.133  0.4653E+00  0.2143E+00
    -14.129  0.1304E+00  0.2148E+00
    -14.126  0.2810E-01  0.2149E+00
    -14.122  0.4654E-02  0.2149E+00
    -14.118  0.5922E-03  0.2149E+00
    -14.115  0.5789E-04  0.2149E+00
    -14.111  0.4347E-05  0.2149E+00
    -14.107  0.2725E-06  0.2149E+00
    -14.104  0.4807E-06  0.2149E+00
    -14.100  0.7702E-05  0.2149E+00
    -14.096  0.9699E-04  0.2149E+00
    -14.093  0.9381E-03  0.2149E+00
    -14.089  0.6971E-02  0.2149E+00
    -14.085  0.3980E-01  0.2151E+00
    -14.082  0.1747E+00  0.2157E+00
    -14.078  0.5894E+00  0.2179E+00
    -14.074  0.1529E+01  0.2235E+00
    -14.071  0.3050E+01  0.2346E+00
    -14.067  0.4679E+01  0.2518E+00
    -14.063  0.5521E+01  0.2720E+00
    -14.060  0.5011E+01  0.2903E+00
    -14.056  0.3498E+01  0.3032E+00
    -14.052  0.1878E+01  0.3100E+00
    -14.049  0.7752E+00  0.3129E+00
    -14.045  0.2461E+00  0.3138E+00
    -14.041  0.6006E-01  0.3140E+00
    -14.038  0.1127E-01  0.3140E+00
    -14.034  0.1624E-02  0.3140E+00
    -14.030  0.1799E-03  0.3140E+00
    -14.027  0.1530E-04  0.3140E+00
    -14.023  0.9998E-06  0.3140E+00
    -14.019  0.5014E-07  0.3140E+00
    -14.016  0.1930E-08  0.3140E+00
    -14.012  0.5702E-10  0.3140E+00
    -14.008  0.1292E-11  0.3140E+00
    -14.005  0.2404E-13  0.3140E+00
    -14.001  0.0000E+00  0.3140E+00
    -13.997  0.0000E+00  0.3140E+00
    -13.994  0.0000E+00  0.3140E+00
    -13.990  0.0000E+00  0.3140E+00
    -13.986  0.0000E+00  0.3140E+00
    -13.983  0.0000E+00  0.3140E+00
    -13.979  0.0000E+00  0.3140E+00
    -13.975  0.0000E+00  0.3140E+00
    -13.972  0.0000E+00  0.3140E+00
    -13.968  0.0000E+00  0.3140E+00
    -13.964  0.0000E+00  0.3140E+00
    -13.961  0.0000E+00  0.3140E+00
    -13.957  0.0000E+00  0.3140E+00
    -13.953  0.0000E+00  0.3140E+00
    -13.950  0.0000E+00  0.3140E+00
    -13.946  0.0000E+00  0.3140E+00
    -13.942  0.0000E+00  0.3140E+00
    -13.939  0.0000E+00  0.3140E+00
    -13.935  0.0000E+00  0.3140E+00
    -13.931  0.0000E+00  0.3140E+00
    -13.928  0.0000E+00  0.3140E+00
    -13.924  0.0000E+00  0.3140E+00
    -13.920  0.0000E+00  0.3140E+00
    -13.917  0.0000E+00  0.3140E+00
    -13.913  0.0000E+00  0.3140E+00
    -13.909  0.0000E+00  0.3140E+00
    -13.906  0.0000E+00  0.3140E+00
    -13.902  0.0000E+00  0.3140E+00
    -13.898  0.0000E+00  0.3140E+00
    -13.895  0.0000E+00  0.3140E+00
    -13.891  0.0000E+00  0.3140E+00
    -13.887  0.0000E+00  0.3140E+00
    -13.884  0.0000E+00  0.3140E+00
    -13.880  0.0000E+00  0.3140E+00
    -13.876  0.0000E+00  0.3140E+00
    -13.873  0.0000E+00  0.3140E+00
    -13.869  0.3005E-14  0.3140E+00
    -13.865  0.1563E-12  0.3140E+00
    -13.862  0.8382E-11  0.3140E+00
    -13.858  0.3413E-09  0.3140E+00
    -13.854  0.1066E-07  0.3140E+00
    -13.851  0.2556E-06  0.3140E+00
    -13.847  0.4703E-05  0.3140E+00
    -13.843  0.6645E-04  0.3140E+00
    -13.840  0.7210E-03  0.3141E+00
    -13.836  0.6010E-02  0.3141E+00
    -13.832  0.3849E-01  0.3142E+00
    -13.829  0.1894E+00  0.3149E+00
    -13.825  0.7167E+00  0.3175E+00
    -13.821  0.2085E+01  0.3252E+00
    -13.818  0.4663E+01  0.3423E+00
    -13.814  0.8020E+01  0.3716E+00
    -13.811  0.1061E+02  0.4105E+00
    -13.807  0.1080E+02  0.4501E+00
    -13.803  0.8450E+01  0.4810E+00
    -13.800  0.5086E+01  0.4997E+00
    -13.796  0.2355E+01  0.5083E+00
    -13.792  0.8381E+00  0.5113E+00
    -13.789  0.2294E+00  0.5122E+00
    -13.785  0.4826E-01  0.5124E+00
    -13.781  0.7803E-02  0.5124E+00
    -13.778  0.9694E-03  0.5124E+00
    -13.774  0.9252E-04  0.5124E+00
    -13.770  0.6782E-05  0.5124E+00
    -13.767  0.3817E-06  0.5124E+00
    -13.763  0.1649E-07  0.5124E+00
    -13.759  0.5466E-09  0.5124E+00
    -13.756  0.1390E-10  0.5124E+00
    -13.752  0.2765E-12  0.5124E+00
    -13.748  0.0000E+00  0.5124E+00
    -13.745  0.0000E+00  0.5124E+00
    -13.741  0.0000E+00  0.5124E+00
    -13.737  0.0000E+00  0.5124E+00
    -13.734  0.0000E+00  0.5124E+00
    -13.730  0.0000E+00  0.5124E+00
    -13.726  0.0000E+00  0.5124E+00
    -13.723  0.0000E+00  0.5124E+00
    -13.719  0.0000E+00  0.5124E+00
    -13.715  0.0000E+00  0.5124E+00
    -13.712  0.0000E+00  0.5124E+00
    -13.708  0.0000E+00  0.5124E+00
    -13.704  0.3005E-14  0.5124E+00
    -13.701  0.1563E-12  0.5124E+00
    -13.697  0.7981E-11  0.5124E+00
    -13.693  0.3108E-09  0.5124E+00
    -13.690  0.9283E-08  0.5124E+00
    -13.686  0.2128E-06  0.5124E+00
    -13.682  0.3746E-05  0.5124E+00
    -13.679  0.5061E-04  0.5124E+00
    -13.675  0.5253E-03  0.5124E+00
    -13.671  0.4188E-02  0.5124E+00
    -13.668  0.2565E-01  0.5125E+00
    -13.664  0.1208E+00  0.5130E+00
    -13.660  0.4371E+00  0.5146E+00
    -13.657  0.1216E+01  0.5190E+00
    -13.653  0.2602E+01  0.5285E+00
    -13.649  0.4282E+01  0.5442E+00
    -13.646  0.5420E+01  0.5641E+00
    -13.642  0.5276E+01  0.5834E+00
    -13.638  0.3950E+01  0.5979E+00
    -13.635  0.2275E+01  0.6062E+00
    -13.631  0.1007E+01  0.6099E+00
    -13.627  0.3430E+00  0.6112E+00
    -13.624  0.8980E-01  0.6115E+00
    -13.620  0.1807E-01  0.6116E+00
    -13.616  0.2795E-02  0.6116E+00
    -13.613  0.3321E-03  0.6116E+00
    -13.609  0.3032E-04  0.6116E+00
    -13.605  0.2125E-05  0.6116E+00
    -13.602  0.1144E-06  0.6116E+00
    -13.598  0.4726E-08  0.6116E+00
    -13.594  0.1498E-09  0.6116E+00
    -13.591  0.3646E-11  0.6116E+00
    -13.587  0.6913E-13  0.6116E+00
    -13.583  0.0000E+00  0.6116E+00
    -13.580  0.0000E+00  0.6116E+00
    -13.576  0.0000E+00  0.6116E+00
    -13.572  0.0000E+00  0.6116E+00
    -13.569  0.0000E+00  0.6116E+00
    -13.565  0.0000E+00  0.6116E+00
    -13.561  0.0000E+00  0.6116E+00
    -13.558  0.0000E+00  0.6116E+00
    -13.554  0.0000E+00  0.6116E+00
    -13.550  0.0000E+00  0.6116E+00
    -13.547  0.0000E+00  0.6116E+00
    -13.543  0.0000E+00  0.6116E+00
    -13.539  0.0000E+00  0.6116E+00
    -13.536  0.0000E+00  0.6116E+00
    -13.532  0.0000E+00  0.6116E+00
    -13.528  0.0000E+00  0.6116E+00
    -13.525  0.0000E+00  0.6116E+00
    -13.521  0.0000E+00  0.6116E+00
    -13.517  0.0000E+00  0.6116E+00
    -13.514  0.0000E+00  0.6116E+00
    -13.510  0.0000E+00  0.6116E+00
    -13.506  0.0000E+00  0.6116E+00
    -13.503  0.0000E+00  0.6116E+00
    -13.499  0.0000E+00  0.6116E+00
    -13.495  0.0000E+00  0.6116E+00
    -13.492  0.0000E+00  0.6116E+00
    -13.488  0.0000E+00  0.6116E+00
    -13.484  0.0000E+00  0.6116E+00
    -13.481  0.0000E+00  0.6116E+00
    -13.477  0.0000E+00  0.6116E+00
    -13.473  0.0000E+00  0.6116E+00
    -13.470  0.0000E+00  0.6116E+00
    -13.466  0.0000E+00  0.6116E+00
    -13.462  0.0000E+00  0.6116E+00
    -13.459  0.1503E-14  0.6116E+00
    -13.455  0.7814E-13  0.6116E+00
    -13.451  0.4148E-11  0.6116E+00
    -13.448  0.1690E-09  0.6116E+00
    -13.444  0.5283E-08  0.6116E+00
    -13.440  0.1268E-06  0.6116E+00
    -13.437  0.2334E-05  0.6116E+00
    -13.433  0.3300E-04  0.6116E+00
    -13.430  0.3583E-03  0.6116E+00
    -13.426  0.2989E-02  0.6116E+00
    -13.422  0.1916E-01  0.6117E+00
    -13.419  0.9435E-01  0.6120E+00
    -13.415  0.3572E+00  0.6133E+00
    -13.411  0.1040E+01  0.6171E+00
    -13.408  0.2327E+01  0.6256E+00
    -13.404  0.4006E+01  0.6403E+00
    -13.400  0.5303E+01  0.6597E+00
    -13.397  0.5400E+01  0.6795E+00
    -13.393  0.4229E+01  0.6950E+00
    -13.389  0.2547E+01  0.7044E+00
    -13.386  0.1180E+01  0.7087E+00
    -13.382  0.4204E+00  0.7102E+00
    -13.378  0.1151E+00  0.7106E+00
    -13.375  0.2424E-01  0.7107E+00
    -13.371  0.3922E-02  0.7107E+00
    -13.367  0.4877E-03  0.7107E+00
    -13.364  0.4823E-04  0.7107E+00
    -13.360  0.2933E-04  0.7107E+00
    -13.356  0.3100E-03  0.7107E+00
    -13.353  0.2845E-02  0.7108E+00
    -13.349  0.2007E-01  0.7108E+00
    -13.345  0.1088E+00  0.7112E+00
    -13.342  0.4534E+00  0.7129E+00
    -13.338  0.1452E+01  0.7182E+00
    -13.334  0.3577E+01  0.7313E+00
    -13.331  0.6776E+01  0.7561E+00
    -13.327  0.9871E+01  0.7923E+00
    -13.323  0.1106E+02  0.8328E+00
    -13.320  0.9532E+01  0.8677E+00
    -13.316  0.6318E+01  0.8909E+00
    -13.312  0.3221E+01  0.9027E+00
    -13.309  0.1263E+01  0.9073E+00
    -13.305  0.3806E+00  0.9087E+00
    -13.301  0.8818E-01  0.9090E+00
    -13.298  0.1571E-01  0.9091E+00
    -13.294  0.2149E-02  0.9091E+00
    -13.290  0.2260E-03  0.9091E+00
    -13.287  0.1825E-04  0.9091E+00
    -13.283  0.1132E-05  0.9091E+00
    -13.279  0.5388E-07  0.9091E+00
    -13.276  0.1969E-08  0.9091E+00
    -13.272  0.5520E-10  0.9091E+00
    -13.268  0.1184E-11  0.9091E+00
    -13.265  0.2404E-13  0.9091E+00
    -13.261  0.0000E+00  0.9091E+00
    -13.257  0.0000E+00  0.9091E+00
    -13.254  0.0000E+00  0.9091E+00
    -13.250  0.0000E+00  0.9091E+00
    -13.246  0.0000E+00  0.9091E+00
    -13.243  0.0000E+00  0.9091E+00
    -13.239  0.0000E+00  0.9091E+00
    -13.235  0.0000E+00  0.9091E+00
    -13.232  0.0000E+00  0.9091E+00
    -13.228  0.0000E+00  0.9091E+00
    -13.224  0.0000E+00  0.9091E+00
    -13.221  0.0000E+00  0.9091E+00
    -13.217  0.0000E+00  0.9091E+00
    -13.213  0.0000E+00  0.9091E+00
    -13.210  0.0000E+00  0.9091E+00
    -13.206  0.0000E+00  0.9091E+00
    -13.202  0.0000E+00  0.9091E+00
    -13.199  0.0000E+00  0.9091E+00
    -13.195  0.0000E+00  0.9091E+00
    -13.191  0.0000E+00  0.9091E+00
    -13.188  0.0000E+00  0.9091E+00
    -13.184  0.0000E+00  0.9091E+00
    -13.180  0.0000E+00  0.9091E+00
    -13.177  0.0000E+00  0.9091E+00
    -13.173  0.0000E+00  0.9091E+00
    -13.169  0.0000E+00  0.9091E+00
    -13.166  0.1503E-14  0.9091E+00
    -13.162  0.1142E-12  0.9091E+00
    -13.158  0.5877E-11  0.9091E+00
    -13.155  0.2338E-09  0.9091E+00
    -13.151  0.7135E-08  0.9091E+00
    -13.147  0.1671E-06  0.9091E+00
    -13.144  0.3004E-05  0.9091E+00
    -13.140  0.4146E-04  0.9091E+00
    -13.136  0.4395E-03  0.9091E+00
    -13.133  0.3579E-02  0.9091E+00
    -13.129  0.2239E-01  0.9092E+00
    -13.125  0.1077E+00  0.9096E+00
    -13.122  0.3980E+00  0.9110E+00
    -13.118  0.1131E+01  0.9152E+00
    -13.114  0.2472E+01  0.9242E+00
    -13.111  0.4154E+01  0.9395E+00
    -13.107  0.5370E+01  0.9591E+00
    -13.103  0.5339E+01  0.9787E+00
    -13.100  0.4082E+01  0.9936E+00
    -13.096  0.2401E+01  0.1002E+01
    -13.092  0.1086E+01  0.1006E+01
    -13.089  0.3777E+00  0.1008E+01
    -13.085  0.1010E+00  0.1008E+01
    -13.081  0.2076E-01  0.1008E+01
    -13.078  0.3279E-02  0.1008E+01
    -13.074  0.3980E-03  0.1008E+01
    -13.070  0.3711E-04  0.1008E+01
    -13.067  0.2657E-05  0.1008E+01
    -13.063  0.1461E-06  0.1008E+01
    -13.059  0.6166E-08  0.1008E+01
    -13.056  0.1997E-09  0.1008E+01
    -13.052  0.4962E-11  0.1008E+01
    -13.049  0.9618E-13  0.1008E+01
    -13.045  0.0000E+00  0.1008E+01
    -13.041  0.0000E+00  0.1008E+01
    -13.038  0.0000E+00  0.1008E+01
    -13.034  0.0000E+00  0.1008E+01
    -13.030  0.0000E+00  0.1008E+01
    -13.027  0.0000E+00  0.1008E+01
    -13.023  0.0000E+00  0.1008E+01
    -13.019  0.0000E+00  0.1008E+01
    -13.016  0.0000E+00  0.1008E+01
    -13.012  0.0000E+00  0.1008E+01
    -13.008  0.0000E+00  0.1008E+01
    -13.005  0.0000E+00  0.1008E+01
    -13.001  0.0000E+00  0.1008E+01
    -12.997  0.0000E+00  0.1008E+01
    -12.994  0.0000E+00  0.1008E+01
    -12.990  0.0000E+00  0.1008E+01
    -12.986  0.0000E+00  0.1008E+01
    -12.983  0.0000E+00  0.1008E+01
    -12.979  0.0000E+00  0.1008E+01
    -12.975  0.0000E+00  0.1008E+01
    -12.972  0.0000E+00  0.1008E+01
    -12.968  0.0000E+00  0.1008E+01
    -12.964  0.0000E+00  0.1008E+01
    -12.961  0.0000E+00  0.1008E+01
    -12.957  0.0000E+00  0.1008E+01
    -12.953  0.0000E+00  0.1008E+01
    -12.950  0.0000E+00  0.1008E+01
    -12.946  0.0000E+00  0.1008E+01
    -12.942  0.0000E+00  0.1008E+01
    -12.939  0.0000E+00  0.1008E+01
    -12.935  0.0000E+00  0.1008E+01
    -12.931  0.0000E+00  0.1008E+01
    -12.928  0.0000E+00  0.1008E+01
    -12.924  0.3005E-13  0.1008E+01
    -12.920  0.1674E-11  0.1008E+01
    -12.917  0.7617E-10  0.1008E+01
    -12.913  0.2655E-08  0.1008E+01
    -12.909  0.7100E-07  0.1008E+01
    -12.906  0.1457E-05  0.1008E+01
    -12.902  0.2297E-04  0.1008E+01
    -12.898  0.2779E-03  0.1008E+01
    -12.895  0.2583E-02  0.1008E+01
    -12.891  0.1845E-01  0.1008E+01
    -12.887  0.1012E+00  0.1009E+01
    -12.884  0.4269E+00  0.1010E+01
    -12.880  0.1384E+01  0.1015E+01
    -12.876  0.3451E+01  0.1028E+01
    -12.873  0.6617E+01  0.1052E+01
    -12.869  0.9757E+01  0.1088E+01
    -12.865  0.1107E+02  0.1129E+01
    -12.862  0.9653E+01  0.1164E+01
    -12.858  0.6476E+01  0.1188E+01
    -12.854  0.3342E+01  0.1200E+01
    -12.851  0.1326E+01  0.1205E+01
    -12.847  0.4046E+00  0.1206E+01
    -12.843  0.9489E-01  0.1207E+01
    -12.840  0.1711E-01  0.1207E+01
    -12.836  0.2370E-02  0.1207E+01
    -12.832  0.2522E-03  0.1207E+01
    -12.829  0.2062E-04  0.1207E+01
    -12.825  0.1294E-05  0.1207E+01
    -12.821  0.6237E-07  0.1207E+01
    -12.818  0.2309E-08  0.1207E+01
    -12.814  0.1475E-09  0.1207E+01
    -12.810  0.2845E-08  0.1207E+01
    -12.807  0.7565E-07  0.1207E+01
    -12.803  0.1545E-05  0.1207E+01
    -12.799  0.2421E-04  0.1207E+01
    -12.796  0.2914E-03  0.1207E+01
    -12.792  0.2694E-02  0.1207E+01
    -12.788  0.1914E-01  0.1207E+01
    -12.785  0.1045E+00  0.1207E+01
    -12.781  0.4383E+00  0.1209E+01
    -12.777  0.1414E+01  0.1214E+01
    -12.774  0.3506E+01  0.1227E+01
    -12.770  0.6686E+01  0.1251E+01
    -12.766  0.9807E+01  0.1287E+01
    -12.763  0.1106E+02  0.1328E+01
    -12.759  0.9601E+01  0.1363E+01
    -12.755  0.6407E+01  0.1386E+01
    -12.752  0.3289E+01  0.1398E+01
    -12.748  0.1298E+01  0.1403E+01
    -12.744  0.3939E+00  0.1405E+01
    -12.741  0.9191E-01  0.1405E+01
    -12.737  0.1648E-01  0.1405E+01
    -12.733  0.2271E-02  0.1405E+01
    -12.730  0.2404E-03  0.1405E+01
    -12.726  0.1955E-04  0.1405E+01
    -12.722  0.1221E-05  0.1405E+01
    -12.719  0.5852E-07  0.1405E+01
    -12.715  0.2153E-08  0.1405E+01
    -12.711  0.6078E-10  0.1405E+01
    -12.708  0.1310E-11  0.1405E+01
    -12.704  0.2404E-13  0.1405E+01
    -12.700  0.0000E+00  0.1405E+01
    -12.697  0.0000E+00  0.1405E+01
    -12.693  0.0000E+00  0.1405E+01
    -12.689  0.0000E+00  0.1405E+01
    -12.686  0.0000E+00  0.1405E+01
    -12.682  0.0000E+00  0.1405E+01
    -12.678  0.0000E+00  0.1405E+01
    -12.675  0.0000E+00  0.1405E+01
    -12.671  0.0000E+00  0.1405E+01
    -12.668  0.0000E+00  0.1405E+01
    -12.664  0.0000E+00  0.1405E+01
    -12.660  0.0000E+00  0.1405E+01
    -12.657  0.0000E+00  0.1405E+01
    -12.653  0.1503E-14  0.1405E+01
    -12.649  0.5710E-13  0.1405E+01
    -12.646  0.3135E-11  0.1405E+01
    -12.642  0.1302E-09  0.1405E+01
    -12.638  0.4149E-08  0.1405E+01
    -12.635  0.1015E-06  0.1405E+01
    -12.631  0.1905E-05  0.1405E+01
    -12.627  0.2746E-04  0.1405E+01
    -12.624  0.3039E-03  0.1405E+01
    -12.620  0.2584E-02  0.1405E+01
    -12.616  0.1688E-01  0.1405E+01
    -12.613  0.8476E-01  0.1405E+01
    -12.609  0.3271E+00  0.1407E+01
    -12.605  0.9705E+00  0.1410E+01
    -12.602  0.2214E+01  0.1418E+01
    -12.598  0.3885E+01  0.1432E+01
    -12.594  0.5242E+01  0.1452E+01
    -12.591  0.5441E+01  0.1472E+01
    -12.587  0.4343E+01  0.1487E+01
    -12.583  0.2667E+01  0.1497E+01
    -12.580  0.1259E+01  0.1502E+01
    -12.576  0.4572E+00  0.1504E+01
    -12.572  0.1276E+00  0.1504E+01
    -12.569  0.2739E-01  0.1504E+01
    -12.565  0.4518E-02  0.1504E+01
    -12.561  0.5726E-03  0.1504E+01
    -12.558  0.5575E-04  0.1504E+01
    -12.554  0.4168E-05  0.1504E+01
    -12.550  0.2393E-06  0.1504E+01
    -12.547  0.1055E-07  0.1504E+01
    -12.543  0.3567E-09  0.1504E+01
    -12.539  0.9257E-11  0.1504E+01
    -12.536  0.1833E-12  0.1504E+01
    -12.532  0.3005E-14  0.1504E+01
    -12.528  0.0000E+00  0.1504E+01
    -12.525  0.0000E+00  0.1504E+01
    -12.521  0.0000E+00  0.1504E+01
    -12.517  0.0000E+00  0.1504E+01
    -12.514  0.0000E+00  0.1504E+01
    -12.510  0.0000E+00  0.1504E+01
    -12.506  0.0000E+00  0.1504E+01
    -12.503  0.0000E+00  0.1504E+01
    -12.499  0.0000E+00  0.1504E+01
    -12.495  0.0000E+00  0.1504E+01
    -12.492  0.0000E+00  0.1504E+01
    -12.488  0.0000E+00  0.1504E+01
    -12.484  0.4508E-14  0.1504E+01
    -12.481  0.3021E-12  0.1504E+01
    -12.477  0.1467E-10  0.1504E+01
    -12.473  0.5474E-09  0.1504E+01
    -12.470  0.1567E-07  0.1504E+01
    -12.466  0.3442E-06  0.1504E+01
    -12.462  0.5805E-05  0.1504E+01
    -12.459  0.7517E-04  0.1504E+01
    -12.455  0.7476E-03  0.1504E+01
    -12.451  0.5712E-02  0.1504E+01
    -12.448  0.3353E-01  0.1504E+01
    -12.444  0.1513E+00  0.1505E+01
    -12.440  0.5248E+00  0.1507E+01
    -12.437  0.1400E+01  0.1512E+01
    -12.433  0.2871E+01  0.1522E+01
    -12.429  0.4528E+01  0.1539E+01
    -12.426  0.5493E+01  0.1559E+01
    -12.422  0.5125E+01  0.1578E+01
    -12.418  0.3678E+01  0.1591E+01
    -12.415  0.2030E+01  0.1599E+01
    -12.411  0.8617E+00  0.1602E+01
    -12.407  0.2813E+00  0.1603E+01
    -12.404  0.7057E-01  0.1603E+01
    -12.400  0.1361E-01  0.1603E+01
    -12.396  0.2018E-02  0.1603E+01
    -12.393  0.2298E-03  0.1603E+01
    -12.389  0.2010E-04  0.1603E+01