    2    2    1    1
  0.1758356E+03  0.4113367E-09  0.4113367E-09  0.2400000E-08  0.5000000E-15
  1.000000000000000E-004
  CAR 
 unknown system                          
     10     16     16
 
  0.0000000E+00  0.0000000E+00  0.0000000E+00  0.8264463E-02
      1        -14.412315   1.000000
      2         -9.439234   1.000000
      3         -3.738062   1.000000
      4         -3.131375   1.000000
      5         -3.131374   1.000000
      6         -1.564954   0.000000
      7         -0.341120   0.000000
      8         -0.341119   0.000000
      9          1.160337   0.000000
     10          1.400387   0.000000
     11          1.944581   0.000000
     12          2.340250   0.000000
     13          3.216033   0.000000
     14          3.797086   0.000000
     15          3.996967   0.000000
     16          5.037361   0.000000
 
  0.9090909E-01  0.0000000E+00  0.0000000E+00  0.4958678E-01
      1        -14.324512   1.000000
      2         -9.436481   1.000000
      3         -3.956885   1.000000
      4         -3.700055   1.000000
      5         -3.330382   1.000000
      6         -1.044105   0.000000
      7         -0.412790   0.000000
      8         -0.150058   0.000000
      9          1.278810   0.000000
     10          1.500318   0.000000
     11          2.040942   0.000000
     12          2.440701   0.000000
     13          3.298446   0.000000
     14          3.892841   0.000000
     15          4.026311   0.000000
     16          4.622272   0.000000
 
  0.1818182E+00  0.0000000E+00  0.0000000E+00  0.4958678E-01
      1        -14.064640   1.000000
      2         -9.477179   1.000000
      3         -5.102415   1.000000
      4         -3.753795   1.000000
      5         -3.634587   1.000000
      6         -1.451913   0.000000
      7          0.193021   0.000000
      8          0.236689   0.000000
      9          1.543814   0.000000
     10          1.795627   0.000000
     11          2.311367   0.000000
     12          2.712976   0.000000
     13          3.233818   0.000000
     14          3.845589   0.000000
     15          4.201886   0.000000
     16          4.587495   0.000000
 
  0.2727273E+00 -0.2775558E-16  0.0000000E+00  0.4958678E-01
      1        -13.646028   1.000000
      2         -9.707070   1.000000
      3         -5.903996   1.000000
      4         -4.177987   1.000000
      5         -3.723493   1.000000
      6         -1.845240   0.000000
      7          0.240378   0.000000
      8          0.397363   0.000000
      9          1.868733   0.000000
     10          2.207359   0.000000
     11          2.727609   0.000000
     12          3.129714   0.000000
     13          3.386011   0.000000
     14          4.285613   0.000000
     15          4.542115   0.000000
     16          4.771149   0.000000
 
  0.3636364E+00  0.0000000E+00  0.0000000E+00  0.4958678E-01
      1        -13.107204   1.000000
      2        -10.226718   1.000000
      3         -6.174949   1.000000
      4         -4.495840   1.000000
      5         -4.112799   1.000000
      6         -1.807014   0.000000
      7         -0.233953   0.000000
      8          0.437129   0.000000
      9          2.260248   0.000000
     10          2.504924   0.000000
     11          3.186701   0.000000
     12          3.637460   0.000000
     13          3.844546   0.000000
     14          4.590615   0.000000
     15          5.161108   0.000000
     16          5.243383   0.000000
 
  0.4545455E+00  0.5551115E-16  0.0000000E+00  0.4958678E-01
      1        -12.593719   1.000000
      2        -10.801800   1.000000
      3         -6.103429   1.000000
      4         -4.663156   1.000000
      5         -4.524358   1.000000
      6         -1.564541   0.000000
      7         -0.628397   0.000000
      8          0.420783   0.000000
      9          2.000330   0.000000
     10          3.323903   0.000000
     11          3.807216   0.000000
     12          4.191697   0.000000
     13          4.443096   0.000000
     14          4.698319   0.000000
     15          4.738244   0.000000
     16          5.154650   0.000000
 
  0.9090909E-01  0.9090909E-01  0.0000000E+00  0.4958678E-01
      1        -14.150635   1.000000
      2         -9.454547   1.000000
      3         -4.758531   1.000000
      4         -3.793050   1.000000
      5         -3.631126   1.000000
      6         -0.804544   0.000000
      7         -0.596383   0.000000
      8          0.367724   0.000000
      9          1.499570   0.000000
     10          1.675684   0.000000
     11          2.215250   0.000000
     12          2.635101   0.000000
     13          3.197188   0.000000
     14          3.848765   0.000000
     15          4.079438   0.000000
     16          4.656548   0.000000
 
  0.1818182E+00  0.9090909E-01  0.0000000E+00  0.9917355E-01
      1        -13.810265   1.000000
      2         -9.586652   1.000000
      3         -5.576705   1.000000
      4         -4.387262   1.000000
      5         -3.613170   1.000000
      6         -1.260720   0.000000
      7         -0.123489   0.000000
      8          0.556514   0.000000
      9          1.773812   0.000000
     10          2.029525   0.000000
     11          2.539705   0.000000
     12          2.971819   0.000000
     13          3.146175   0.000000
     14          4.106737   0.000000
     15          4.414016   0.000000
     16          4.562117   0.000000
 
  0.2727273E+00  0.9090909E-01  0.0000000E+00  0.9917355E-01
      1        -13.325343   1.000000
      2         -9.973734   1.000000
      3         -6.045475   1.000000
      4         -4.826760   1.000000
      5         -3.817794   1.000000
      6         -1.476627   0.000000
      7          0.065410   0.000000
      8          0.205185   0.000000
      9          2.222720   0.000000
     10          2.432034   0.000000
     11          2.989495   0.000000
     12          3.426390   0.000000
     13          3.589169   0.000000
     14          4.453613   0.000000
     15          4.629332   0.000000
     16          5.023611   0.000000
 
  0.3636364E+00  0.9090909E-01  0.0000000E+00  0.9917355E-01
      1        -12.764738   1.000000
      2        -10.570847   1.000000
      3         -6.129706   1.000000
      4         -5.013292   1.000000
      5         -4.266772   1.000000
      6         -1.305397   0.000000
      7         -0.400982   0.000000
      8          0.209022   0.000000
      9          2.252848   0.000000
     10          2.987057   0.000000
     11          3.582888   0.000000
     12          4.037097   0.000000
     13          4.324274   0.000000
     14          4.679125   0.000000
     15          5.096935   0.000000
     16          5.204806   0.000000
 
  0.4545455E+00  0.9090909E-01  0.0000000E+00  0.4958678E-01
      1        -12.426685   1.000000
      2        -10.944946   1.000000
      3         -6.101356   1.000000
      4         -4.968097   1.000000
      5         -4.588191   1.000000
      6         -1.003964   0.000000
      7         -0.795953   0.000000
      8          0.237269   0.000000
      9          2.064087   0.000000
     10          3.885350   0.000000
     11          3.890218   0.000000
     12          4.239643   0.000000
     13          4.530669   0.000000
     14          4.814183   0.000000
     15          4.954535   0.000000
     16          5.288119   0.000000
 
  0.1818182E+00  0.1818182E+00  0.0000000E+00  0.4958678E-01
      1        -13.399947   1.000000
      2         -9.879636   1.000000
      3         -5.830012   1.000000
      4         -5.221612   1.000000
      5         -3.709199   1.000000
      6         -0.908756   0.000000
      7         -0.473431   0.000000
      8          0.619671   0.000000
      9          2.243674   0.000000
     10          2.284729   0.000000
     11          2.861250   0.000000
     12          3.299887   0.000000
     13          3.480293   0.000000
     14          4.121129   0.000000
     15          4.514482   0.000000
     16          4.944327   0.000000
 
  0.2727273E+00  0.1818182E+00  0.0000000E+00  0.9917355E-01
      1        -12.867241   1.000000
      2        -10.391868   1.000000
      3         -5.999168   1.000000
      4         -5.589619   1.000000
      5         -4.035108   1.000000
      6         -0.978533   0.000000
      7         -0.497291   0.000000
      8          0.540686   0.000000
      9          2.645960   0.000000
     10          2.855058   0.000000
     11          3.421751   0.000000
     12          3.856704   0.000000
     13          3.980301   0.000000
     14          4.165271   0.000000
     15          4.764676   0.000000
     16          5.497715   0.000000
 
  0.3636364E+00  0.1818182E+00  0.0000000E+00  0.9917355E-01
      1        -12.335851   1.000000
      2        -10.950606   1.000000
      3         -6.260115   1.000000
      4         -5.330085   1.000000
      5         -4.491226   1.000000
      6         -1.147190   0.000000
      7         -0.185944   0.000000
      8          0.251848   0.000000
      9          2.525606   0.000000
     10          3.657113   0.000000
     11          4.042162   0.000000
     12          4.363912   0.000000
     13          4.628852   0.000000
     14          4.728591   0.000000
     15          5.017525   0.000000
     16          5.265512   0.000000
 
  0.2727273E+00  0.2727273E+00  0.0000000E+00  0.4958678E-01
      1        -12.314872   1.000000
      2        -10.922124   1.000000
      3         -6.381631   1.000000
      4         -5.450277   1.000000
      5         -4.399187   1.000000
      6         -1.348541   0.000000
      7         -0.139736   0.000000
      8          0.707179   0.000000
      9          3.363455   0.000000
     10          3.499482   0.000000
     11          3.723290   0.000000
     12          3.852669   0.000000
     13          4.345577   0.000000
     14          4.847973   0.000000
     15          4.929651   0.000000
     16          5.570215   0.000000
 
  0.3636364E+00  0.2727273E+00  0.0000000E+00  0.4958678E-01
      1        -11.894159   1.000000
      2        -11.336355   1.000000
      3         -6.582523   1.000000
      4         -5.122502   1.000000
      5         -4.732593   1.000000
      6         -1.552854   0.000000
      7          0.282746   0.000000
      8          0.478218   0.000000
      9          3.433532   0.000000
     10          3.613609   0.000000
     11          4.431575   0.000000
     12          4.496691   0.000000
     13          4.666738   0.000000
     14          5.254801   0.000000
     15          5.260809   0.000000
     16          5.320327   0.000000
