 running   16 mpi-ranks, on    1 nodes
 distrk:  each k-point on   16 cores,    1 groups
 distr:  one band on    1 cores,   16 groups
 vasp.6.4.2 20Jul23 (build Nov 14 2023 12:59:38) complex                        
  
 POSCAR found type information on POSCAR Sb
 POSCAR found :  1 types and       2 ions
 Reading from existing POTCAR
 scaLAPACK will be used
 -----------------------------------------------------------------------------
|                                                                             |
|           W    W    AA    RRRRR   N    N  II  N    N   GGGG   !!!           |
|           W    W   A  A   R    R  NN   N  II  NN   N  G    G  !!!           |
|           W    W  A    A  R    R  N N  N  II  N N  N  G       !!!           |
|           W WW W  AAAAAA  RRRRR   N  N N  II  N  N N  G  GGG   !            |
|           WW  WW  A    A  R   R   N   NN  II  N   NN  G    G                |
|           W    W  A    A  R    R  N    N  II  N    N   GGGG   !!!           |
|                                                                             |
|     For optimal performance we recommend to set                             |
|       NCORE = 2 up to number-of-cores-per-socket                            |
|     NCORE specifies how many cores store one orbital (NPAR=cpu/NCORE).      |
|     This setting can greatly improve the performance of VASP for DFT.       |
|     The default, NCORE=1 might be grossly inefficient on modern             |
|     multi-core architectures or massively parallel machines. Do your        |
|     own testing! More info at https://www.vasp.at/wiki/index.php/NCORE      |
|     Unfortunately you need to use the default for GW and RPA                |
|     calculations (for HF NCORE is supported but not extensively tested      |
|     yet).                                                                   |
|                                                                             |
 -----------------------------------------------------------------------------

 Reading from existing POTCAR
 LDA part: xc-table for Pade appr. of Perdew
 POSCAR, INCAR and KPOINTS ok, starting setup
 FFT: planning ... GRIDC
 FFT: planning ... GRID_SOFT
 FFT: planning ... GRID
 WAVECAR not read
 entering main loop
       N       E                     dE             d eps       ncg     rms          rms(c)
DAV:   1     0.245776911294E+02    0.24578E+02   -0.20024E+03   528   0.185E+02
DAV:   2    -0.740780293399E+01   -0.31985E+02   -0.31399E+02   736   0.461E+01
DAV:   3    -0.816057903471E+01   -0.75278E+00   -0.75278E+00   560   0.983E+00
DAV:   4    -0.816628443908E+01   -0.57054E-02   -0.57054E-02   960   0.112E+00
DAV:   5    -0.816629203200E+01   -0.75929E-05   -0.75929E-05   608   0.313E-02
DAV:   6    -0.816629208228E+01   -0.50281E-07   -0.50403E-07   992   0.247E-03
DAV:   7    -0.816629208229E+01   -0.50591E-11   -0.29268E-10   656   0.559E-05
DAV:   8    -0.816629208228E+01    0.44906E-11   -0.11325E-11   976   0.584E-06
DAV:   9    -0.816629208228E+01    0.22737E-12    0.34980E-12   560   0.187E-07
DAV:  10    -0.816629208228E+01    0.00000E+00    0.27100E-12   560   0.465E-08
DAV:  11    -0.816629208228E+01    0.00000E+00    0.35738E-12   368   0.213E-08
DAV:  12    -0.816629208228E+01    0.22737E-12    0.45737E-12   400   0.131E-08    0.159E+00
DAV:  13    -0.815086102316E+01    0.15431E-01   -0.35584E-03   784   0.186E-01    0.141E+00
DAV:  14    -0.812157795685E+01    0.29283E-01   -0.17296E-01   784   0.111E+00    0.206E-01
DAV:  15    -0.811792024540E+01    0.36577E-02   -0.11516E-02   848   0.322E-01    0.847E-02
DAV:  16    -0.811740434250E+01    0.51590E-03   -0.36586E-03   864   0.168E-01    0.458E-02
DAV:  17    -0.811730098167E+01    0.10336E-03   -0.70871E-04   736   0.814E-02    0.217E-02
DAV:  18    -0.811730864988E+01   -0.76682E-05   -0.10333E-04   720   0.336E-02    0.488E-03
DAV:  19    -0.811730857340E+01    0.76478E-07   -0.29284E-06   608   0.714E-03
   1 F= -.81173086E+01 E0= -.81173086E+01  d E =-.424388E-12
 Linear response reoptimize wavefunctions to high precision
DAV:   1    -0.811730858104E+01   -0.76420E-08   -0.76422E-08   848   0.107E-03
DAV:   2    -0.811730858105E+01   -0.15234E-10   -0.14840E-10   640   0.411E-05
 Linear response G [H, r] |phi>, progress :
  Direction:   1
       N       E                     dE             d eps       ncg     rms
RMM:   1    -0.443427489368E+02   -0.44343E+02   -0.16380E+03   533   0.413E+02
RMM:   2    -0.500160306173E+02   -0.56733E+01   -0.10888E+01  1109   0.148E+01
RMM:   3    -0.506055946629E+02   -0.58956E+00   -0.60500E-01  1098   0.403E+00
RMM:   4    -0.506359719842E+02   -0.30377E-01   -0.37797E-02  1095   0.787E-01
RMM:   5    -0.506364171948E+02   -0.44521E-03   -0.21189E-03  1133   0.227E-01
RMM:   6    -0.506364858603E+02   -0.68665E-04   -0.30804E-04  1114   0.684E-02
RMM:   7    -0.506364892009E+02   -0.33406E-05   -0.27197E-05  1142   0.238E-02
RMM:   8    -0.506364900122E+02   -0.81129E-06   -0.55145E-06  1098   0.779E-03
 Linear response G [H, r] |phi>, progress :
  Direction:   2
       N       E                     dE             d eps       ncg     rms
RMM:   1    -0.440789886169E+02   -0.44079E+02   -0.18468E+03   545   0.399E+02
RMM:   2    -0.586528487215E+02   -0.14574E+02   -0.97609E+00  1092   0.145E+01
RMM:   3    -0.592697000060E+02   -0.61685E+00   -0.34407E-01  1084   0.352E+00
RMM:   4    -0.592981675392E+02   -0.28468E-01   -0.28818E-02  1093   0.754E-01
RMM:   5    -0.592990506345E+02   -0.88310E-03   -0.15118E-03  1138   0.207E-01
RMM:   6    -0.592991187159E+02   -0.68081E-04   -0.20762E-04  1123   0.570E-02
RMM:   7    -0.592991215164E+02   -0.28005E-05   -0.16521E-05  1143   0.186E-02
RMM:   8    -0.592991219111E+02   -0.39479E-06   -0.23183E-06  1116   0.582E-03
 Linear response G [H, r] |phi>, progress :
  Direction:   3
       N       E                     dE             d eps       ncg     rms
RMM:   1    -0.541114879928E+02   -0.54111E+02   -0.19487E+03   574   0.395E+02
RMM:   2    -0.555945504734E+02   -0.14831E+01   -0.14370E+01  1088   0.150E+01
RMM:   3    -0.561064277138E+02   -0.51188E+00   -0.42017E-01  1087   0.327E+00
RMM:   4    -0.561229427998E+02   -0.16515E-01   -0.38211E-02  1098   0.806E-01
RMM:   5    -0.561238405055E+02   -0.89771E-03   -0.22677E-03  1144   0.214E-01
RMM:   6    -0.561239078680E+02   -0.67362E-04   -0.27933E-04  1144   0.629E-02
RMM:   7    -0.561239150513E+02   -0.71833E-05   -0.27255E-05  1149   0.213E-02
RMM:   8    -0.561239158749E+02   -0.82358E-06   -0.42694E-06  1102   0.736E-03
 Linear response to external field (no local field effect), progress :
  Direction:   1
       N       E                     dE             d eps       ncg     rms          rms(c)
RMM:   1    -0.261194571382E+01   -0.26119E+01   -0.12976E+01  1251   0.477E+00
RMM:   2    -0.290168660405E+01   -0.28974E+00   -0.90442E-02  1055   0.961E-01
RMM:   3    -0.290645444120E+01   -0.47678E-02   -0.60892E-03  1081   0.214E-01
RMM:   4    -0.290663690072E+01   -0.18246E-03   -0.60538E-04  1106   0.592E-02
RMM:   5    -0.290664934348E+01   -0.12443E-04   -0.46345E-05  1100   0.182E-02
RMM:   6    -0.290665046922E+01   -0.11257E-05   -0.52775E-06  1117   0.590E-03
RMM:   7    -0.290665059000E+01   -0.12078E-06   -0.61213E-07  1068   0.203E-03
 change of polarisation eV/A/(eV/A) component  1 :     5.813    -2.447    -0.156
 dielectric tensor                  component  1 :     3.991    -1.259    -0.080
 Linear response to external field (no local field effect), progress :
  Direction:   2
       N       E                     dE             d eps       ncg     rms          rms(c)
RMM:   1    -0.330537970284E+01   -0.33054E+01   -0.16654E+01  1254   0.484E+00
RMM:   2    -0.364233019593E+01   -0.33695E+00   -0.10762E-01  1065   0.951E-01
RMM:   3    -0.364708305461E+01   -0.47529E-02   -0.62723E-03  1077   0.205E-01
RMM:   4    -0.364721959989E+01   -0.13655E-03   -0.48695E-04  1116   0.550E-02
RMM:   5    -0.364722780538E+01   -0.82055E-05   -0.29775E-05  1100   0.157E-02
RMM:   6    -0.364722867074E+01   -0.86536E-06   -0.34102E-06  1113   0.497E-03
 change of polarisation eV/A/(eV/A) component  2 :    -2.447     7.294     0.061
 dielectric tensor                  component  2 :    -1.259     4.753     0.031
 Linear response to external field (no local field effect), progress :
  Direction:   3
       N       E                     dE             d eps       ncg     rms          rms(c)
RMM:   1    -0.102265676545E+01   -0.10227E+01   -0.87168E-01  1178   0.455E+00
RMM:   2    -0.131300413229E+01   -0.29035E+00   -0.90176E-02  1038   0.985E-01
RMM:   3    -0.131727135386E+01   -0.42672E-02   -0.42046E-03  1084   0.207E-01
RMM:   4    -0.131736593729E+01   -0.94583E-04   -0.31240E-04  1095   0.521E-02
RMM:   5    -0.131737170199E+01   -0.57647E-05   -0.24975E-05  1115   0.150E-02
RMM:   6    -0.131737214747E+01   -0.44548E-06   -0.25082E-06  1102   0.468E-03
 change of polarisation eV/A/(eV/A) component  3 :    -0.156     0.061     2.635
 dielectric tensor                  component  3 :    -0.080     0.031     2.356
 Linear response to external field, progress :
  Direction:   1
       N       E                     dE             d eps       ncg     rms          rms(c)
RMM:   1    -0.295846742189E+01   -0.29585E+01   -0.14813E+01  2780   0.475E+00
RMM:   2    -0.327195916747E+01   -0.31349E+00   -0.97052E-02  2368   0.941E-01    0.252E+00
RMM:   3    -0.321113217149E+01    0.60827E-01   -0.14766E-02  2101   0.401E-01    0.219E+00
RMM:   4    -0.316111008133E+01    0.50022E-01   -0.29675E-01  2100   0.182E+00    0.398E-01
RMM:   5    -0.317578170209E+01   -0.14672E-01   -0.11325E-02  2038   0.476E-01    0.203E-01
RMM:   6    -0.318860748463E+01   -0.12826E-01   -0.30390E-03  2063   0.210E-01    0.421E-02
RMM:   7    -0.318971668484E+01   -0.11092E-02   -0.81859E-05  2308   0.448E-02    0.322E-02
RMM:   8    -0.319261100124E+01   -0.28943E-02   -0.75355E-05  2008   0.349E-02    0.579E-03
RMM:   9    -0.319365811440E+01   -0.10471E-02   -0.86722E-06  2213   0.128E-02    0.348E-03
RMM:  10    -0.319368079302E+01   -0.22679E-04   -0.21344E-06  2307   0.488E-03    0.165E-03
RMM:  11    -0.319374922275E+01   -0.68430E-04   -0.40376E-07  2234   0.229E-03    0.541E-04
RMM:  12    -0.319377682701E+01   -0.27604E-04   -0.50412E-08  2219   0.945E-04    0.434E-04
RMM:  13    -0.319378026771E+01   -0.34407E-05   -0.81512E-09  1798   0.392E-04    0.334E-05
RMM:  14    -0.319378221180E+01   -0.19441E-05   -0.17106E-09  1659   0.209E-04    0.253E-05
RMM:  15    -0.319378248567E+01   -0.27388E-06    0.00000E+00  1402   0.175E-04    0.800E-06
 change of polarisation eV/A/(eV/A) component  1 :     6.078    -1.263    -0.051
 dielectric tensor                  component  1 :     4.128    -0.650    -0.026
 Linear response to external field, progress :
  Direction:   2
       N       E                     dE             d eps       ncg     rms          rms(c)
RMM:   1    -0.296216013149E+01   -0.29622E+01   -0.14850E+01  2824   0.468E+00
RMM:   2    -0.327222592928E+01   -0.31007E+00   -0.99189E-02  2387   0.938E-01    0.252E+00
RMM:   3    -0.321104206239E+01    0.61184E-01   -0.14487E-02  2139   0.401E-01    0.219E+00
RMM:   4    -0.316104799086E+01    0.49994E-01   -0.29777E-01  2158   0.182E+00    0.398E-01
RMM:   5    -0.317614499207E+01   -0.15097E-01   -0.11475E-02  2068   0.482E-01    0.206E-01
RMM:   6    -0.318836626322E+01   -0.12221E-01   -0.32053E-03  2056   0.214E-01    0.423E-02
RMM:   7    -0.318951190509E+01   -0.11456E-02   -0.79059E-05  2346   0.449E-02    0.334E-02
RMM:   8    -0.319180337399E+01   -0.22915E-02   -0.51422E-05  2042   0.287E-02    0.121E-02
RMM:   9    -0.319350249022E+01   -0.16991E-02   -0.18121E-05  2091   0.183E-02    0.333E-03
RMM:  10    -0.319347830766E+01    0.24183E-04   -0.91743E-07  2480   0.375E-03    0.325E-03
RMM:  11    -0.319320946734E+01    0.26884E-03   -0.11357E-06  2103   0.372E-03    0.396E-03
RMM:  12    -0.319370702494E+01   -0.49756E-03   -0.56299E-07  2147   0.309E-03    0.745E-04
RMM:  13    -0.319373790683E+01   -0.30882E-04   -0.43689E-08  2175   0.108E-03    0.358E-04
RMM:  14    -0.319375980109E+01   -0.21894E-04   -0.12678E-08  2143   0.539E-04    0.169E-04
RMM:  15    -0.319376888686E+01   -0.90858E-05   -0.35296E-10  1462   0.218E-04    0.717E-05
RMM:  16    -0.319377590385E+01   -0.70170E-05   -0.35469E-09  1721   0.255E-04    0.161E-05
RMM:  17    -0.319377380908E+01    0.20948E-05    0.00000E+00  1307   0.191E-04    0.197E-05
RMM:  18    -0.319377601352E+01   -0.22044E-05   -0.94253E-11  1205   0.207E-04    0.115E-05
RMM:  19    -0.319377604114E+01   -0.27621E-07    0.00000E+00  1113   0.201E-04    0.179E-06
 change of polarisation eV/A/(eV/A) component  2 :    -1.264     6.078    -0.000
 dielectric tensor                  component  2 :    -0.650     4.128    -0.000
 Linear response to external field, progress :
  Direction:   3
       N       E                     dE             d eps       ncg     rms          rms(c)
RMM:   1    -0.102265676545E+01   -0.10227E+01   -0.87168E-01  1178   0.455E+00
RMM:   2    -0.131300413229E+01   -0.29035E+00   -0.90176E-02  1038   0.985E-01    0.252E+00
RMM:   3    -0.309669930699E+00    0.10033E+01   -0.20974E-01  1016   0.106E+00    0.536E-01
RMM:   4    -0.241966249200E+00    0.67704E-01   -0.42348E-02  1044   0.455E-01    0.302E-01
RMM:   5    -0.233278743886E+00    0.86875E-02   -0.15284E-02  1068   0.410E-01    0.614E-02
RMM:   6    -0.233316709453E+00   -0.37966E-04   -0.69615E-04   945   0.897E-02    0.504E-02
RMM:   7    -0.233615042584E+00   -0.29833E-03   -0.36658E-04   914   0.621E-02    0.124E-02
RMM:   8    -0.233709039514E+00   -0.93997E-04   -0.30049E-05   943   0.221E-02    0.962E-03
RMM:   9    -0.233727931800E+00   -0.18892E-04   -0.49740E-06   936   0.848E-03    0.252E-03
RMM:  10    -0.233741677203E+00   -0.13745E-04   -0.43146E-07  1034   0.304E-03    0.129E-03
RMM:  11    -0.233738493431E+00    0.31838E-05   -0.87110E-08  1037   0.135E-03    0.535E-04
RMM:  12    -0.233739413191E+00   -0.91976E-06   -0.25591E-08   935   0.642E-04    0.898E-05
 change of polarisation eV/A/(eV/A) component  3 :    -0.039     0.000     0.453
 dielectric tensor                  component  3 :    -0.020     0.000     1.233
 Born effective charges drift removed
