 vasp.6.4.2 20Jul23 (build Nov 14 2023 12:59:38) complex                        
  
 executed on             LinuxIFC date 2023.12.18  09:42:05
 running   16 mpi-ranks, on    1 nodes
 distrk:  each k-point on   16 cores,    1 groups
 distr:  one band on NCORE=   1 cores,   16 groups


--------------------------------------------------------------------------------------------------------


 INCAR:
   ENCUT = 193.577625
   ALGO = Normal
   NELM = 200
   NELMIN = 6
   NELMDL = -12
   EDIFF = 1.0E-6
   AMIX = 0.1
   BMIX = 0.0001
   PREC = Accurate
   IVDW = 0
   ISPIN = 1
   ADDGRID = .TRUE.
   LASPH = .TRUE.
   LEPSILON = .TRUE.
   NSW = 0
   EDIFFG = -0.010
   IBRION = 2
   ISIF = -1
   POTIM = 0.5
   STRESSTYPE = 2
   ISMEAR = 0
   SIGMA = 0.01
   LORBIT = 10
   NEDOS = 6001
   NWRITE = 1
   LWAVE = .FALSE.
   LCHARG = .FALSE.
   LPLANE = .TRUE.

 POTCAR:    PAW_PBE Sb_GW 21Mar2012               
 -----------------------------------------------------------------------------
|                                                                             |
|           W    W    AA    RRRRR   N    N  II  N    N   GGGG   !!!           |
|           W    W   A  A   R    R  NN   N  II  NN   N  G    G  !!!           |
|           W    W  A    A  R    R  N N  N  II  N N  N  G       !!!           |
|           W WW W  AAAAAA  RRRRR   N  N N  II  N  N N  G  GGG   !            |
|           WW  WW  A    A  R   R   N   NN  II  N   NN  G    G                |
|           W    W  A    A  R    R  N    N  II  N    N   GGGG   !!!           |
|                                                                             |
|     For optimal performance we recommend to set                             |
|       NCORE = 2 up to number-of-cores-per-socket                            |
|     NCORE specifies how many cores store one orbital (NPAR=cpu/NCORE).      |
|     This setting can greatly improve the performance of VASP for DFT.       |
|     The default, NCORE=1 might be grossly inefficient on modern             |
|     multi-core architectures or massively parallel machines. Do your        |
|     own testing! More info at https://www.vasp.at/wiki/index.php/NCORE      |
|     Unfortunately you need to use the default for GW and RPA                |
|     calculations (for HF NCORE is supported but not extensively tested      |
|     yet).                                                                   |
|                                                                             |
 -----------------------------------------------------------------------------

 POTCAR:    PAW_PBE Sb_GW 21Mar2012               
  local pseudopotential read in
  partial core-charges read in
  partial kinetic energy density read in
  kinetic energy density of atom read in
  atomic valenz-charges read in
  non local Contribution for L=           0  read in
    real space projection operators read in
  non local Contribution for L=           0  read in
    real space projection operators read in
  non local Contribution for L=           1  read in
    real space projection operators read in
  non local Contribution for L=           1  read in
    real space projection operators read in
  non local Contribution for L=           2  read in
    real space projection operators read in
  non local Contribution for L=           2  read in
    real space projection operators read in
  non local Contribution for L=           3  read in
    real space projection operators read in
  non local Contribution for L=           3  read in
    real space projection operators read in
    PAW grid and wavefunctions read in
 
   number of l-projection  operators is LMAX  =           8
   number of lm-projection operators is LMMAX =          32
 
  PAW_PBE Sb_GW 21Mar2012               :
 energy of atom  1       EATOM= -149.9515
 kinetic energy error for atom=    0.0054 (will be added to EATOM!!)
 
 
 POSCAR: pnictogen honeycomb monolayer
  positions in cartesian coordinates
  No initial velocities read in
 exchange correlation table for  LEXCH =        8
   RHO(1)=    0.500       N(1)  =     2000
   RHO(2)=  100.500       N(2)  =     4000
 


--------------------------------------------------------------------------------------------------------


 ion  position               nearest neighbor table
   1  0.667  0.333  0.299-   2 2.89   2 2.89   2 2.89
   2  0.333  0.667  0.368-   1 2.89   1 2.89   1 2.89
 
  LATTYP: Found a hexagonal cell.
 ALAT       =     4.1133666039
 C/A-ratio  =     5.8346367613
  
  Lattice vectors:
  
 A1 = (   4.1133666039,   0.0000000000,   0.0000000000)
 A2 = (  -2.0566833019,   3.5622799740,   0.0000000000)
 A3 = (   0.0000000000,   0.0000000000,  24.0000000000)


Analysis of symmetry for initial positions (statically):
=====================================================================
 Subroutine PRICEL returns:
 Original cell was already a primitive cell.
 

 Routine SETGRP: Setting up the symmetry group for a 
 hexagonal supercell.


 Subroutine GETGRP returns: Found 12 space group operations
 (whereof  6 operations were pure point group operations)
 out of a pool of 24 trial point group operations.


The static configuration has the point symmetry C_3v.
 The point group associated with its full space group is D_3d.


Analysis of symmetry for dynamics (positions and initial velocities):
=====================================================================
 Subroutine PRICEL returns:
 Original cell was already a primitive cell.
 

 Routine SETGRP: Setting up the symmetry group for a 
 hexagonal supercell.


 Subroutine GETGRP returns: Found 12 space group operations
 (whereof  6 operations were pure point group operations)
 out of a pool of 24 trial point group operations.


The dynamic configuration has the point symmetry C_3v.
 The point group associated with its full space group is D_3d.


 Subroutine INISYM returns: Found 12 space group operations
 (whereof  6 operations are pure point group operations),
 and found     1 'primitive' translations


----------------------------------------------------------------------------------------

                                     Primitive cell                                     

  volume of cell :     351.6711

  direct lattice vectors                    reciprocal lattice vectors
     4.113366604  0.000000000  0.000000000     0.243109865  0.140359546  0.000000000
    -2.056683302  3.562279974  0.000000000     0.000000000  0.280719092  0.000000000
     0.000000000  0.000000000 24.000000000     0.000000000  0.000000000  0.041666667

  length of vectors
     4.113366604  4.113366604 24.000000000     0.280719092  0.280719092  0.041666667

  position of ions in fractional coordinates (direct lattice)
     0.666666686  0.333333343  0.299083590
     0.333333343  0.666666687  0.367583076

  ion indices of the primitive-cell ions
   primitive index   ion index
                 1           1
                 2           2

----------------------------------------------------------------------------------------

 
 
 KPOINTS: kpoints                                 

Automatic generation of k-mesh.
 Grid dimensions read from file:
 generate k-points for:   11   11    1

 Generating k-lattice:

  Cartesian coordinates                     Fractional coordinates (reciprocal lattice)
     0.022100897  0.012759959  0.000000000     0.090909091  0.000000000  0.000000000
     0.000000000  0.025519917  0.000000000     0.000000000  0.090909091  0.000000000
     0.000000000  0.000000000  0.041666667     0.000000000  0.000000000  1.000000000

  Length of vectors
     0.025519917  0.025519917  0.041666667

  Shift w.r.t. Gamma in fractional coordinates (k-lattice)
     0.000000000  0.000000000  0.000000000

 
 Subroutine IBZKPT returns following result:
 ===========================================
 
 Found     16 irreducible k-points:
 
 Following reciprocal coordinates:
            Coordinates               Weight
  0.000000  0.000000  0.000000      1.000000
  0.090909  0.000000  0.000000      6.000000
  0.181818  0.000000  0.000000      6.000000
  0.272727 -0.000000  0.000000      6.000000
  0.363636  0.000000  0.000000      6.000000
  0.454545  0.000000  0.000000      6.000000
  0.090909  0.090909  0.000000      6.000000
  0.181818  0.090909  0.000000     12.000000
  0.272727  0.090909  0.000000     12.000000
  0.363636  0.090909  0.000000     12.000000
  0.454545  0.090909  0.000000      6.000000
  0.181818  0.181818  0.000000      6.000000
  0.272727  0.181818  0.000000     12.000000
  0.363636  0.181818  0.000000     12.000000
  0.272727  0.272727  0.000000      6.000000
  0.363636  0.272727  0.000000      6.000000
 
 Following cartesian coordinates:
            Coordinates               Weight
  0.000000  0.000000  0.000000      1.000000
  0.022101  0.012760  0.000000      6.000000
  0.044202  0.025520  0.000000      6.000000
  0.066303  0.038280  0.000000      6.000000
  0.088404  0.051040  0.000000      6.000000
  0.110504  0.063800  0.000000      6.000000
  0.022101  0.038280  0.000000      6.000000
  0.044202  0.051040  0.000000     12.000000
  0.066303  0.063800  0.000000     12.000000
  0.088404  0.076560  0.000000     12.000000
  0.110504  0.089320  0.000000      6.000000
  0.044202  0.076560  0.000000      6.000000
  0.066303  0.089320  0.000000     12.000000
  0.088404  0.102080  0.000000     12.000000
  0.066303  0.114840  0.000000      6.000000
  0.088404  0.127600  0.000000      6.000000
 
 
 Subroutine IBZKPT_HF returns following result:
 ==============================================
 
 Found    121 k-points in 1st BZ
 the following    121 k-points will be used (e.g. in the exchange kernel)
 Following reciprocal coordinates:   # in IRBZ
  0.000000  0.000000  0.000000    0.00826446   1 t-inv F
  0.090909  0.000000  0.000000    0.00826446   2 t-inv F
  0.181818  0.000000  0.000000    0.00826446   3 t-inv F
  0.272727 -0.000000  0.000000    0.00826446   4 t-inv F
  0.363636  0.000000  0.000000    0.00826446   5 t-inv F
  0.454545  0.000000  0.000000    0.00826446   6 t-inv F
  0.090909  0.090909  0.000000    0.00826446   7 t-inv F
  0.181818  0.090909  0.000000    0.00826446   8 t-inv F
  0.272727  0.090909  0.000000    0.00826446   9 t-inv F
  0.363636  0.090909  0.000000    0.00826446  10 t-inv F
  0.454545  0.090909  0.000000    0.00826446  11 t-inv F
  0.181818  0.181818  0.000000    0.00826446  12 t-inv F
  0.272727  0.181818  0.000000    0.00826446  13 t-inv F
  0.363636  0.181818  0.000000    0.00826446  14 t-inv F
  0.272727  0.272727  0.000000    0.00826446  15 t-inv F
  0.363636  0.272727  0.000000    0.00826446  16 t-inv F
 -0.090909  0.090909  0.000000    0.00826446   2 t-inv F
  0.000000 -0.090909  0.000000    0.00826446   2 t-inv F
 -0.090909  0.000000  0.000000    0.00826446   2 t-inv F
  0.090909 -0.090909  0.000000    0.00826446   2 t-inv F
  0.000000  0.090909  0.000000    0.00826446   2 t-inv F
 -0.181818  0.181818  0.000000    0.00826446   3 t-inv F
  0.000000 -0.181818  0.000000    0.00826446   3 t-inv F
 -0.181818  0.000000  0.000000    0.00826446   3 t-inv F
  0.181818 -0.181818  0.000000    0.00826446   3 t-inv F
  0.000000  0.181818  0.000000    0.00826446   3 t-inv F
 -0.272727  0.272727  0.000000    0.00826446   4 t-inv F
 -0.000000 -0.272727  0.000000    0.00826446   4 t-inv F
 -0.272727  0.000000  0.000000    0.00826446   4 t-inv F
  0.272727 -0.272727  0.000000    0.00826446   4 t-inv F
  0.000000  0.272727  0.000000    0.00826446   4 t-inv F
 -0.363636  0.363636  0.000000    0.00826446   5 t-inv F
  0.000000 -0.363636  0.000000    0.00826446   5 t-inv F
 -0.363636  0.000000  0.000000    0.00826446   5 t-inv F
  0.363636 -0.363636  0.000000    0.00826446   5 t-inv F
  0.000000  0.363636  0.000000    0.00826446   5 t-inv F
 -0.454545  0.454545  0.000000    0.00826446   6 t-inv F
  0.000000 -0.454545  0.000000    0.00826446   6 t-inv F
 -0.454545 -0.000000  0.000000    0.00826446   6 t-inv F
  0.454545 -0.454545  0.000000    0.00826446   6 t-inv F
 -0.000000  0.454545  0.000000    0.00826446   6 t-inv F
 -0.181818  0.090909  0.000000    0.00826446   7 t-inv F
  0.090909 -0.181818  0.000000    0.00826446   7 t-inv F
 -0.090909  0.181818  0.000000    0.00826446   7 t-inv F
  0.181818 -0.090909  0.000000    0.00826446   7 t-inv F
 -0.090909 -0.090909  0.000000    0.00826446   7 t-inv F
 -0.272727  0.181818  0.000000    0.00826446   8 t-inv F
  0.090909 -0.272727  0.000000    0.00826446   8 t-inv F
 -0.181818  0.272727  0.000000    0.00826446   8 t-inv F
  0.272727 -0.090909  0.000000    0.00826446   8 t-inv F
 -0.090909 -0.181818  0.000000    0.00826446   8 t-inv F
 -0.181818 -0.090909  0.000000    0.00826446   8 t-inv F
  0.272727 -0.181818  0.000000    0.00826446   8 t-inv F
 -0.090909  0.272727  0.000000    0.00826446   8 t-inv F
  0.181818 -0.272727  0.000000    0.00826446   8 t-inv F
 -0.272727  0.090909  0.000000    0.00826446   8 t-inv F
  0.090909  0.181818  0.000000    0.00826446   8 t-inv F
 -0.363636  0.272727  0.000000    0.00826446   9 t-inv F
  0.090909 -0.363636  0.000000    0.00826446   9 t-inv F
 -0.272727  0.363636  0.000000    0.00826446   9 t-inv F
  0.363636 -0.090909  0.000000    0.00826446   9 t-inv F
 -0.090909 -0.272727  0.000000    0.00826446   9 t-inv F
 -0.272727 -0.090909  0.000000    0.00826446   9 t-inv F
  0.363636 -0.272727  0.000000    0.00826446   9 t-inv F
 -0.090909  0.363636  0.000000    0.00826446   9 t-inv F
  0.272727 -0.363636  0.000000    0.00826446   9 t-inv F
 -0.363636  0.090909  0.000000    0.00826446   9 t-inv F
  0.090909  0.272727  0.000000    0.00826446   9 t-inv F
 -0.454545  0.363636  0.000000    0.00826446  10 t-inv F
  0.090909 -0.454545  0.000000    0.00826446  10 t-inv F
 -0.363636  0.454545  0.000000    0.00826446  10 t-inv F
  0.454545 -0.090909  0.000000    0.00826446  10 t-inv F
 -0.090909 -0.363636  0.000000    0.00826446  10 t-inv F
 -0.363636 -0.090909  0.000000    0.00826446  10 t-inv F
  0.454545 -0.363636  0.000000    0.00826446  10 t-inv F
 -0.090909  0.454545  0.000000    0.00826446  10 t-inv F
  0.363636 -0.454545  0.000000    0.00826446  10 t-inv F
 -0.454545  0.090909  0.000000    0.00826446  10 t-inv F
  0.090909  0.363636  0.000000    0.00826446  10 t-inv F
 -0.545455  0.454545  0.000000    0.00826446  11 t-inv F
  0.090909 -0.545455  0.000000    0.00826446  11 t-inv F
 -0.454545  0.545455  0.000000    0.00826446  11 t-inv F
  0.545455 -0.090909  0.000000    0.00826446  11 t-inv F
 -0.090909 -0.454545  0.000000    0.00826446  11 t-inv F
 -0.363636  0.181818  0.000000    0.00826446  12 t-inv F
  0.181818 -0.363636  0.000000    0.00826446  12 t-inv F
 -0.181818  0.363636  0.000000    0.00826446  12 t-inv F
  0.363636 -0.181818  0.000000    0.00826446  12 t-inv F
 -0.181818 -0.181818  0.000000    0.00826446  12 t-inv F
 -0.454545  0.272727  0.000000    0.00826446  13 t-inv F
  0.181818 -0.454545  0.000000    0.00826446  13 t-inv F
 -0.272727  0.454545  0.000000    0.00826446  13 t-inv F
  0.454545 -0.181818  0.000000    0.00826446  13 t-inv F
 -0.181818 -0.272727  0.000000    0.00826446  13 t-inv F
 -0.272727 -0.181818  0.000000    0.00826446  13 t-inv F
  0.454545 -0.272727  0.000000    0.00826446  13 t-inv F
 -0.181818  0.454545  0.000000    0.00826446  13 t-inv F
  0.272727 -0.454545  0.000000    0.00826446  13 t-inv F
 -0.454545  0.181818  0.000000    0.00826446  13 t-inv F
  0.181818  0.272727  0.000000    0.00826446  13 t-inv F
 -0.545455  0.363636  0.000000    0.00826446  14 t-inv F
  0.181818 -0.545455  0.000000    0.00826446  14 t-inv F
 -0.363636  0.545455  0.000000    0.00826446  14 t-inv F
  0.545455 -0.181818  0.000000    0.00826446  14 t-inv F
 -0.181818 -0.363636  0.000000    0.00826446  14 t-inv F
 -0.363636 -0.181818  0.000000    0.00826446  14 t-inv F
  0.545455 -0.363636  0.000000    0.00826446  14 t-inv F
 -0.181818  0.545455  0.000000    0.00826446  14 t-inv F
  0.363636 -0.545455  0.000000    0.00826446  14 t-inv F
 -0.545455  0.181818  0.000000    0.00826446  14 t-inv F
  0.181818  0.363636  0.000000    0.00826446  14 t-inv F
 -0.545455  0.272727  0.000000    0.00826446  15 t-inv F
  0.272727 -0.545455  0.000000    0.00826446  15 t-inv F
 -0.272727  0.545455  0.000000    0.00826446  15 t-inv F
  0.545455 -0.272727  0.000000    0.00826446  15 t-inv F
 -0.272727 -0.272727  0.000000    0.00826446  15 t-inv F
 -0.636364  0.363636  0.000000    0.00826446  16 t-inv F
  0.272727 -0.636364  0.000000    0.00826446  16 t-inv F
 -0.363636  0.636364  0.000000    0.00826446  16 t-inv F
  0.636364 -0.272727  0.000000    0.00826446  16 t-inv F
 -0.272727 -0.363636  0.000000    0.00826446  16 t-inv F


--------------------------------------------------------------------------------------------------------




 Dimension of arrays:
   k-points           NKPTS =     16   k-points in BZ     NKDIM =     16   number of bands    NBANDS=     16
   number of dos      NEDOS =   6001   number of ions     NIONS =      2
   non local maximal  LDIM  =      8   non local SUM 2l+1 LMDIM =     32
   total plane-waves  NPLWV =  44800
   max r-space proj   IRMAX =      1   max aug-charges    IRDMAX=  56751
   dimension x,y,z NGX =    20 NGY =   20 NGZ =  112
   dimension x,y,z NGXF=    40 NGYF=   40 NGZF=  224
   support grid    NGXF=    80 NGYF=   80 NGZF=  448
   ions per type =               2
   NGX,Y,Z   is equivalent  to a cutoff of   8.08,  8.08,  7.76 a.u.
   NGXF,Y,Z  is equivalent  to a cutoff of  16.17, 16.17, 15.52 a.u.

 SYSTEM =  unknown system                          
 POSCAR =  pnictogen honeycomb monolayer           

 Startparameter for this run:
   NWRITE =      1    write-flag & timer
   PREC   = accura    normal or accurate (medium, high low for compatibility)
   ISTART =      0    job   : 0-new  1-cont  2-samecut
   ICHARG =      2    charge: 1-file 2-atom 10-const
   ISPIN  =      1    spin polarized calculation?
   LNONCOLLINEAR =      F non collinear calculations
   LSORBIT =      F    spin-orbit coupling
   INIWAV =      1    electr: 0-lowe 1-rand  2-diag
   LASPH  =      T    aspherical Exc in radial PAW
 Electronic Relaxation 1
   ENCUT  =  193.6 eV  14.23 Ry    3.77 a.u.   4.67  4.67 27.23*2*pi/ulx,y,z
   ENINI  =  193.6     initial cutoff
   ENAUG  =  560.6 eV  augmentation charge cutoff
   NELM   =    200;   NELMIN=  6; NELMDL=-12     # of ELM steps 
   EDIFF  = 0.1E-05   stopping-criterion for ELM
   LREAL  =      F    real-space projection
   NLSPLINE    = F    spline interpolate recip. space projectors
   LCOMPAT=      F    compatible to vasp.4.4
   GGA_COMPAT  = T    GGA compatible to vasp.4.4-vasp.4.6
   LMAXPAW     = -100 max onsite density
   LMAXMIX     =    2 max onsite mixed and CHGCAR
   VOSKOWN=      0    Vosko Wilk Nusair interpolation
   ROPT   =    0.00000
 Ionic relaxation
   EDIFFG = -.1E-01   stopping-criterion for IOM
   NSW    =      0    number of steps for IOM
   NBLOCK =      1;   KBLOCK =      1    inner block; outer block 
   IBRION =     -1    ionic relax: 0-MD 1-quasi-New 2-CG
   NFREE  =      1    steps in history (QN), initial steepest desc. (CG)
   ISIF   =     -1    stress and relaxation
   IWAVPR =     10    prediction:  0-non 1-charg 2-wave 3-comb
   ISYM   =      2    0-nonsym 1-usesym 2-fastsym
   LCORR  =      T    Harris-Foulkes like correction to forces

   POTIM  = 0.5000    time-step for ionic-motion
   TEIN   =    0.0    initial temperature
   TEBEG  =    0.0;   TEEND  =   0.0 temperature during run
   SMASS  =  -3.00    Nose mass-parameter (am)
   estimated Nose-frequenzy (Omega)   =  0.10E-29 period in steps = 0.13E+47 mass=  -0.387E-27a.u.
   SCALEE = 1.0000    scale energy and forces
   NPACO  =    256;   APACO  = 10.0  distance and # of slots for P.C.
   PSTRESS=    0.0 pullay stress

  Mass of Ions in am
   POMASS = 121.75
  Ionic Valenz
   ZVAL   =   5.00
  Atomic Wigner-Seitz radii
   RWIGS  =  -1.00
  virtual crystal weights 
   VCA    =   1.00
   NELECT =      10.0000    total number of electrons
   NUPDOWN=      -1.0000    fix difference up-down

 DOS related values:
   EMIN   =  10.00;   EMAX   =-10.00  energy-range for DOS
   EFERMI =   0.00;   METHOD = LEGACY      
   ISMEAR =     0;   SIGMA  =   0.01  broadening in eV -4-tet -1-fermi 0-gaus

 Electronic relaxation 2 (details)
   IALGO  =     38    algorithm
   LDIAG  =      T    sub-space diagonalisation (order eigenvalues)
   LSUBROT=      F    optimize rotation matrix (better conditioning)
   TURBO    =      0    0=normal 1=particle mesh
   IRESTART =      0    0=no restart 2=restart with 2 vectors
   NREBOOT  =      0    no. of reboots
   NMIN     =      0    reboot dimension
   EREF     =   0.00    reference energy to select bands
   IMIX   =      4    mixing-type and parameters
     AMIX     =   0.10;   BMIX     =  0.00
     AMIX_MAG =   0.40;   BMIX_MAG =  0.00
     AMIN     =   0.10
     WC   =   100.;   INIMIX=   1;  MIXPRE=   1;  MAXMIX= -45

 Intra band minimization:
   WEIMIN = 0.0000     energy-eigenvalue tresh-hold
   EBREAK =  0.16E-07  absolut break condition
   DEPER  =   0.30     relativ break condition  

   TIME   =   0.40     timestep for ELM

  volume/ion in A,a.u.               =     175.84      1186.60
  Fermi-wavevector in a.u.,A,eV,Ry     =   0.499685  0.944267  3.397166  0.249685
  Thomas-Fermi vector in A             =   1.507307
 
 Write flags
   LWAVE        =      F    write WAVECAR
   LDOWNSAMPLE  =      F    k-point downsampling of WAVECAR
   LCHARG       =      F    write CHGCAR
   LVTOT        =      F    write LOCPOT, total local potential
   LVHAR        =      F    write LOCPOT, Hartree potential only
   LELF         =      F    write electronic localiz. function (ELF)
   LORBIT       =     10    0 simple, 1 ext, 2 COOP (PROOUT), +10 PAW based schemes


 Dipole corrections
   LMONO  =      F    monopole corrections only (constant potential shift)
   LDIPOL =      F    correct potential (dipole corrections)
   IDIPOL =      0    1-x, 2-y, 3-z, 4-all directions 
   EPSILON=  1.0000000 bulk dielectric constant

 Exchange correlation treatment:
   GGA     =    --    GGA type
   LEXCH   =     8    internal setting for exchange type
   LIBXC   =     F    Libxc                    
   VOSKOWN =     0    Vosko Wilk Nusair interpolation
   LHFCALC =     F    Hartree Fock is set to
   LHFONE  =     F    Hartree Fock one center treatment
   AEXX    =    0.0000 exact exchange contribution

 Linear response parameters
   LEPSILON=     T    determine dielectric tensor
   LRPA    =     F    only Hartree local field effects (RPA)
   LNABLA  =     F    use nabla operator in PAW spheres
   LVEL    =     F    velocity operator in full k-point grid
   CSHIFT  =0.1000    complex shift for real part using Kramers Kronig
   OMEGAMAX=  -1.0    maximum frequency
   DEG_THRESHOLD= 0.2000000E-02 threshold for treating states as degnerate
   RTIME   =   -0.100 relaxation time in fs
  (WPLASMAI=    0.000 imaginary part of plasma frequency in eV, 0.658/RTIME)
   DFIELD  = 0.0000000 0.0000000 0.0000000 field for delta impulse in time
 
  Optional k-point grid parameters
   LKPOINTS_OPT  =     F    use optional k-point grid
   KPOINTS_OPT_MODE=     1    mode for optional k-point grid
 
 Orbital magnetization related:
   ORBITALMAG=     F  switch on orbital magnetization
   LCHIMAG   =     F  perturbation theory with respect to B field
   DQ        =  0.001000  dq finite difference perturbation B field
   LLRAUG    =     F  two centre corrections for induced B field
   LBONE     =     F  B-component reconstruction in AE one-centre
   LVGVCALC  =     T  calculate vGv susceptibility
   LVGVAPPL  =     F  apply vGv susceptibility instead of pGv for G=0

 Random number generation:
   RANDOM_GENERATOR = DEFAULT
   PCG_SEED         = not used


--------------------------------------------------------------------------------------------------------


 Static calculation
 charge density and potential will be updated during run
 non-spin polarized calculation
 Variant of blocked Davidson
 Davidson routine will perform the subspace rotation
 perform sub-space diagonalisation
    after iterative eigenvector-optimisation
 modified Broyden-mixing scheme, WC =      100.0
 initial mixing is a Kerker type mixing with AMIX =  0.1000 and BMIX =      0.0001
 Hartree-type preconditioning will be used
 using additional bands           11
 reciprocal scheme for non local part
 use partial core corrections
 calculate Harris-corrections to forces 
   (improved forces if not selfconsistent)
 use gradient corrections 
 use of overlap-Matrix (Vanderbilt PP)
 Gauss-broadening in eV      SIGMA  =   0.01


--------------------------------------------------------------------------------------------------------


  energy-cutoff  :      193.58
  volume of cell :      351.67
      direct lattice vectors                 reciprocal lattice vectors
     4.113366604  0.000000000  0.000000000     0.243109865  0.140359546  0.000000000
    -2.056683302  3.562279974  0.000000000     0.000000000  0.280719092  0.000000000
     0.000000000  0.000000000 24.000000000     0.000000000  0.000000000  0.041666667

  length of vectors
     4.113366604  4.113366604 24.000000000     0.280719092  0.280719092  0.041666667


 
 k-points in units of 2pi/SCALE and weight: kpoints                                 
   0.00000000  0.00000000  0.00000000       0.008
   0.02210090  0.01275996  0.00000000       0.050
   0.04420179  0.02551992  0.00000000       0.050
   0.06630269  0.03827988  0.00000000       0.050
   0.08840359  0.05103983  0.00000000       0.050
   0.11050448  0.06379979  0.00000000       0.050
   0.02210090  0.03827988  0.00000000       0.050
   0.04420179  0.05103983  0.00000000       0.099
   0.06630269  0.06379979  0.00000000       0.099
   0.08840359  0.07655975  0.00000000       0.099
   0.11050448  0.08931971  0.00000000       0.050
   0.04420179  0.07655975  0.00000000       0.050
   0.06630269  0.08931971  0.00000000       0.099
   0.08840359  0.10207967  0.00000000       0.099
   0.06630269  0.11483963  0.00000000       0.050
   0.08840359  0.12759959  0.00000000       0.050
 
 k-points in reciprocal lattice and weights: kpoints                                 
   0.00000000  0.00000000  0.00000000       0.008
   0.09090909  0.00000000  0.00000000       0.050
   0.18181818  0.00000000  0.00000000       0.050
   0.27272727 -0.00000000  0.00000000       0.050
   0.36363636  0.00000000  0.00000000       0.050
   0.45454545  0.00000000  0.00000000       0.050
   0.09090909  0.09090909  0.00000000       0.050
   0.18181818  0.09090909  0.00000000       0.099
   0.27272727  0.09090909  0.00000000       0.099
   0.36363636  0.09090909  0.00000000       0.099
   0.45454545  0.09090909  0.00000000       0.050
   0.18181818  0.18181818  0.00000000       0.050
   0.27272727  0.18181818  0.00000000       0.099
   0.36363636  0.18181818  0.00000000       0.099
   0.27272727  0.27272727  0.00000000       0.050
   0.36363636  0.27272727  0.00000000       0.050
 
 position of ions in fractional coordinates (direct lattice) 
   0.66666669  0.33333334  0.29908359
   0.33333334  0.66666669  0.36758308
 
 position of ions in cartesian coordinates  (Angst):
   2.05668336  1.18742669  7.17800617
   0.00000000  2.37485339  8.82199383
 


--------------------------------------------------------------------------------------------------------


 k-point   1 :   0.0000 0.0000 0.0000  plane waves:    2179
 k-point   2 :   0.0909 0.0000 0.0000  plane waves:    2162
 k-point   3 :   0.1818 0.0000 0.0000  plane waves:    2158
 k-point   4 :   0.2727-0.0000 0.0000  plane waves:    2160
 k-point   5 :   0.3636 0.0000 0.0000  plane waves:    2152
 k-point   6 :   0.4545 0.0000 0.0000  plane waves:    2148
 k-point   7 :   0.0909 0.0909 0.0000  plane waves:    2173
 k-point   8 :   0.1818 0.0909 0.0000  plane waves:    2158
 k-point   9 :   0.2727 0.0909 0.0000  plane waves:    2153
 k-point  10 :   0.3636 0.0909 0.0000  plane waves:    2151
 k-point  11 :   0.4545 0.0909 0.0000  plane waves:    2154
 k-point  12 :   0.1818 0.1818 0.0000  plane waves:    2153
 k-point  13 :   0.2727 0.1818 0.0000  plane waves:    2150
 k-point  14 :   0.3636 0.1818 0.0000  plane waves:    2134
 k-point  15 :   0.2727 0.2727 0.0000  plane waves:    2135
 k-point  16 :   0.3636 0.2727 0.0000  plane waves:    2128

 maximum and minimum number of plane-waves per node :      2179     2128

 maximum number of plane-waves:      2179
 maximum index in each direction: 
   IXMAX=    4   IYMAX=    4   IZMAX=   27
   IXMIN=   -5   IYMIN=   -4   IZMIN=  -27


 serial   3D FFT for wavefunctions
 parallel 3D FFT for charge:
    minimum data exchange during FFTs selected (reduces bandwidth)


 total amount of memory used by VASP MPI-rank0    46358. kBytes
=======================================================================

   base      :      30000. kBytes
   nonl-proj :       9048. kBytes
   fftplans  :       3539. kBytes
   grid      :       3096. kBytes
   one-center:         98. kBytes
   wavefun   :        577. kBytes
 
     INWAV:  cpu time      0.0000: real time      0.0000
 Broyden mixing: mesh for mixing (old mesh)
   NGX =  9   NGY =  9   NGZ = 55
  (NGX  = 40   NGY  = 40   NGZ  =224)
  gives a total of   4455 points

 initial charge density was supplied:
 charge density of overlapping atoms calculated
 number of electron      10.0000000 magnetization 
 keeping initial charge density in first step


--------------------------------------------------------------------------------------------------------


 Maximum index for augmentation-charges         3347 (set IRDMAX)


--------------------------------------------------------------------------------------------------------


 First call to EWALD:  gamma=   0.251
 Maximum number of real-space cells 5x 5x 1
 Maximum number of reciprocal cells 2x 2x 8

    FEWALD:  cpu time      0.0014: real time      0.0014


--------------------------------------- Ionic step        1  -------------------------------------------




--------------------------------------- Iteration      1(   1)  ---------------------------------------


    POTLOK:  cpu time      0.0142: real time      0.0431
    SETDIJ:  cpu time      0.3591: real time      0.3593
     EDDAV:  cpu time      0.1493: real time      0.1494
       DOS:  cpu time      0.0010: real time      0.0010
    --------------------------------------------
      LOOP:  cpu time      0.5236: real time      0.5528

 eigenvalue-minimisations  :   528
 total energy-change (2. order) : 0.2457769E+02  (-0.2002351E+03)
 number of electron      10.0000000 magnetization 
 augmentation part       10.0000000 magnetization 

 Free energy of the ion-electron system (eV)
  ---------------------------------------------------
  alpha Z        PSCENC =         1.98395647
  Ewald energy   TEWEN  =       616.86872450
  -Hartree energ DENC   =      -860.82644452
  -exchange      EXHF   =         0.00000000
  -V(xc)+E(xc)   XCENC  =       -92.70010106
  PAW double counting   =       327.35893868     -219.44694627
  entropy T*S    EENTRO =        -0.00000000
  eigenvalues    EBANDS =       -48.55260862
  atomic energy  EATOM  =       299.89217194
  Solvation  Ediel_sol  =         0.00000000
  ---------------------------------------------------
  free energy    TOTEN  =        24.57769113 eV

  energy without entropy =       24.57769113  energy(sigma->0) =       24.57769113


--------------------------------------------------------------------------------------------------------




--------------------------------------- Iteration      1(   2)  ---------------------------------------


     EDDAV:  cpu time      0.1622: real time      0.1660
       DOS:  cpu time      0.0003: real time      0.0003
    --------------------------------------------
      LOOP:  cpu time      0.1625: real time      0.1663

 eigenvalue-minimisations  :   736
 total energy-change (2. order) :-0.3198549E+02  (-0.3139906E+02)
 number of electron      10.0000000 magnetization 
 augmentation part       10.0000000 magnetization 

 Free energy of the ion-electron system (eV)
  ---------------------------------------------------
  alpha Z        PSCENC =         1.98395647
  Ewald energy   TEWEN  =       616.86872450
  -Hartree energ DENC   =      -860.82644452
  -exchange      EXHF   =         0.00000000
  -V(xc)+E(xc)   XCENC  =       -92.70010106
  PAW double counting   =       327.35893868     -219.44694627
  entropy T*S    EENTRO =        -0.00000000
  eigenvalues    EBANDS =       -80.53810268
  atomic energy  EATOM  =       299.89217194
  Solvation  Ediel_sol  =         0.00000000
  ---------------------------------------------------
  free energy    TOTEN  =        -7.40780293 eV

  energy without entropy =       -7.40780293  energy(sigma->0) =       -7.40780293


--------------------------------------------------------------------------------------------------------




--------------------------------------- Iteration      1(   3)  ---------------------------------------


     EDDAV:  cpu time      0.2078: real time      0.2081
       DOS:  cpu time      0.0005: real time      0.0005
    --------------------------------------------
      LOOP:  cpu time      0.2083: real time      0.2085

 eigenvalue-minimisations  :   560
 total energy-change (2. order) :-0.7527761E+00  (-0.7527761E+00)
 number of electron      10.0000000 magnetization 
 augmentation part       10.0000000 magnetization 

 Free energy of the ion-electron system (eV)
  ---------------------------------------------------
  alpha Z        PSCENC =         1.98395647
  Ewald energy   TEWEN  =       616.86872450
  -Hartree energ DENC   =      -860.82644452
  -exchange      EXHF   =         0.00000000
  -V(xc)+E(xc)   XCENC  =       -92.70010106
  PAW double counting   =       327.35893868     -219.44694627
  entropy T*S    EENTRO =        -0.00000000
  eigenvalues    EBANDS =       -81.29087878
  atomic energy  EATOM  =       299.89217194
  Solvation  Ediel_sol  =         0.00000000
  ---------------------------------------------------
  free energy    TOTEN  =        -8.16057903 eV

  energy without entropy =       -8.16057903  energy(sigma->0) =       -8.16057903


--------------------------------------------------------------------------------------------------------




--------------------------------------- Iteration      1(   4)  ---------------------------------------


     EDDAV:  cpu time      0.2998: real time      0.3001
       DOS:  cpu time      0.0004: real time      0.0004
    --------------------------------------------
      LOOP:  cpu time      0.3003: real time      0.3006

 eigenvalue-minimisations  :   960
 total energy-change (2. order) :-0.5705404E-02  (-0.5705404E-02)
 number of electron      10.0000000 magnetization 
 augmentation part       10.0000000 magnetization 

 Free energy of the ion-electron system (eV)
  ---------------------------------------------------
  alpha Z        PSCENC =         1.98395647
  Ewald energy   TEWEN  =       616.86872450
  -Hartree energ DENC   =      -860.82644452
  -exchange      EXHF   =         0.00000000
  -V(xc)+E(xc)   XCENC  =       -92.70010106
  PAW double counting   =       327.35893868     -219.44694627
  entropy T*S    EENTRO =        -0.00000000
  eigenvalues    EBANDS =       -81.29658418
  atomic energy  EATOM  =       299.89217194
  Solvation  Ediel_sol  =         0.00000000
  ---------------------------------------------------
  free energy    TOTEN  =        -8.16628444 eV

  energy without entropy =       -8.16628444  energy(sigma->0) =       -8.16628444


--------------------------------------------------------------------------------------------------------




--------------------------------------- Iteration      1(   5)  ---------------------------------------


     EDDAV:  cpu time      0.1565: real time      0.1567
       DOS:  cpu time      0.0003: real time      0.0003
    --------------------------------------------
      LOOP:  cpu time      0.1568: real time      0.1570

 eigenvalue-minimisations  :   608
 total energy-change (2. order) :-0.7592919E-05  (-0.7592918E-05)
 number of electron      10.0000000 magnetization 
 augmentation part       10.0000000 magnetization 

 Free energy of the ion-electron system (eV)
  ---------------------------------------------------
  alpha Z        PSCENC =         1.98395647
  Ewald energy   TEWEN  =       616.86872450
  -Hartree energ DENC   =      -860.82644452
  -exchange      EXHF   =         0.00000000
  -V(xc)+E(xc)   XCENC  =       -92.70010106
  PAW double counting   =       327.35893868     -219.44694627
  entropy T*S    EENTRO =        -0.00000000
  eigenvalues    EBANDS =       -81.29659178
  atomic energy  EATOM  =       299.89217194
  Solvation  Ediel_sol  =         0.00000000
  ---------------------------------------------------
  free energy    TOTEN  =        -8.16629203 eV

  energy without entropy =       -8.16629203  energy(sigma->0) =       -8.16629203


--------------------------------------------------------------------------------------------------------




--------------------------------------- Iteration      1(   6)  ---------------------------------------


     EDDAV:  cpu time      0.2240: real time      0.2241
       DOS:  cpu time      0.0003: real time      0.0003
    --------------------------------------------
      LOOP:  cpu time      0.2243: real time      0.2244

 eigenvalue-minimisations  :   992
 total energy-change (2. order) :-0.5028096E-07  (-0.5040282E-07)
 number of electron      10.0000000 magnetization 
 augmentation part       10.0000000 magnetization 

 Free energy of the ion-electron system (eV)
  ---------------------------------------------------
  alpha Z        PSCENC =         1.98395647
  Ewald energy   TEWEN  =       616.86872450
  -Hartree energ DENC   =      -860.82644452
  -exchange      EXHF   =         0.00000000
  -V(xc)+E(xc)   XCENC  =       -92.70010106
  PAW double counting   =       327.35893868     -219.44694627
  entropy T*S    EENTRO =        -0.00000000
  eigenvalues    EBANDS =       -81.29659183
  atomic energy  EATOM  =       299.89217194
  Solvation  Ediel_sol  =         0.00000000
  ---------------------------------------------------
  free energy    TOTEN  =        -8.16629208 eV

  energy without entropy =       -8.16629208  energy(sigma->0) =       -8.16629208


--------------------------------------------------------------------------------------------------------




--------------------------------------- Iteration      1(   7)  ---------------------------------------


     EDDAV:  cpu time      0.1430: real time      0.1433
       DOS:  cpu time      0.0003: real time      0.0003
    --------------------------------------------
      LOOP:  cpu time      0.1433: real time      0.1436

 eigenvalue-minimisations  :   656
 total energy-change (2. order) :-0.5059064E-11  (-0.2926814E-10)
 number of electron      10.0000000 magnetization 
 augmentation part       10.0000000 magnetization 

 Free energy of the ion-electron system (eV)
  ---------------------------------------------------
  alpha Z        PSCENC =         1.98395647
  Ewald energy   TEWEN  =       616.86872450
  -Hartree energ DENC   =      -860.82644452
  -exchange      EXHF   =         0.00000000
  -V(xc)+E(xc)   XCENC  =       -92.70010106
  PAW double counting   =       327.35893868     -219.44694627
  entropy T*S    EENTRO =        -0.00000000
  eigenvalues    EBANDS =       -81.29659183
  atomic energy  EATOM  =       299.89217194
  Solvation  Ediel_sol  =         0.00000000
  ---------------------------------------------------
  free energy    TOTEN  =        -8.16629208 eV

  energy without entropy =       -8.16629208  energy(sigma->0) =       -8.16629208


--------------------------------------------------------------------------------------------------------




--------------------------------------- Iteration      1(   8)  ---------------------------------------


     EDDAV:  cpu time      0.2384: real time      0.2386
       DOS:  cpu time      0.0003: real time      0.0003
    --------------------------------------------
      LOOP:  cpu time      0.2388: real time      0.2390

 eigenvalue-minimisations  :   976
 total energy-change (2. order) : 0.4490630E-11  (-0.1132479E-11)
 number of electron      10.0000000 magnetization 
 augmentation part       10.0000000 magnetization 

 Free energy of the ion-electron system (eV)
  ---------------------------------------------------
  alpha Z        PSCENC =         1.98395647
  Ewald energy   TEWEN  =       616.86872450
  -Hartree energ DENC   =      -860.82644452
  -exchange      EXHF   =         0.00000000
  -V(xc)+E(xc)   XCENC  =       -92.70010106
  PAW double counting   =       327.35893868     -219.44694627
  entropy T*S    EENTRO =        -0.00000000
  eigenvalues    EBANDS =       -81.29659183
  atomic energy  EATOM  =       299.89217194
  Solvation  Ediel_sol  =         0.00000000
  ---------------------------------------------------
  free energy    TOTEN  =        -8.16629208 eV

  energy without entropy =       -8.16629208  energy(sigma->0) =       -8.16629208


--------------------------------------------------------------------------------------------------------




--------------------------------------- Iteration      1(   9)  ---------------------------------------


     EDDAV:  cpu time      0.1475: real time      0.1476
       DOS:  cpu time      0.0003: real time      0.0003
    --------------------------------------------
      LOOP:  cpu time      0.1478: real time      0.1479

 eigenvalue-minimisations  :   560
 total energy-change (2. order) : 0.2273737E-12  ( 0.3497955E-12)
 number of electron      10.0000000 magnetization 
 augmentation part       10.0000000 magnetization 

 Free energy of the ion-electron system (eV)
  ---------------------------------------------------
  alpha Z        PSCENC =         1.98395647
  Ewald energy   TEWEN  =       616.86872450
  -Hartree energ DENC   =      -860.82644452
  -exchange      EXHF   =         0.00000000
  -V(xc)+E(xc)   XCENC  =       -92.70010106
  PAW double counting   =       327.35893868     -219.44694627
  entropy T*S    EENTRO =        -0.00000000
  eigenvalues    EBANDS =       -81.29659183
  atomic energy  EATOM  =       299.89217194
  Solvation  Ediel_sol  =         0.00000000
  ---------------------------------------------------
  free energy    TOTEN  =        -8.16629208 eV

  energy without entropy =       -8.16629208  energy(sigma->0) =       -8.16629208


--------------------------------------------------------------------------------------------------------




--------------------------------------- Iteration      1(  10)  ---------------------------------------


     EDDAV:  cpu time      0.1361: real time      0.1362
       DOS:  cpu time      0.0003: real time      0.0003
    --------------------------------------------
      LOOP:  cpu time      0.1364: real time      0.1365

 eigenvalue-minimisations  :   560
 total energy-change (2. order) : 0.0000000E+00  ( 0.2710045E-12)
 number of electron      10.0000000 magnetization 
 augmentation part       10.0000000 magnetization 

 Free energy of the ion-electron system (eV)
  ---------------------------------------------------
  alpha Z        PSCENC =         1.98395647
  Ewald energy   TEWEN  =       616.86872450
  -Hartree energ DENC   =      -860.82644452
  -exchange      EXHF   =         0.00000000
  -V(xc)+E(xc)   XCENC  =       -92.70010106
  PAW double counting   =       327.35893868     -219.44694627
  entropy T*S    EENTRO =        -0.00000000
  eigenvalues    EBANDS =       -81.29659183
  atomic energy  EATOM  =       299.89217194
  Solvation  Ediel_sol  =         0.00000000
  ---------------------------------------------------
  free energy    TOTEN  =        -8.16629208 eV

  energy without entropy =       -8.16629208  energy(sigma->0) =       -8.16629208


--------------------------------------------------------------------------------------------------------




--------------------------------------- Iteration      1(  11)  ---------------------------------------


     EDDAV:  cpu time      0.0845: real time      0.0846
       DOS:  cpu time      0.0003: real time      0.0003
    --------------------------------------------
      LOOP:  cpu time      0.0848: real time      0.0849

 eigenvalue-minimisations  :   368
 total energy-change (2. order) : 0.0000000E+00  ( 0.3573780E-12)
 number of electron      10.0000000 magnetization 
 augmentation part       10.0000000 magnetization 

 Free energy of the ion-electron system (eV)
  ---------------------------------------------------
  alpha Z        PSCENC =         1.98395647
  Ewald energy   TEWEN  =       616.86872450
  -Hartree energ DENC   =      -860.82644452
  -exchange      EXHF   =         0.00000000
  -V(xc)+E(xc)   XCENC  =       -92.70010106
  PAW double counting   =       327.35893868     -219.44694627
  entropy T*S    EENTRO =        -0.00000000
  eigenvalues    EBANDS =       -81.29659183
  atomic energy  EATOM  =       299.89217194
  Solvation  Ediel_sol  =         0.00000000
  ---------------------------------------------------
  free energy    TOTEN  =        -8.16629208 eV

  energy without entropy =       -8.16629208  energy(sigma->0) =       -8.16629208


--------------------------------------------------------------------------------------------------------




--------------------------------------- Iteration      1(  12)  ---------------------------------------


     EDDAV:  cpu time      0.1022: real time      0.1023
       DOS:  cpu time      0.0003: real time      0.0003
    CHARGE:  cpu time      0.0257: real time      0.0257
    MIXING:  cpu time      0.0008: real time      0.0008
    --------------------------------------------
      LOOP:  cpu time      0.1291: real time      0.1292

 eigenvalue-minimisations  :   400
 total energy-change (2. order) : 0.2273737E-12  ( 0.4573678E-12)
 number of electron      10.0000000 magnetization 
 augmentation part       -1.6409670 magnetization 

 Broyden mixing:
  rms(total) = 0.15917E+00    rms(broyden)= 0.15857E+00
  rms(prec ) = 0.16981E+00
  weight for this iteration     100.00

 Free energy of the ion-electron system (eV)
  ---------------------------------------------------
  alpha Z        PSCENC =         1.98395647
  Ewald energy   TEWEN  =       616.86872450
  -Hartree energ DENC   =      -860.82644452
  -exchange      EXHF   =         0.00000000
  -V(xc)+E(xc)   XCENC  =       -92.70010106
  PAW double counting   =       327.35893868     -219.44694627
  entropy T*S    EENTRO =        -0.00000000
  eigenvalues    EBANDS =       -81.29659183
  atomic energy  EATOM  =       299.89217194
  Solvation  Ediel_sol  =         0.00000000
  ---------------------------------------------------
  free energy    TOTEN  =        -8.16629208 eV

  energy without entropy =       -8.16629208  energy(sigma->0) =       -8.16629208


--------------------------------------------------------------------------------------------------------




--------------------------------------- Iteration      1(  13)  ---------------------------------------


    POTLOK:  cpu time      0.0124: real time      0.0124
    SETDIJ:  cpu time      0.3612: real time      0.3613
     EDDAV:  cpu time      0.1698: real time      0.1699
       DOS:  cpu time      0.0003: real time      0.0003
    CHARGE:  cpu time      0.0238: real time      0.0238
    MIXING:  cpu time      0.0008: real time      0.0008
    --------------------------------------------
      LOOP:  cpu time      0.5683: real time      0.5685

 eigenvalue-minimisations  :   784
 total energy-change (2. order) : 0.1543106E-01  (-0.3558378E-03)
 number of electron      10.0000000 magnetization 
 augmentation part       -1.6384878 magnetization 

 Broyden mixing:
  rms(total) = 0.14128E+00    rms(broyden)= 0.14125E+00
  rms(prec ) = 0.15101E+00
  weight for this iteration     100.00

 eigenvalues of (default mixing * dielectric matrix)
  average eigenvalue GAMMA=   8.9426
  8.9426

 Free energy of the ion-electron system (eV)
  ---------------------------------------------------
  alpha Z        PSCENC =         1.98395647
  Ewald energy   TEWEN  =       616.86872450
  -Hartree energ DENC   =      -861.66453514
  -exchange      EXHF   =         0.00000000
  -V(xc)+E(xc)   XCENC  =       -92.65906534
  PAW double counting   =       331.64481060     -223.75001549
  entropy T*S    EENTRO =        -0.00000000
  eigenvalues    EBANDS =       -80.46690855
  atomic energy  EATOM  =       299.89217194
  Solvation  Ediel_sol  =         0.00000000
  ---------------------------------------------------
  free energy    TOTEN  =        -8.15086102 eV

  energy without entropy =       -8.15086102  energy(sigma->0) =       -8.15086102


--------------------------------------------------------------------------------------------------------




--------------------------------------- Iteration      1(  14)  ---------------------------------------


    POTLOK:  cpu time      0.0124: real time      0.0124
    SETDIJ:  cpu time      0.3586: real time      0.3588
     EDDAV:  cpu time      0.1689: real time      0.1690
       DOS:  cpu time      0.0003: real time      0.0003
    CHARGE:  cpu time      0.0235: real time      0.0235
    MIXING:  cpu time      0.0007: real time      0.0006
    --------------------------------------------
      LOOP:  cpu time      0.5643: real time      0.5646

 eigenvalue-minimisations  :   784
 total energy-change (2. order) : 0.2928307E-01  (-0.1729578E-01)
 number of electron      10.0000000 magnetization 
 augmentation part       -1.6199009 magnetization 

 Broyden mixing:
  rms(total) = 0.20599E-01    rms(broyden)= 0.20596E-01
  rms(prec ) = 0.24386E-01
  weight for this iteration     100.00

 eigenvalues of (default mixing * dielectric matrix)
  average eigenvalue GAMMA=   6.7715
  3.7471  9.7959

 Free energy of the ion-electron system (eV)
  ---------------------------------------------------
  alpha Z        PSCENC =         1.98395647
  Ewald energy   TEWEN  =       616.86872450
  -Hartree energ DENC   =      -867.97683238
  -exchange      EXHF   =         0.00000000
  -V(xc)+E(xc)   XCENC  =       -92.30737084
  PAW double counting   =       366.18681050     -258.42438850
  entropy T*S    EENTRO =        -0.00000000
  eigenvalues    EBANDS =       -74.34464965
  atomic energy  EATOM  =       299.89217194
  Solvation  Ediel_sol  =         0.00000000
  ---------------------------------------------------
  free energy    TOTEN  =        -8.12157796 eV

  energy without entropy =       -8.12157796  energy(sigma->0) =       -8.12157796


--------------------------------------------------------------------------------------------------------




--------------------------------------- Iteration      1(  15)  ---------------------------------------


    POTLOK:  cpu time      0.0125: real time      0.0125
    SETDIJ:  cpu time      0.3627: real time      0.3629
     EDDAV:  cpu time      0.1931: real time      0.1933
       DOS:  cpu time      0.0005: real time      0.0005
    CHARGE:  cpu time      0.0233: real time      0.0234
    MIXING:  cpu time      0.0007: real time      0.0007
    --------------------------------------------
      LOOP:  cpu time      0.5929: real time      0.5933

 eigenvalue-minimisations  :   848
 total energy-change (2. order) : 0.3657711E-02  (-0.1151606E-02)
 number of electron      10.0000000 magnetization 
 augmentation part       -1.6229603 magnetization 

 Broyden mixing:
  rms(total) = 0.84742E-02    rms(broyden)= 0.84704E-02
  rms(prec ) = 0.97493E-02
  weight for this iteration     100.00

 eigenvalues of (default mixing * dielectric matrix)
  average eigenvalue GAMMA=   5.3671
  9.6621  0.9436  5.4957

 Free energy of the ion-electron system (eV)
  ---------------------------------------------------
  alpha Z        PSCENC =         1.98395647
  Ewald energy   TEWEN  =       616.86872450
  -Hartree energ DENC   =      -867.01167430
  -exchange      EXHF   =         0.00000000
  -V(xc)+E(xc)   XCENC  =       -92.28866793
  PAW double counting   =       367.75465689     -259.99115891
  entropy T*S    EENTRO =        -0.00000000
  eigenvalues    EBANDS =       -75.32592890
  atomic energy  EATOM  =       299.89217194
  Solvation  Ediel_sol  =         0.00000000
  ---------------------------------------------------
  free energy    TOTEN  =        -8.11792025 eV

  energy without entropy =       -8.11792025  energy(sigma->0) =       -8.11792025


--------------------------------------------------------------------------------------------------------




--------------------------------------- Iteration      1(  16)  ---------------------------------------


    POTLOK:  cpu time      0.0125: real time      0.0125
    SETDIJ:  cpu time      0.3584: real time      0.3586
     EDDAV:  cpu time      0.2033: real time      0.2035
       DOS:  cpu time      0.0003: real time      0.0003
    CHARGE:  cpu time      0.0233: real time      0.0233
    MIXING:  cpu time      0.0006: real time      0.0006
    --------------------------------------------
      LOOP:  cpu time      0.5985: real time      0.5989

 eigenvalue-minimisations  :   864
 total energy-change (2. order) : 0.5159029E-03  (-0.3658572E-03)
 number of electron      10.0000000 magnetization 
 augmentation part       -1.6253132 magnetization 

 Broyden mixing:
  rms(total) = 0.45766E-02    rms(broyden)= 0.45747E-02
  rms(prec ) = 0.50661E-02
  weight for this iteration     100.00

 eigenvalues of (default mixing * dielectric matrix)
  average eigenvalue GAMMA=   5.3000
  0.9929  9.1630  5.5221  5.5221

 Free energy of the ion-electron system (eV)
  ---------------------------------------------------
  alpha Z        PSCENC =         1.98395647
  Ewald energy   TEWEN  =       616.86872450
  -Hartree energ DENC   =      -866.33526506
  -exchange      EXHF   =         0.00000000
  -V(xc)+E(xc)   XCENC  =       -92.29620446
  PAW double counting   =       366.88263811     -259.11305156
  entropy T*S    EENTRO =        -0.00000000
  eigenvalues    EBANDS =       -76.00037428
  atomic energy  EATOM  =       299.89217194
  Solvation  Ediel_sol  =         0.00000000
  ---------------------------------------------------
  free energy    TOTEN  =        -8.11740434 eV

  energy without entropy =       -8.11740434  energy(sigma->0) =       -8.11740434


--------------------------------------------------------------------------------------------------------




--------------------------------------- Iteration      1(  17)  ---------------------------------------


    POTLOK:  cpu time      0.0125: real time      0.0125
    SETDIJ:  cpu time      0.3538: real time      0.3539
     EDDAV:  cpu time      0.1784: real time      0.1786
       DOS:  cpu time      0.0003: real time      0.0003
    CHARGE:  cpu time      0.0245: real time      0.0245
    MIXING:  cpu time      0.0011: real time      0.0011
    --------------------------------------------
      LOOP:  cpu time      0.5705: real time      0.5708

 eigenvalue-minimisations  :   736
 total energy-change (2. order) : 0.1033608E-03  (-0.7087129E-04)
 number of electron      10.0000000 magnetization 
 augmentation part       -1.6251947 magnetization 

 Broyden mixing:
  rms(total) = 0.21728E-02    rms(broyden)= 0.21724E-02
  rms(prec ) = 0.23463E-02
  weight for this iteration     100.00

 eigenvalues of (default mixing * dielectric matrix)
  average eigenvalue GAMMA=   4.9340
 10.0106  7.8468  4.7270  0.9844  1.1014

 Free energy of the ion-electron system (eV)
  ---------------------------------------------------
  alpha Z        PSCENC =         1.98395647
  Ewald energy   TEWEN  =       616.86872450
  -Hartree energ DENC   =      -866.44367701
  -exchange      EXHF   =         0.00000000
  -V(xc)+E(xc)   XCENC  =       -92.29792290
  PAW double counting   =       366.42758814     -258.65677528
  entropy T*S    EENTRO =        -0.00000000
  eigenvalues    EBANDS =       -75.89136684
  atomic energy  EATOM  =       299.89217194
  Solvation  Ediel_sol  =         0.00000000
  ---------------------------------------------------
  free energy    TOTEN  =        -8.11730098 eV

  energy without entropy =       -8.11730098  energy(sigma->0) =       -8.11730098


--------------------------------------------------------------------------------------------------------




--------------------------------------- Iteration      1(  18)  ---------------------------------------


    POTLOK:  cpu time      0.0128: real time      0.0128
    SETDIJ:  cpu time      0.3494: real time      0.3495
     EDDAV:  cpu time      0.1928: real time      0.1929
       DOS:  cpu time      0.0003: real time      0.0003
    CHARGE:  cpu time      0.0267: real time      0.0267
    MIXING:  cpu time      0.0007: real time      0.0007
    --------------------------------------------
      LOOP:  cpu time      0.5826: real time      0.5830

 eigenvalue-minimisations  :   720
 total energy-change (2. order) :-0.7668206E-05  (-0.1033329E-04)
 number of electron      10.0000000 magnetization 
 augmentation part       -1.6256757 magnetization 

 Broyden mixing:
  rms(total) = 0.48820E-03    rms(broyden)= 0.48791E-03
  rms(prec ) = 0.52727E-03
  weight for this iteration     100.00

 eigenvalues of (default mixing * dielectric matrix)
  average eigenvalue GAMMA=   4.7557
  9.9584  7.1189  4.7275  4.7275  1.0009  1.0009

 Free energy of the ion-electron system (eV)
  ---------------------------------------------------
  alpha Z        PSCENC =         1.98395647
  Ewald energy   TEWEN  =       616.86872450
  -Hartree energ DENC   =      -866.33461751
  -exchange      EXHF   =         0.00000000
  -V(xc)+E(xc)   XCENC  =       -92.29518446
  PAW double counting   =       366.54440039     -258.77315784
  entropy T*S    EENTRO =        -0.00000000
  eigenvalues    EBANDS =       -76.00360214
  atomic energy  EATOM  =       299.89217194
  Solvation  Ediel_sol  =         0.00000000
  ---------------------------------------------------
  free energy    TOTEN  =        -8.11730865 eV

  energy without entropy =       -8.11730865  energy(sigma->0) =       -8.11730865


--------------------------------------------------------------------------------------------------------




--------------------------------------- Iteration      1(  19)  ---------------------------------------


    POTLOK:  cpu time      0.0133: real time      0.0133
    SETDIJ:  cpu time      0.3573: real time      0.3574
     EDDAV:  cpu time      0.1376: real time      0.1377
       DOS:  cpu time      0.0003: real time      0.0003
    --------------------------------------------
      LOOP:  cpu time      0.5085: real time      0.5087

 eigenvalue-minimisations  :   608
 total energy-change (2. order) : 0.7647810E-07  (-0.2928443E-06)
 number of electron      10.0000000 magnetization 
 augmentation part       -1.6256757 magnetization 

 Free energy of the ion-electron system (eV)
  ---------------------------------------------------
  alpha Z        PSCENC =         1.98395647
  Ewald energy   TEWEN  =       616.86872450
  -Hartree energ DENC   =      -866.34114952
  -exchange      EXHF   =         0.00000000
  -V(xc)+E(xc)   XCENC  =       -92.29524434
  PAW double counting   =       366.57269115     -258.80194939
  entropy T*S    EENTRO =        -0.00000000
  eigenvalues    EBANDS =       -75.99650937
  atomic energy  EATOM  =       299.89217194
  Solvation  Ediel_sol  =         0.00000000
  ---------------------------------------------------
  free energy    TOTEN  =        -8.11730857 eV

  energy without entropy =       -8.11730857  energy(sigma->0) =       -8.11730857


--------------------------------------------------------------------------------------------------------




 average (electrostatic) potential at core
  the test charge radii are     1.1712
  (the norm of the test charge is              1.0000)
       1 -81.7538       2 -81.7539
 
 
 
 E-fermi :  -3.0875     XC(G=0):  -2.2529     alpha+bet : -1.7750

 Fermi energy:        -3.0875473428

 k-point     1 :       0.0000    0.0000    0.0000
  band No.  band energies     occupation 
      1     -14.4123      2.00000
      2      -9.4392      2.00000
      3      -3.7381      2.00000
      4      -3.1314      2.00000
      5      -3.1314      2.00000
      6      -1.5650      0.00000
      7      -0.3411      0.00000
      8      -0.3411      0.00000
      9       1.1603      0.00000
     10       1.4004      0.00000
     11       1.9446      0.00000
     12       2.3402      0.00000
     13       3.2160      0.00000
     14       3.7971      0.00000
     15       3.9970      0.00000
     16       5.0374      0.00000

 k-point     2 :       0.0909    0.0000    0.0000
  band No.  band energies     occupation 
      1     -14.3245      2.00000
      2      -9.4365      2.00000
      3      -3.9569      2.00000
      4      -3.7001      2.00000
      5      -3.3304      2.00000
      6      -1.0441      0.00000
      7      -0.4128      0.00000
      8      -0.1501      0.00000
      9       1.2788      0.00000
     10       1.5003      0.00000
     11       2.0409      0.00000
     12       2.4407      0.00000
     13       3.2984      0.00000
     14       3.8928      0.00000
     15       4.0263      0.00000
     16       4.6223      0.00000

 k-point     3 :       0.1818    0.0000    0.0000
  band No.  band energies     occupation 
      1     -14.0646      2.00000
      2      -9.4772      2.00000
      3      -5.1024      2.00000
      4      -3.7538      2.00000
      5      -3.6346      2.00000
      6      -1.4519      0.00000
      7       0.1930      0.00000
      8       0.2367      0.00000
      9       1.5438      0.00000
     10       1.7956      0.00000
     11       2.3114      0.00000
     12       2.7130      0.00000
     13       3.2338      0.00000
     14       3.8456      0.00000
     15       4.2019      0.00000
     16       4.5875      0.00000

 k-point     4 :       0.2727   -0.0000    0.0000
  band No.  band energies     occupation 
      1     -13.6460      2.00000
      2      -9.7071      2.00000
      3      -5.9040      2.00000
      4      -4.1780      2.00000
      5      -3.7235      2.00000
      6      -1.8452      0.00000
      7       0.2404      0.00000
      8       0.3974      0.00000
      9       1.8687      0.00000
     10       2.2074      0.00000
     11       2.7276      0.00000
     12       3.1297      0.00000
     13       3.3860      0.00000
     14       4.2856      0.00000
     15       4.5421      0.00000
     16       4.7711      0.00000

 k-point     5 :       0.3636    0.0000    0.0000
  band No.  band energies     occupation 
      1     -13.1072      2.00000
      2     -10.2267      2.00000
      3      -6.1749      2.00000
      4      -4.4958      2.00000
      5      -4.1128      2.00000
      6      -1.8070      0.00000
      7      -0.2340      0.00000
      8       0.4371      0.00000
      9       2.2602      0.00000
     10       2.5049      0.00000
     11       3.1867      0.00000
     12       3.6375      0.00000
     13       3.8445      0.00000
     14       4.5906      0.00000
     15       5.1611      0.00000
     16       5.2434      0.00000

 k-point     6 :       0.4545    0.0000    0.0000
  band No.  band energies     occupation 
      1     -12.5937      2.00000
      2     -10.8018      2.00000
      3      -6.1034      2.00000
      4      -4.6632      2.00000
      5      -4.5244      2.00000
      6      -1.5645      0.00000
      7      -0.6284      0.00000
      8       0.4208      0.00000
      9       2.0003      0.00000
     10       3.3239      0.00000
     11       3.8072      0.00000
     12       4.1917      0.00000
     13       4.4431      0.00000
     14       4.6983      0.00000
     15       4.7382      0.00000
     16       5.1547      0.00000

 k-point     7 :       0.0909    0.0909    0.0000
  band No.  band energies     occupation 
      1     -14.1506      2.00000
      2      -9.4545      2.00000
      3      -4.7585      2.00000
      4      -3.7931      2.00000
      5      -3.6311      2.00000
      6      -0.8045      0.00000
      7      -0.5964      0.00000
      8       0.3677      0.00000
      9       1.4996      0.00000
     10       1.6757      0.00000
     11       2.2152      0.00000
     12       2.6351      0.00000
     13       3.1972      0.00000
     14       3.8488      0.00000
     15       4.0794      0.00000
     16       4.6565      0.00000

 k-point     8 :       0.1818    0.0909    0.0000
  band No.  band energies     occupation 
      1     -13.8103      2.00000
      2      -9.5867      2.00000
      3      -5.5767      2.00000
      4      -4.3873      2.00000
      5      -3.6132      2.00000
      6      -1.2607      0.00000
      7      -0.1235      0.00000
      8       0.5565      0.00000
      9       1.7738      0.00000
     10       2.0295      0.00000
     11       2.5397      0.00000
     12       2.9718      0.00000
     13       3.1462      0.00000
     14       4.1067      0.00000
     15       4.4140      0.00000
     16       4.5621      0.00000

 k-point     9 :       0.2727    0.0909    0.0000
  band No.  band energies     occupation 
      1     -13.3253      2.00000
      2      -9.9737      2.00000
      3      -6.0455      2.00000
      4      -4.8268      2.00000
      5      -3.8178      2.00000
      6      -1.4766      0.00000
      7       0.0654      0.00000
      8       0.2052      0.00000
      9       2.2227      0.00000
     10       2.4320      0.00000
     11       2.9895      0.00000
     12       3.4264      0.00000
     13       3.5892      0.00000
     14       4.4536      0.00000
     15       4.6293      0.00000
     16       5.0236      0.00000

 k-point    10 :       0.3636    0.0909    0.0000
  band No.  band energies     occupation 
      1     -12.7647      2.00000
      2     -10.5708      2.00000
      3      -6.1297      2.00000
      4      -5.0133      2.00000
      5      -4.2668      2.00000
      6      -1.3054      0.00000
      7      -0.4010      0.00000
      8       0.2090      0.00000
      9       2.2528      0.00000
     10       2.9871      0.00000
     11       3.5829      0.00000
     12       4.0371      0.00000
     13       4.3243      0.00000
     14       4.6791      0.00000
     15       5.0969      0.00000
     16       5.2048      0.00000

 k-point    11 :       0.4545    0.0909    0.0000
  band No.  band energies     occupation 
      1     -12.4267      2.00000
      2     -10.9449      2.00000
      3      -6.1014      2.00000
      4      -4.9681      2.00000
      5      -4.5882      2.00000
      6      -1.0040      0.00000
      7      -0.7960      0.00000
      8       0.2373      0.00000
      9       2.0641      0.00000
     10       3.8854      0.00000
     11       3.8902      0.00000
     12       4.2396      0.00000
     13       4.5307      0.00000
     14       4.8142      0.00000
     15       4.9545      0.00000
     16       5.2885      0.00000

 k-point    12 :       0.1818    0.1818    0.0000
  band No.  band energies     occupation 
      1     -13.3999      2.00000
      2      -9.8796      2.00000
      3      -5.8300      2.00000
      4      -5.2216      2.00000
      5      -3.7092      2.00000
      6      -0.9088      0.00000
      7      -0.4734      0.00000
      8       0.6197      0.00000
      9       2.2437      0.00000
     10       2.2847      0.00000
     11       2.8613      0.00000
     12       3.2999      0.00000
     13       3.4803      0.00000
     14       4.1211      0.00000
     15       4.5145      0.00000
     16       4.9443      0.00000

 k-point    13 :       0.2727    0.1818    0.0000
  band No.  band energies     occupation 
      1     -12.8672      2.00000
      2     -10.3919      2.00000
      3      -5.9992      2.00000
      4      -5.5896      2.00000
      5      -4.0351      2.00000
      6      -0.9785      0.00000
      7      -0.4973      0.00000
      8       0.5407      0.00000
      9       2.6460      0.00000
     10       2.8551      0.00000
     11       3.4218      0.00000
     12       3.8567      0.00000
     13       3.9803      0.00000
     14       4.1653      0.00000
     15       4.7647      0.00000
     16       5.4977      0.00000

 k-point    14 :       0.3636    0.1818    0.0000
  band No.  band energies     occupation 
      1     -12.3359      2.00000
      2     -10.9506      2.00000
      3      -6.2601      2.00000
      4      -5.3301      2.00000
      5      -4.4912      2.00000
      6      -1.1472      0.00000
      7      -0.1859      0.00000
      8       0.2518      0.00000
      9       2.5256      0.00000
     10       3.6571      0.00000
     11       4.0422      0.00000
     12       4.3639      0.00000
     13       4.6289      0.00000
     14       4.7286      0.00000
     15       5.0175      0.00000
     16       5.2655      0.00000

 k-point    15 :       0.2727    0.2727    0.0000
  band No.  band energies     occupation 
      1     -12.3149      2.00000
      2     -10.9221      2.00000
      3      -6.3816      2.00000
      4      -5.4503      2.00000
      5      -4.3992      2.00000
      6      -1.3485      0.00000
      7      -0.1397      0.00000
      8       0.7072      0.00000
      9       3.3635      0.00000
     10       3.4995      0.00000
     11       3.7233      0.00000
     12       3.8527      0.00000
     13       4.3456      0.00000
     14       4.8480      0.00000
     15       4.9297      0.00000
     16       5.5702      0.00000

 k-point    16 :       0.3636    0.2727    0.0000
  band No.  band energies     occupation 
      1     -11.8942      2.00000
      2     -11.3364      2.00000
      3      -6.5825      2.00000
      4      -5.1225      2.00000
      5      -4.7326      2.00000
      6      -1.5529      0.00000
      7       0.2827      0.00000
      8       0.4782      0.00000
      9       3.4335      0.00000
     10       3.6136      0.00000
     11       4.4316      0.00000
     12       4.4967      0.00000
     13       4.6667      0.00000
     14       5.2548      0.00000
     15       5.2608      0.00000
     16       5.3203      0.00000


--------------------------------------------------------------------------------------------------------


 soft charge-density along one line, spin component           1
         0         1         2         3         4         5         6         7         8         9
 total charge-density along one line
 
 pseudopotential strength for first ion, spin component:           1
 34.275 -21.214   0.000   0.076   0.000  -0.000  -0.129  -0.000
-21.214  31.189  -0.000  -0.033  -0.000   0.000   0.044   0.000
  0.000  -0.000   7.255  -0.000   0.000 -12.234   0.000  -0.000
  0.076  -0.033  -0.000   7.249  -0.000   0.000 -12.227   0.000
  0.000  -0.000   0.000  -0.000   7.255  -0.000   0.000 -12.234
 -0.000   0.000 -12.234   0.000  -0.000  31.746  -0.000   0.000
 -0.129   0.044   0.000 -12.227   0.000  -0.000  31.736  -0.000
 -0.000   0.000  -0.000   0.000 -12.234   0.000  -0.000  31.746
  0.000  -0.000   0.000  -0.000  -0.001  -0.000   0.000   0.004
 -0.000   0.000   0.022   0.000  -0.000  -0.037  -0.000   0.000
 -0.009   0.005  -0.000   0.027  -0.000   0.000  -0.048   0.000
 -0.000   0.000  -0.000   0.000   0.022   0.000  -0.000  -0.037
 -0.000   0.000  -0.001   0.000   0.000   0.004  -0.000  -0.000
 -0.000   0.000  -0.000   0.000   0.002   0.000  -0.000  -0.007
  0.000  -0.000  -0.052  -0.000   0.000   0.084   0.000  -0.000
  0.016  -0.005   0.000  -0.064   0.000  -0.000   0.107  -0.000
  0.000  -0.000   0.000  -0.000  -0.052  -0.000   0.000   0.084
  0.000  -0.000   0.002  -0.000  -0.000  -0.007   0.000   0.000
  0.001  -0.002  -0.000  -0.000   0.000  -0.000   0.000   0.000
 -0.000  -0.000  -0.000   0.000  -0.000  -0.000   0.000   0.001
 -0.000  -0.000  -0.002  -0.000  -0.000  -0.000  -0.000  -0.000
 -0.001   0.001   0.000  -0.002   0.000  -0.000  -0.001   0.000
  0.000   0.000  -0.000  -0.000  -0.002  -0.000   0.000  -0.000
  0.000   0.000  -0.000  -0.000  -0.000   0.001  -0.000  -0.000
  0.000   0.000  -0.000  -0.000  -0.000  -0.000  -0.000  -0.000
  0.007  -0.002   0.000   0.000  -0.000  -0.000  -0.001   0.000
  0.000   0.000   0.000  -0.000   0.000  -0.000   0.000  -0.001
  0.000   0.000   0.007   0.000   0.000  -0.007  -0.000  -0.000
 -0.006   0.002  -0.000   0.008  -0.000   0.000  -0.007   0.000
 -0.000  -0.000   0.000   0.000   0.007  -0.000  -0.000  -0.007
 -0.000  -0.000   0.000   0.000   0.000  -0.001  -0.000  -0.000
 -0.000  -0.000   0.000   0.000   0.000  -0.000  -0.000  -0.000
 total augmentation occupancy for first ion, spin component:           1
  1.957   0.003   0.000  -0.223  -0.000   0.000  -0.002   0.000   0.000   0.000  -0.008   0.000   0.000  -0.000   0.000   0.001
  0.003   0.001   0.000   0.023  -0.000  -0.000   0.000   0.000   0.000   0.000  -0.000   0.000   0.000   0.000   0.000  -0.000
  0.000   0.000   1.075   0.000   0.000   0.018  -0.000   0.000  -0.000   0.141  -0.000   0.000   0.079  -0.000   0.006  -0.000
 -0.223   0.023   0.000   1.198  -0.000   0.000   0.018  -0.000  -0.000   0.000   0.034  -0.000  -0.000   0.000   0.000  -0.001
  0.000  -0.000   0.000  -0.000   1.075   0.000   0.000   0.018   0.079   0.000  -0.000   0.141   0.000   0.004   0.000  -0.000
  0.000  -0.000   0.018   0.000   0.000   0.000   0.000   0.000  -0.000   0.003  -0.000   0.000   0.001  -0.000   0.000  -0.000
 -0.002   0.000  -0.000   0.018   0.000   0.000   0.000   0.000  -0.000   0.000   0.001   0.000  -0.000  -0.000  -0.000   0.000
  0.000   0.000   0.000   0.000   0.018   0.000   0.000   0.000   0.001   0.000  -0.000   0.003   0.000   0.000   0.000  -0.000
  0.000   0.000  -0.000  -0.000   0.079  -0.000  -0.000   0.001   0.020  -0.000  -0.000   0.012   0.000   0.001  -0.000  -0.000
  0.000   0.000   0.141   0.000   0.000   0.003   0.000   0.000  -0.000   0.028  -0.000   0.000   0.012  -0.000   0.001  -0.000
 -0.008  -0.000  -0.000   0.034  -0.000  -0.000   0.001  -0.000  -0.000  -0.000   0.012  -0.000  -0.000  -0.000  -0.000   0.001
  0.000   0.000   0.000  -0.000   0.141   0.000   0.000   0.003   0.012   0.000  -0.000   0.028   0.000   0.001   0.000  -0.000
  0.000   0.000   0.079  -0.000   0.000   0.001  -0.000   0.000  -0.000   0.012  -0.000   0.000   0.020   0.000   0.001  -0.000
 -0.000   0.000  -0.000   0.000   0.004  -0.000  -0.000   0.000   0.001  -0.000  -0.000   0.001  -0.000   0.000  -0.000  -0.000
  0.000   0.000   0.006  -0.000   0.000   0.000  -0.000   0.000  -0.000   0.001  -0.000   0.000   0.001  -0.000   0.000  -0.000
  0.001  -0.000  -0.000  -0.001  -0.000  -0.000   0.000  -0.000  -0.000  -0.000   0.001  -0.000  -0.000  -0.000  -0.000   0.000
 -0.000   0.000   0.000  -0.000   0.006   0.000  -0.000   0.000   0.001   0.000  -0.000   0.001   0.000   0.000   0.000  -0.000
 -0.000   0.000   0.004   0.000   0.000   0.000  -0.000   0.000   0.000   0.001  -0.000   0.000   0.001  -0.000   0.000  -0.000
  0.007   0.001  -0.000   0.029  -0.000  -0.000   0.000  -0.000   0.000  -0.000  -0.002  -0.000   0.000   0.000  -0.000  -0.000
  0.000   0.000  -0.000   0.000   0.038  -0.000   0.000   0.001   0.007  -0.000  -0.000   0.007   0.000   0.000  -0.000  -0.000
 -0.000  -0.000   0.013  -0.000   0.000   0.000  -0.000   0.000  -0.000   0.006   0.000   0.000   0.001  -0.000   0.000   0.000
 -0.006  -0.001  -0.000  -0.030  -0.000  -0.000  -0.000  -0.000  -0.000  -0.000   0.001  -0.000  -0.000  -0.000  -0.000   0.000
 -0.000  -0.000   0.000  -0.000   0.013   0.000  -0.000   0.000   0.001   0.000   0.000   0.006   0.000   0.000   0.000   0.000
  0.000   0.000   0.038   0.000   0.000   0.001   0.000   0.000   0.000   0.007  -0.000   0.000   0.007   0.000   0.000  -0.000
  0.000   0.000   0.000   0.000  -0.000   0.000   0.000  -0.000  -0.000   0.000  -0.000  -0.000   0.000  -0.000   0.000  -0.000
  0.002   0.000  -0.000   0.005  -0.000  -0.000   0.000  -0.000   0.000  -0.000  -0.000  -0.000   0.000   0.000  -0.000  -0.000
  0.000   0.000  -0.000   0.000   0.007  -0.000   0.000   0.000   0.001  -0.000  -0.000   0.001   0.000   0.000  -0.000  -0.000
 -0.000  -0.000   0.003  -0.000   0.000   0.000  -0.000   0.000  -0.000   0.001  -0.000   0.000   0.000  -0.000   0.000   0.000
 -0.002  -0.000  -0.000  -0.005  -0.000  -0.000  -0.000  -0.000  -0.000  -0.000   0.000  -0.000  -0.000  -0.000  -0.000   0.000
 -0.000  -0.000   0.000  -0.000   0.003   0.000  -0.000   0.000   0.000   0.000  -0.000   0.001   0.000   0.000   0.000   0.000
  0.000   0.000   0.007   0.000   0.000   0.000   0.000   0.000   0.000   0.001  -0.000   0.000   0.001   0.000   0.000  -0.000
  0.000   0.000   0.000   0.000  -0.000   0.000   0.000  -0.000  -0.000   0.000  -0.000  -0.000   0.000  -0.000   0.000  -0.000


------------------------ aborting loop because EDIFF is reached ----------------------------------------





 total charge

# of ion       s       p       d       f       tot
--------------------------------------------------
    1        1.581   1.846   0.079   0.012   3.518
    2        1.581   1.846   0.079   0.012   3.518
--------------------------------------------------
tot          3.162   3.692   0.158   0.025   7.036
 


--------------------------------------------------------------------------------------------------------



  FREE ENERGIE OF THE ION-ELECTRON SYSTEM (eV)
  ---------------------------------------------------
  free  energy   TOTEN  =        -8.11730857 eV

  energy  without entropy=       -8.11730857  energy(sigma->0) =       -8.11730857
 


--------------------------------------------------------------------------------------------------------




--------------------------------------------------------------------------------------------------------


 Linear response reoptimize wavefunctions
 Linear response G [H, r] |phi>, progress :
  Direction:   1


----------------------------------------- Iteration    1(   1)  ---------------------------------------


    HAMIL1:  cpu time      0.0334: real time      0.0335
    LRDIAG:  cpu time      0.0051: real time      0.0051
    LRDIIS:  cpu time      0.0653: real time      0.0654
    --------------------------------------------
      LOOP:  cpu time      0.1039: real time      0.1040

  free energy    TOTEN  =       -44.34274894 eV
  ---------------------------------------------------


----------------------------------------- Iteration    1(   2)  ---------------------------------------


    HAMIL1:  cpu time      0.0290: real time      0.1177
    LRDIAG:  cpu time      0.0050: real time      0.0050
    LRDIIS:  cpu time      0.1526: real time      0.1527
    --------------------------------------------
      LOOP:  cpu time      0.1866: real time      0.2754

  free energy    TOTEN  =       -50.01603062 eV
  ---------------------------------------------------


----------------------------------------- Iteration    1(   3)  ---------------------------------------


    HAMIL1:  cpu time      0.0290: real time      0.1206
    LRDIAG:  cpu time      0.0049: real time      0.0049
    LRDIIS:  cpu time      0.1623: real time      0.1624
    --------------------------------------------
      LOOP:  cpu time      0.1962: real time      0.2879

  free energy    TOTEN  =       -50.60559466 eV
  ---------------------------------------------------


----------------------------------------- Iteration    1(   4)  ---------------------------------------


    LRDIAG:  cpu time      0.0055: real time      0.0991
    LRDIIS:  cpu time      0.1557: real time      0.1558
    --------------------------------------------
      LOOP:  cpu time      0.1612: real time      0.2549

  free energy    TOTEN  =       -50.63597198 eV
  ---------------------------------------------------


[...]
  rms(prec ) = 0.36488E-01
  weight for this iteration     100.00

 eigenvalues of (default mixing * dielectric matrix)
  average eigenvalue GAMMA=   2.9394
  1.3585  4.5203

 Free energy of the ion-electron system (eV)
  ---------------------------------------------------
  -Hartree energ DENC   =        -0.15235223
  -V(xc)+E(xc)   XCENC  =         0.00674652
  PAW double counting   =         0.11567726       -0.11583685
  entropy T*S    EENTRO =         0.00000000
  eigenvalues    EBANDS =        -0.09620095
  ---------------------------------------------------
  free energy    TOTEN  =        -0.24196625 eV

  energy without entropy =       -0.24196625


----------------------------------------- Iteration    3(   5)  ---------------------------------------


   POT+DIJ:  cpu time      0.7237: real time      0.7238
    HAMIL1:  cpu time      0.0278: real time      0.0278
    LRDIAG:  cpu time      0.0065: real time      0.0066
    LRDIIS:  cpu time      0.1447: real time      0.1447
    LRDIAG:  cpu time      0.0047: real time      0.0047
    MIXING:  cpu time      0.0006: real time      0.0006
    --------------------------------------------
      LOOP:  cpu time      0.9419: real time      0.9422

 Broyden mixing:
  rms(total) = 0.61373E-02    rms(broyden)= 0.61235E-02
  rms(prec ) = 0.10157E-01
  weight for this iteration     100.00

 eigenvalues of (default mixing * dielectric matrix)
  average eigenvalue GAMMA=   2.6926
  5.4954  1.2912  1.2912

 Free energy of the ion-electron system (eV)
  ---------------------------------------------------
  -Hartree energ DENC   =        -0.16509682
  -V(xc)+E(xc)   XCENC  =         0.01012479
  PAW double counting   =         0.02866359       -0.02857418
  entropy T*S    EENTRO =         0.00000000
  eigenvalues    EBANDS =        -0.07839612
  ---------------------------------------------------
  free energy    TOTEN  =        -0.23327874 eV

  energy without entropy =       -0.23327874


----------------------------------------- Iteration    3(   6)  ---------------------------------------


   POT+DIJ:  cpu time      0.7237: real time      0.7239
    HAMIL1:  cpu time      0.0277: real time      0.0277
    LRDIAG:  cpu time      0.0065: real time      0.0065
    LRDIIS:  cpu time      0.1443: real time      0.1444
    LRDIAG:  cpu time      0.0047: real time      0.0047
    MIXING:  cpu time      0.0006: real time      0.0006
    --------------------------------------------
      LOOP:  cpu time      0.9415: real time      0.9419

 Broyden mixing:
  rms(total) = 0.50439E-02    rms(broyden)= 0.50414E-02
  rms(prec ) = 0.59026E-02
  weight for this iteration     100.00

 eigenvalues of (default mixing * dielectric matrix)
  average eigenvalue GAMMA=   4.0351
  1.0311  1.3060  6.9016  6.9016

 Free energy of the ion-electron system (eV)
  ---------------------------------------------------
  -Hartree energ DENC   =        -0.17565956
  -V(xc)+E(xc)   XCENC  =         0.01129780
  PAW double counting   =         0.02468374       -0.02457954
  entropy T*S    EENTRO =         0.00000000
  eigenvalues    EBANDS =        -0.06905915
  ---------------------------------------------------
  free energy    TOTEN  =        -0.23331671 eV

  energy without entropy =       -0.23331671


----------------------------------------- Iteration    3(   7)  ---------------------------------------


   POT+DIJ:  cpu time      0.7229: real time      0.7231
    HAMIL1:  cpu time      0.0277: real time      0.0277
    LRDIAG:  cpu time      0.0065: real time      0.0065
    LRDIIS:  cpu time      0.1444: real time      0.1445
    LRDIAG:  cpu time      0.0047: real time      0.0047
    MIXING:  cpu time      0.0006: real time      0.0006
    --------------------------------------------
      LOOP:  cpu time      0.9410: real time      0.9413

 Broyden mixing:
  rms(total) = 0.12417E-02    rms(broyden)= 0.12385E-02
  rms(prec ) = 0.14806E-02
  weight for this iteration     100.00

 eigenvalues of (default mixing * dielectric matrix)
  average eigenvalue GAMMA=   3.2231
  6.7415  5.4712  1.0277  1.3088  1.5664

 Free energy of the ion-electron system (eV)
  ---------------------------------------------------
  -Hartree energ DENC   =        -0.17673378
  -V(xc)+E(xc)   XCENC  =         0.01225657
  PAW double counting   =         0.02357317       -0.02346832
  entropy T*S    EENTRO =         0.00000000
  eigenvalues    EBANDS =        -0.06924267
  ---------------------------------------------------
  free energy    TOTEN  =        -0.23361504 eV

  energy without entropy =       -0.23361504


----------------------------------------- Iteration    3(   8)  ---------------------------------------


   POT+DIJ:  cpu time      0.7242: real time      0.7244
    HAMIL1:  cpu time      0.0277: real time      0.0277
    LRDIAG:  cpu time      0.0065: real time      0.0065
    LRDIIS:  cpu time      0.1473: real time      0.1474
    LRDIAG:  cpu time      0.0047: real time      0.0047
    MIXING:  cpu time      0.0006: real time      0.0006
    --------------------------------------------
      LOOP:  cpu time      0.9449: real time      0.9452

 Broyden mixing:
  rms(total) = 0.96238E-03    rms(broyden)= 0.96204E-03
  rms(prec ) = 0.10505E-02
  weight for this iteration     100.00

 eigenvalues of (default mixing * dielectric matrix)
  average eigenvalue GAMMA=   3.9285
  7.3324  7.3324  5.6072  1.3091  1.0224  0.9675

 Free energy of the ion-electron system (eV)
  ---------------------------------------------------
  -Hartree energ DENC   =        -0.17773426
  -V(xc)+E(xc)   XCENC  =         0.01242947
  PAW double counting   =         0.02167700       -0.02156877
  entropy T*S    EENTRO =         0.00000000
  eigenvalues    EBANDS =        -0.06851248
  ---------------------------------------------------
  free energy    TOTEN  =        -0.23370904 eV

  energy without entropy =       -0.23370904


----------------------------------------- Iteration    3(   9)  ---------------------------------------


   POT+DIJ:  cpu time      0.7230: real time      0.7232
    HAMIL1:  cpu time      0.0277: real time      0.0277
    LRDIAG:  cpu time      0.0065: real time      0.0066
    LRDIIS:  cpu time      0.1475: real time      0.1476
    LRDIAG:  cpu time      0.0047: real time      0.0047
    MIXING:  cpu time      0.0007: real time      0.0007
    --------------------------------------------
      LOOP:  cpu time      0.9441: real time      0.9444

 Broyden mixing:
  rms(total) = 0.25195E-03    rms(broyden)= 0.25186E-03
  rms(prec ) = 0.28875E-03
  weight for this iteration     100.00

 eigenvalues of (default mixing * dielectric matrix)
  average eigenvalue GAMMA=   3.7191
  9.1525  6.9227  5.4635  1.3102  0.9853  1.0711  1.1285

 Free energy of the ion-electron system (eV)
  ---------------------------------------------------
  -Hartree energ DENC   =        -0.17775728
  -V(xc)+E(xc)   XCENC  =         0.01249975
  PAW double counting   =         0.02120398       -0.02110236
  entropy T*S    EENTRO =         0.00000000
  eigenvalues    EBANDS =        -0.06857202
  ---------------------------------------------------
  free energy    TOTEN  =        -0.23372793 eV

  energy without entropy =       -0.23372793


----------------------------------------- Iteration    3(  10)  ---------------------------------------


   POT+DIJ:  cpu time      0.7234: real time      0.7235
    HAMIL1:  cpu time      0.0277: real time      0.0277
    LRDIAG:  cpu time      0.0065: real time      0.0065
    LRDIIS:  cpu time      0.1462: real time      0.1463
    LRDIAG:  cpu time      0.0047: real time      0.0047
    MIXING:  cpu time      0.0007: real time      0.0007
    --------------------------------------------
      LOOP:  cpu time      0.9432: real time      0.9434

 Broyden mixing:
  rms(total) = 0.12860E-03    rms(broyden)= 0.12856E-03
  rms(prec ) = 0.14043E-03
  weight for this iteration     100.00

 eigenvalues of (default mixing * dielectric matrix)
  average eigenvalue GAMMA=   4.0193
  9.3483  6.8960  5.8020  5.8020  1.3086  1.0333  0.9823  0.9823

 Free energy of the ion-electron system (eV)
  ---------------------------------------------------
  -Hartree energ DENC   =        -0.17783750
  -V(xc)+E(xc)   XCENC  =         0.01253159
  PAW double counting   =         0.02126931       -0.02116872
  entropy T*S    EENTRO =         0.00000000
  eigenvalues    EBANDS =        -0.06853637
  ---------------------------------------------------
  free energy    TOTEN  =        -0.23374168 eV

  energy without entropy =       -0.23374168


----------------------------------------- Iteration    3(  11)  ---------------------------------------


   POT+DIJ:  cpu time      0.7250: real time      0.7251
    HAMIL1:  cpu time      0.0278: real time      0.0278
    LRDIAG:  cpu time      0.0065: real time      0.0065
    LRDIIS:  cpu time      0.1444: real time      0.1445
    LRDIAG:  cpu time      0.0047: real time      0.0047
    MIXING:  cpu time      0.0007: real time      0.0007
    --------------------------------------------
      LOOP:  cpu time      0.9432: real time      0.9435

 Broyden mixing:
  rms(total) = 0.53478E-04    rms(broyden)= 0.53471E-04
  rms(prec ) = 0.60986E-04
  weight for this iteration     100.00

 eigenvalues of (default mixing * dielectric matrix)
  average eigenvalue GAMMA=   4.0620
 10.4832  8.3186  6.9187  5.4527  1.3088  0.9919  0.9919  1.0461  1.0461

 Free energy of the ion-electron system (eV)
  ---------------------------------------------------
  -Hartree energ DENC   =        -0.17781104
  -V(xc)+E(xc)   XCENC  =         0.01252837
  PAW double counting   =         0.02140733       -0.02130774
  entropy T*S    EENTRO =         0.00000000
  eigenvalues    EBANDS =        -0.06855542
  ---------------------------------------------------
  free energy    TOTEN  =        -0.23373849 eV

  energy without entropy =       -0.23373849


----------------------------------------- Iteration    3(  12)  ---------------------------------------


   POT+DIJ:  cpu time      0.7235: real time      0.7237
    HAMIL1:  cpu time      0.0277: real time      0.0277
    LRDIAG:  cpu time      0.0065: real time      0.0065
    LRDIIS:  cpu time      0.1473: real time      0.1474
    LRDIAG:  cpu time      0.0048: real time      0.0129
    MIXING:  cpu time      0.0008: real time      0.0008
    --------------------------------------------
      LOOP:  cpu time      0.9454: real time      0.9538

 Broyden mixing:
  rms(total) = 0.89821E-05    rms(broyden)= 0.89708E-05
  rms(prec ) = 0.98956E-05
  weight for this iteration     100.00

 eigenvalues of (default mixing * dielectric matrix)
  average eigenvalue GAMMA=   4.1537
 10.1159  7.1716  6.7161  6.7161  5.4932  1.3088  0.9840  0.9840  1.0306  1.0164

 Free energy of the ion-electron system (eV)
  ---------------------------------------------------
  -Hartree energ DENC   =        -0.17783362
  -V(xc)+E(xc)   XCENC  =         0.01253146
  PAW double counting   =         0.02142215       -0.02132318
  entropy T*S    EENTRO =         0.00000000
  eigenvalues    EBANDS =        -0.06853622
  ---------------------------------------------------
  free energy    TOTEN  =        -0.23373941 eV

  energy without entropy =       -0.23373941


------------------------ aborting loop because EDIFF is reached ----------------------------------------


 change of polarisation eV/A/(eV/A) component  3 :    -0.039     0.000     0.453
 dielectric tensor                  component  3 :    -0.020     0.000     1.233


--------------------------------------------------------------------------------------------------------


    FORNLD:  cpu time      0.8683: real time      0.8685

 PIEZOELECTRIC TENSOR FIELD DIRECTION 3  (e Angst)
 -----------------------------------------------------------------------------
    -0.00000 -0.00000  0.00000           ( -0.00000 -0.00000  0.00000)
    -0.00000 -0.00000  0.00000           ( -0.00000 -0.00000  0.00000)
     0.00000  0.00000  0.00000           (  0.00000  0.00000  0.00000)

 PIEZOELECTRIC TENSOR FIELD DIRECTION 3  (C/m^2)
 -----------------------------------------------------------------------------
    -0.00000 -0.00000  0.00000
    -0.00000 -0.00000  0.00000
     0.00000  0.00000  0.00000


      POSITION         DIRECTION 3           BORN EFFECTIVE CHARGE    (rigid.aug.   ionic)
 -----------------------------------------------------------------------------------------
      2.05668      1.18743      7.17801    -0.00000  0.00000  5.11967 (  0.81284  5.00000)
      0.00000      2.37485      8.82199    -0.00000  0.00000  5.11968 (  0.81284  5.00000)
 -----------------------------------------------------------------------------------------
    total drift (improves with k-points):  -0.00000  0.00000 10.23936




--------------------------------------------------------------------------------------------------------


  LATTYP: Found a hexagonal cell.
 ALAT       =     4.1133666039
 C/A-ratio  =     5.8346367613
  
  Lattice vectors:
  
 A1 = (   4.1133666039,   0.0000000000,   0.0000000000)
 A2 = (  -2.0566833019,   3.5622799740,   0.0000000000)
 A3 = (   0.0000000000,   0.0000000000,  24.0000000000)


Analysis of symmetry for initial positions (statically):
=====================================================================
 Subroutine PRICEL returns:
 Original cell was already a primitive cell.
 

 Routine SETGRP: Setting up the symmetry group for a 
 hexagonal supercell.


 Subroutine GETGRP returns: Found 12 space group operations
 (whereof  6 operations were pure point group operations)
 out of a pool of 24 trial point group operations.


The static configuration has the point symmetry C_3v.
 The point group associated with its full space group is D_3d.


Analysis of symmetry for dynamics (positions and initial velocities):
=====================================================================
 Subroutine PRICEL returns:
 Original cell was already a primitive cell.
 

 Routine SETGRP: Setting up the symmetry group for a 
 hexagonal supercell.


 Subroutine GETGRP returns: Found 12 space group operations
 (whereof  6 operations were pure point group operations)
 out of a pool of 24 trial point group operations.


The dynamic configuration has the point symmetry C_3v.
 The point group associated with its full space group is D_3d.


 Subroutine INISYM returns: Found 12 space group operations
 (whereof  6 operations are pure point group operations),
 and found     1 'primitive' translations



 MACROSCOPIC STATIC DIELECTRIC TENSOR (including local field effects in DFT)
 ------------------------------------------------------
           4.127542     0.000000     0.000000
           0.000000     4.127542     0.000000
           0.000000    -0.000000     1.233196
 ------------------------------------------------------



--------------------------------------------------------------------------------------------------------


  LATTYP: Found a hexagonal cell.
 ALAT       =     4.1133666039
 C/A-ratio  =     5.8346367613
  
  Lattice vectors:
  
 A1 = (   4.1133666039,   0.0000000000,   0.0000000000)
 A2 = (  -2.0566833019,   3.5622799740,   0.0000000000)
 A3 = (   0.0000000000,   0.0000000000,  24.0000000000)


Analysis of symmetry for initial positions (statically):
=====================================================================
 Subroutine PRICEL returns:
 Original cell was already a primitive cell.
 

 Routine SETGRP: Setting up the symmetry group for a 
 hexagonal supercell.


 Subroutine GETGRP returns: Found 12 space group operations
 (whereof  6 operations were pure point group operations)
 out of a pool of 24 trial point group operations.


The static configuration has the point symmetry C_3v.
 The point group associated with its full space group is D_3d.


Analysis of symmetry for dynamics (positions and initial velocities):
=====================================================================
 Subroutine PRICEL returns:
 Original cell was already a primitive cell.
 

 Routine SETGRP: Setting up the symmetry group for a 
 hexagonal supercell.


 Subroutine GETGRP returns: Found 12 space group operations
 (whereof  6 operations were pure point group operations)
 out of a pool of 24 trial point group operations.


The dynamic configuration has the point symmetry C_3v.
 The point group associated with its full space group is D_3d.


 Subroutine INISYM returns: Found 12 space group operations
 (whereof  6 operations are pure point group operations),
 and found     1 'primitive' translations



--------------------------------------------------------------------------------------------------------




 MACROSCOPIC STATIC DIELECTRIC TENSOR (including local field effects in DFT)
 ------------------------------------------------------
           4.127542     0.000000     0.000000
           0.000000     4.127542     0.000000
           0.000000    -0.000000     1.233196
 ------------------------------------------------------


 PIEZOELECTRIC TENSOR (including local field effects)  for field in x, y, z        (e  Angst)
          XX          YY          ZZ          XY          YZ          ZX
  --------------------------------------------------------------------------------
  x     0.00000     0.00000    -0.00000     0.00000     0.00000    -0.00000
  y     0.00000     0.00000     0.00000     0.00000     0.00000     0.00000
  z     0.00000     0.00000    -0.00000     0.00000     0.00000     0.00000

 PIEZOELECTRIC TENSOR (including local field effects)  for field in x, y, z        (C/m^2)
          XX          YY          ZZ          XY          YZ          ZX
  --------------------------------------------------------------------------------
  x     0.00000     0.00000    -0.00000     0.00000     0.00000    -0.00000
  y     0.00000     0.00000     0.00000     0.00000     0.00000     0.00000
  z     0.00000     0.00000    -0.00000     0.00000     0.00000     0.00000
 
 BORN EFFECTIVE CHARGES (including local field effects) (in |e|, cummulative output)
 ---------------------------------------------------------------------------------
 ion    1
    1     0.00000     0.00000     0.00000
    2    -0.00000     0.00000     0.00000
    3     0.00000     0.00000     0.00000
 ion    2
    1     0.00000     0.00000     0.00000
    2     0.00000     0.00000     0.00000
    3     0.00000     0.00000    -0.00000


--------------------------------------------------------------------------------------------------------


     LOOP+:  cpu time     85.9813: real time     89.3892
    4ORBIT:  cpu time      0.0000: real time      0.0000



 total charge

# of ion       s       p       d       f       tot
--------------------------------------------------
    1        1.581   1.846   0.079   0.012   3.518
    2        1.581   1.846   0.079   0.012   3.518
--------------------------------------------------
tot          3.162   3.692   0.158   0.025   7.036
 

 total amount of memory used by VASP MPI-rank0    46358. kBytes
=======================================================================

   base      :      30000. kBytes
   nonl-proj :       9048. kBytes
   fftplans  :       3539. kBytes
   grid      :       3096. kBytes
   one-center:         98. kBytes
   wavefun   :        577. kBytes
 
  
  
 General timing and accounting informations for this job:
 ========================================================
  
                  Total CPU time used (sec):       86.776
                            User time (sec):       86.508
                          System time (sec):        0.268
                         Elapsed time (sec):       91.133
  
                   Maximum memory used (kb):      215116.
                   Average memory used (kb):          N/A
  
                          Minor page faults:        59584
                          Major page faults:         2965
                 Voluntary context switches:          527
