PROCAR new format
# of k-points:   16         # of bands:   16         # of ions:    2

 k-point     1 :    0.00000000 0.00000000 0.00000000     weight = 0.00826446

band     1 # energy  -14.41231490 # occ.  2.00000000
 
ion      s      p      d      f    tot
    1  0.335  0.015  0.000  0.001  0.351
    2  0.335  0.015  0.000  0.001  0.351
tot    0.670  0.030  0.000  0.001  0.702
 
band     2 # energy   -9.43923361 # occ.  2.00000000
 
ion      s      p      d      f    tot
    1  0.356  0.031  0.001  0.000  0.388
    2  0.356  0.031  0.001  0.000  0.388
tot    0.711  0.062  0.002  0.001  0.776
 
band     3 # energy   -3.73806167 # occ.  2.00000000
 
ion      s      p      d      f    tot
    1  0.008  0.269  0.003  0.002  0.282
    2  0.008  0.269  0.003  0.002  0.282
tot    0.016  0.537  0.006  0.004  0.564
 
band     4 # energy   -3.13137460 # occ.  2.00000000
 
ion      s      p      d      f    tot
    1  0.000  0.382  0.024  0.005  0.411
    2  0.000  0.382  0.024  0.005  0.411
tot    0.000  0.764  0.048  0.009  0.821
 
band     5 # energy   -3.13137384 # occ.  2.00000000
 
ion      s      p      d      f    tot
    1  0.000  0.382  0.024  0.005  0.411
    2  0.000  0.382  0.024  0.005  0.411
tot    0.000  0.764  0.048  0.009  0.821
 
band     6 # energy   -1.56495431 # occ.  0.00000000
 
ion      s      p      d      f    tot
    1  0.146  0.163  0.018  0.007  0.334
    2  0.146  0.163  0.018  0.007  0.334
tot    0.291  0.326  0.036  0.015  0.668
 
band     7 # energy   -0.34112004 # occ.  0.00000000
 
ion      s      p      d      f    tot
    1  0.000  0.340  0.030  0.005  0.375
    2  0.000  0.340  0.030  0.005  0.375
tot    0.000  0.681  0.059  0.011  0.751
 
band     8 # energy   -0.34111929 # occ.  0.00000000
 
ion      s      p      d      f    tot
    1  0.000  0.340  0.030  0.005  0.375
    2  0.000  0.340  0.030  0.005  0.375
tot    0.000  0.681  0.059  0.011  0.751
 
band     9 # energy    1.16033719 # occ.  0.00000000
 
ion      s      p      d      f    tot
    1  0.000  0.014  0.022  0.001  0.037
    2  0.000  0.014  0.022  0.001  0.037
tot    0.000  0.027  0.045  0.002  0.074
 
band    10 # energy    1.40038710 # occ.  0.00000000
 
ion      s      p      d      f    tot
    1  0.007  0.024  0.000  0.000  0.032
    2  0.007  0.024  0.000  0.000  0.032
tot    0.015  0.048  0.000  0.000  0.063
 
band    11 # energy    1.94458143 # occ.  0.00000000
 
ion      s      p      d      f    tot
    1  0.005  0.013  0.000  0.000  0.018
    2  0.005  0.013  0.000  0.000  0.018
tot    0.010  0.025  0.000  0.000  0.036
 
band    12 # energy    2.34024991 # occ.  0.00000000
 
ion      s      p      d      f    tot
    1  0.000  0.002  0.012  0.000  0.014
    2  0.000  0.002  0.012  0.000  0.014
tot    0.001  0.003  0.024  0.001  0.028
 
band    13 # energy    3.21603337 # occ.  0.00000000
 
ion      s      p      d      f    tot
    1  0.025  0.022  0.000  0.000  0.048
    2  0.025  0.022  0.000  0.000  0.048
tot    0.051  0.044  0.001  0.000  0.097
 
band    14 # energy    3.79708586 # occ.  0.00000000
 
ion      s      p      d      f    tot
    1  0.002  0.000  0.027  0.000  0.029
    2  0.002  0.000  0.027  0.000  0.029
tot    0.003  0.000  0.053  0.001  0.058
 
band    15 # energy    3.99696659 # occ.  0.00000000
 
ion      s      p      d      f    tot
    1  0.062  0.001  0.022  0.023  0.108
    2  0.062  0.001  0.022  0.023  0.108
tot    0.124  0.002  0.045  0.045  0.215
 
band    16 # energy    5.03736107 # occ.  0.00000000
 
ion      s      p      d      f    tot
    1  0.000  0.040  0.180  0.006  0.226
    2  0.000  0.040  0.180  0.006  0.226
tot    0.000  0.079  0.360  0.012  0.452
 

 k-point     2 :    0.09090909 0.00000000 0.00000000     weight = 0.04958678

band     1 # energy  -14.32451172 # occ.  2.00000000
 
ion      s      p      d      f    tot
    1  0.335  0.016  0.000  0.001  0.352
    2  0.335  0.016  0.000  0.001  0.352
tot    0.670  0.032  0.001  0.001  0.705
 
band     2 # energy   -9.43648103 # occ.  2.00000000
 
ion      s      p      d      f    tot
    1  0.364  0.029  0.002  0.000  0.394
    2  0.364  0.029  0.002  0.000  0.394
tot    0.727  0.057  0.003  0.001  0.788
 
band     3 # energy   -3.95688523 # occ.  2.00000000
 
ion      s      p      d      f    tot
    1  0.021  0.319  0.023  0.004  0.367
    2  0.021  0.319  0.023  0.004  0.367
tot    0.043  0.638  0.047  0.007  0.734
 
band     4 # energy   -3.70005466 # occ.  2.00000000
 
ion      s      p      d      f    tot
    1  0.010  0.273  0.003  0.002  0.288
    2  0.010  0.273  0.003  0.002  0.288
tot    0.019  0.546  0.006  0.004  0.575
 
band     5 # energy   -3.33038196 # occ.  2.00000000
 
ion      s      p      d      f    tot
    1  0.000  0.373  0.024  0.004  0.401
    2  0.000  0.373  0.024  0.004  0.401
tot    0.000  0.745  0.047  0.009  0.801
 
band     6 # energy   -1.04410459 # occ.  0.00000000
 
ion      s      p      d      f    tot
    1  0.089  0.229  0.020  0.007  0.345
    2  0.089  0.229  0.020  0.007  0.345
tot    0.178  0.457  0.041  0.014  0.689
 
band     7 # energy   -0.41279032 # occ.  0.00000000
 
ion      s      p      d      f    tot
    1  0.039  0.299  0.019  0.007  0.364
    2  0.039  0.299  0.019  0.007  0.364
tot    0.078  0.599  0.038  0.013  0.728
 
band     8 # energy   -0.15005835 # occ.  0.00000000
 
ion      s      p      d      f    tot
    1  0.000  0.354  0.026  0.006  0.386
    2  0.000  0.354  0.026  0.006  0.386
tot    0.000  0.709  0.052  0.012  0.773
 
band     9 # energy    1.27881038 # occ.  0.00000000
 
ion      s      p      d      f    tot
    1  0.000  0.021  0.022  0.002  0.046
    2  0.000  0.021  0.022  0.002  0.046
tot    0.001  0.043  0.045  0.003  0.091
 
band    10 # energy    1.50031846 # occ.  0.00000000
 
ion      s      p      d      f    tot
    1  0.005  0.027  0.002  0.000  0.034
    2  0.005  0.027  0.002  0.000  0.034
tot    0.009  0.054  0.003  0.001  0.067
 
band    11 # energy    2.04094199 # occ.  0.00000000
 
ion      s      p      d      f    tot
    1  0.003  0.014  0.001  0.000  0.018
    2  0.003  0.014  0.001  0.000  0.018
tot    0.007  0.028  0.002  0.000  0.037
 
band    12 # energy    2.44070117 # occ.  0.00000000
 
ion      s      p      d      f    tot
    1  0.000  0.003  0.012  0.000  0.015
    2  0.000  0.003  0.012  0.000  0.015
tot    0.001  0.005  0.024  0.001  0.031
 
band    13 # energy    3.29844632 # occ.  0.00000000
 
ion      s      p      d      f    tot
    1  0.011  0.025  0.010  0.001  0.047
    2  0.011  0.025  0.010  0.001  0.047
tot    0.023  0.049  0.021  0.002  0.095
 
band    14 # energy    3.89284094 # occ.  0.00000000
 
ion      s      p      d      f    tot
    1  0.002  0.001  0.028  0.001  0.031
    2  0.002  0.001  0.028  0.001  0.031
tot    0.004  0.002  0.055  0.001  0.062
 
band    15 # energy    4.02631095 # occ.  0.00000000
 
ion      s      p      d      f    tot
    1  0.014  0.045  0.086  0.019  0.164
    2  0.014  0.045  0.086  0.019  0.164
tot    0.027  0.091  0.173  0.038  0.328
 
band    16 # energy    4.62227184 # occ.  0.00000000
 
ion      s      p      d      f    tot
    1  0.056  0.012  0.038  0.008  0.114
    2  0.056  0.012  0.038  0.008  0.114
tot    0.113  0.024  0.075  0.017  0.229
 

 k-point     3 :    0.18181818 0.00000000 0.00000000     weight = 0.04958678

band     1 # energy  -14.06464036 # occ.  2.00000000
 
ion      s      p      d      f    tot
    1  0.336  0.019  0.001  0.001  0.357
    2  0.336  0.019  0.001  0.001  0.357
tot    0.672  0.038  0.002  0.001  0.714
 
band     2 # energy   -9.47717931 # occ.  2.00000000
 
ion      s      p      d      f    tot
    1  0.385  0.022  0.003  0.001  0.411
    2  0.385  0.022  0.003  0.001  0.411
tot    0.770  0.045  0.006  0.001  0.822
 
band     3 # energy   -5.10241463 # occ.  2.00000000
 
ion      s      p      d      f    tot
    1  0.012  0.290  0.019  0.002  0.323
    2  0.012  0.290  0.019  0.002  0.323
tot    0.023  0.580  0.039  0.004  0.645
 
band     4 # energy   -3.75379537 # occ.  2.00000000
 
ion      s      p      d      f    tot
    1  0.000  0.358  0.022  0.004  0.384
    2  0.000  0.358  0.022  0.004  0.384
tot    0.000  0.717  0.044  0.007  0.768
 
band     5 # energy   -3.63458717 # occ.  2.00000000
 
ion      s      p      d      f    tot
    1  0.016  0.286  0.003  0.002  0.306
    2  0.016  0.286  0.003  0.002  0.306
tot    0.032  0.571  0.006  0.003  0.613
 
band     6 # energy   -1.45191301 # occ.  0.00000000
 
ion      s      p      d      f    tot
    1  0.051  0.224  0.025  0.005  0.305
    2  0.051  0.224  0.025  0.005  0.305
tot    0.102  0.448  0.050  0.010  0.611
 
band     7 # energy    0.19302081 # occ.  0.00000000
 
ion      s      p      d      f    tot
    1  0.000  0.372  0.020  0.006  0.398
    2  0.000  0.372  0.020  0.006  0.398
tot    0.000  0.745  0.040  0.011  0.796
 
band     8 # energy    0.23668872 # occ.  0.00000000
 
ion      s      p      d      f    tot
    1  0.065  0.259  0.008  0.007  0.339
    2  0.065  0.259  0.008  0.007  0.339
tot    0.130  0.517  0.016  0.014  0.678
 
band     9 # energy    1.54381360 # occ.  0.00000000
 
ion      s      p      d      f    tot
    1  0.001  0.025  0.024  0.002  0.052
    2  0.001  0.025  0.024  0.002  0.052
tot    0.001  0.050  0.049  0.004  0.103
 
band    10 # energy    1.79562699 # occ.  0.00000000
 
ion      s      p      d      f    tot
    1  0.003  0.043  0.004  0.001  0.051
    2  0.003  0.043  0.004  0.001  0.051
tot    0.005  0.085  0.008  0.003  0.102
 
band    11 # energy    2.31136692 # occ.  0.00000000
 
ion      s      p      d      f    tot
    1  0.002  0.018  0.005  0.001  0.026
    2  0.002  0.018  0.005  0.001  0.026
tot    0.004  0.036  0.010  0.002  0.051
 
band    12 # energy    2.71297639 # occ.  0.00000000
 
ion      s      p      d      f    tot
    1  0.001  0.003  0.013  0.001  0.018
    2  0.001  0.003  0.013  0.001  0.018
tot    0.003  0.005  0.026  0.001  0.035
 
band    13 # energy    3.23381762 # occ.  0.00000000
 
ion      s      p      d      f    tot
    1  0.005  0.035  0.064  0.009  0.113
    2  0.005  0.035  0.064  0.009  0.113
tot    0.009  0.071  0.128  0.018  0.225
 
band    14 # energy    3.84558855 # occ.  0.00000000
 
ion      s      p      d      f    tot
    1  0.014  0.031  0.039  0.004  0.087
    2  0.014  0.031  0.039  0.004  0.087
tot    0.027  0.062  0.077  0.008  0.174
 
band    15 # energy    4.20188599 # occ.  0.00000000
 
ion      s      p      d      f    tot
    1  0.001  0.003  0.040  0.003  0.046
    2  0.001  0.003  0.040  0.003  0.046
tot    0.001  0.006  0.081  0.005  0.092
 
band    16 # energy    4.58749532 # occ.  0.00000000
 
ion      s      p      d      f    tot
    1  0.015  0.051  0.082  0.003  0.150
    2  0.015  0.051  0.082  0.003  0.150
tot    0.031  0.101  0.164  0.006  0.301
 

 k-point     4 :    0.27272727-0.00000000 0.00000000     weight = 0.04958678

band     1 # energy  -13.64602751 # occ.  2.00000000
 
ion      s      p      d      f    tot
    1  0.338  0.023  0.002  0.001  0.364
    2  0.338  0.023  0.002  0.001  0.364
tot    0.677  0.046  0.004  0.001  0.729
 
band     2 # energy   -9.70707046 # occ.  2.00000000
 
ion      s      p      d      f    tot
    1  0.401  0.021  0.006  0.001  0.428
    2  0.401  0.021  0.006  0.001  0.428
tot    0.801  0.042  0.011  0.002  0.856
 
band     3 # energy   -5.90399625 # occ.  2.00000000
 
ion      s      p      d      f    tot
    1  0.003  0.273  0.012  0.001  0.289
    2  0.003  0.273  0.012  0.001  0.289
tot    0.005  0.546  0.025  0.002  0.578
 
band     4 # energy   -4.17798720 # occ.  2.00000000
 
ion      s      p      d      f    tot
    1  0.000  0.348  0.019  0.003  0.371
    2  0.000  0.348  0.019  0.003  0.371
tot    0.000  0.697  0.038  0.007  0.742
 
band     5 # energy   -3.72349307 # occ.  2.00000000
 
ion      s      p      d      f    tot
    1  0.033  0.295  0.002  0.002  0.332
    2  0.033  0.295  0.002  0.002  0.332
tot    0.066  0.591  0.004  0.003  0.663
 
band     6 # energy   -1.84523957 # occ.  0.00000000
 
ion      s      p      d      f    tot
    1  0.043  0.196  0.028  0.004  0.271
    2  0.043  0.196  0.028  0.004  0.271
tot    0.085  0.391  0.056  0.009  0.541
 
band     7 # energy    0.24037827 # occ.  0.00000000
 
ion      s      p      d      f    tot
    1  0.034  0.211  0.036  0.005  0.286
    2  0.034  0.211  0.036  0.005  0.286
tot    0.068  0.422  0.071  0.010  0.572
 
band     8 # energy    0.39736342 # occ.  0.00000000
 
ion      s      p      d      f    tot
    1  0.000  0.369  0.019  0.004  0.392
    2  0.000  0.369  0.019  0.004  0.392
tot    0.000  0.737  0.039  0.009  0.785
 
band     9 # energy    1.86873332 # occ.  0.00000000
 
ion      s      p      d      f    tot
    1  0.006  0.008  0.025  0.001  0.039
    2  0.006  0.008  0.025  0.001  0.039
tot    0.011  0.016  0.049  0.002  0.078
 
band    10 # energy    2.20735899 # occ.  0.00000000
 
ion      s      p      d      f    tot
    1  0.003  0.059  0.009  0.001  0.072
    2  0.003  0.059  0.009  0.001  0.072
tot    0.005  0.118  0.019  0.002  0.144
 
band    11 # energy    2.72760854 # occ.  0.00000000
 
ion      s      p      d      f    tot
    1  0.001  0.026  0.012  0.001  0.040
    2  0.001  0.026  0.012  0.001  0.040
tot    0.003  0.051  0.023  0.002  0.079
 
band    12 # energy    3.12971390 # occ.  0.00000000
 
ion      s      p      d      f    tot
    1  0.005  0.008  0.017  0.001  0.030
    2  0.005  0.008  0.017  0.001  0.030
tot    0.010  0.016  0.033  0.002  0.061
 
band    13 # energy    3.38601072 # occ.  0.00000000
 
ion      s      p      d      f    tot
    1  0.001  0.050  0.038  0.004  0.092
    2  0.001  0.050  0.038  0.004  0.092
tot    0.002  0.099  0.076  0.007  0.184
 
band    14 # energy    4.28561347 # occ.  0.00000000
 
ion      s      p      d      f    tot
    1  0.020  0.043  0.026  0.003  0.093
    2  0.020  0.043  0.026  0.003  0.093
tot    0.041  0.086  0.052  0.006  0.186
 
band    15 # energy    4.54211505 # occ.  0.00000000
 
ion      s      p      d      f    tot
    1  0.016  0.043  0.060  0.004  0.122
    2  0.016  0.043  0.060  0.004  0.122
tot    0.032  0.085  0.119  0.008  0.244
 
band    16 # energy    4.77114949 # occ.  0.00000000
 
ion      s      p      d      f    tot
    1  0.001  0.028  0.061  0.010  0.101
    2  0.001  0.028  0.061  0.010  0.100
tot    0.003  0.057  0.122  0.019  0.201
 

 k-point     5 :    0.36363636 0.00000000 0.00000000     weight = 0.04958678

band     1 # energy  -13.10720388 # occ.  2.00000000
 
ion      s      p      d      f    tot
    1  0.345  0.027  0.004  0.001  0.376
    2  0.345  0.027  0.004  0.001  0.376
tot    0.689  0.053  0.007  0.001  0.751
 
band     2 # energy  -10.22671816 # occ.  2.00000000
 
ion      s      p      d      f    tot
    1  0.384  0.032  0.007  0.001  0.424
    2  0.384  0.032  0.007  0.001  0.424
tot    0.768  0.064  0.015  0.002  0.848
 
band     3 # energy   -6.17494857 # occ.  2.00000000
 
ion      s      p      d      f    tot
    1  0.026  0.252  0.006  0.000  0.284
    2  0.026  0.252  0.006  0.000  0.284
tot    0.052  0.503  0.012  0.001  0.568
 
band     4 # energy   -4.49584017 # occ.  2.00000000
 
ion      s      p      d      f    tot
    1  0.000  0.343  0.016  0.003  0.363
    2  0.000  0.343  0.016  0.003  0.363
tot    0.000  0.686  0.033  0.006  0.725
 
band     5 # energy   -4.11279931 # occ.  2.00000000
 
ion      s      p      d      f    tot
    1  0.045  0.282  0.002  0.002  0.331
    2  0.045  0.282  0.002  0.002  0.331
tot    0.090  0.564  0.003  0.003  0.661
 
band     6 # energy   -1.80701416 # occ.  0.00000000
 
ion      s      p      d      f    tot
    1  0.032  0.194  0.035  0.004  0.264
    2  0.032  0.194  0.035  0.004  0.264
tot    0.064  0.388  0.069  0.007  0.528
 
band     7 # energy   -0.23395256 # occ.  0.00000000
 
ion      s      p      d      f    tot
    1  0.016  0.192  0.047  0.003  0.258
    2  0.016  0.192  0.047  0.003  0.258
tot    0.032  0.383  0.094  0.006  0.516
 
band     8 # energy    0.43712886 # occ.  0.00000000
 
ion      s      p      d      f    tot
    1  0.000  0.353  0.023  0.003  0.379
    2  0.000  0.353  0.023  0.003  0.379
tot    0.000  0.706  0.046  0.006  0.758
 
band     9 # energy    2.26024815 # occ.  0.00000000
 
ion      s      p      d      f    tot
    1  0.002  0.064  0.065  0.001  0.133
    2  0.002  0.064  0.065  0.001  0.133
tot    0.005  0.128  0.131  0.002  0.266
 
band    10 # energy    2.50492408 # occ.  0.00000000
 
ion      s      p      d      f    tot
    1  0.010  0.010  0.014  0.001  0.035
    2  0.010  0.010  0.014  0.001  0.035
tot    0.020  0.020  0.029  0.002  0.070
 
band    11 # energy    3.18670099 # occ.  0.00000000
 
ion      s      p      d      f    tot
    1  0.000  0.013  0.015  0.000  0.028
    2  0.000  0.013  0.015  0.000  0.028
tot    0.000  0.026  0.030  0.001  0.057
 
band    12 # energy    3.63746037 # occ.  0.00000000
 
ion      s      p      d      f    tot
    1  0.002  0.020  0.016  0.001  0.038
    2  0.002  0.020  0.016  0.001  0.038
tot    0.004  0.040  0.031  0.001  0.076
 
band    13 # energy    3.84454554 # occ.  0.00000000
 
ion      s      p      d      f    tot
    1  0.004  0.005  0.005  0.000  0.015
    2  0.004  0.005  0.005  0.000  0.015
tot    0.008  0.010  0.010  0.001  0.029
 
band    14 # energy    4.59061500 # occ.  0.00000000
 
ion      s      p      d      f    tot
    1  0.019  0.013  0.027  0.008  0.066
    2  0.019  0.013  0.027  0.008  0.066
tot    0.037  0.026  0.054  0.016  0.133
 
band    15 # energy    5.16110843 # occ.  0.00000000
 
ion      s      p      d      f    tot
    1  0.004  0.052  0.020  0.007  0.083
    2  0.004  0.052  0.020  0.007  0.083
tot    0.008  0.103  0.041  0.013  0.165
 
band    16 # energy    5.24338314 # occ.  0.00000000
 
ion      s      p      d      f    tot
    1  0.011  0.018  0.010  0.002  0.042
    2  0.011  0.018  0.010  0.002  0.042
tot    0.023  0.036  0.020  0.005  0.084
 

 k-point     6 :    0.45454545 0.00000000 0.00000000     weight = 0.04958678

band     1 # energy  -12.59371852 # occ.  2.00000000
 
ion      s      p      d      f    tot
    1  0.357  0.027  0.006  0.001  0.390
    2  0.357  0.027  0.006  0.001  0.390
tot    0.714  0.053  0.011  0.002  0.780
 
band     2 # energy  -10.80180017 # occ.  2.00000000
 
ion      s      p      d      f    tot
    1  0.355  0.044  0.007  0.001  0.406
    2  0.355  0.044  0.007  0.001  0.406
tot    0.710  0.087  0.013  0.001  0.812
 
band     3 # energy   -6.10342922 # occ.  2.00000000
 
ion      s      p      d      f    tot
    1  0.060  0.236  0.002  0.000  0.299
    2  0.060  0.236  0.002  0.000  0.299
tot    0.120  0.473  0.004  0.001  0.598
 
band     4 # energy   -4.66315594 # occ.  2.00000000
 
ion      s      p      d      f    tot
    1  0.000  0.340  0.015  0.003  0.358
    2  0.000  0.340  0.015  0.003  0.358
tot    0.000  0.681  0.030  0.006  0.717
 
band     5 # energy   -4.52435802 # occ.  2.00000000
 
ion      s      p      d      f    tot
    1  0.039  0.270  0.002  0.002  0.313
    2  0.039  0.270  0.002  0.002  0.313
tot    0.078  0.539  0.005  0.003  0.625
 
band     6 # energy   -1.56454096 # occ.  0.00000000
 
ion      s      p      d      f    tot
    1  0.034  0.188  0.047  0.003  0.272
    2  0.034  0.188  0.047  0.003  0.272
tot    0.067  0.375  0.095  0.007  0.544
 
band     7 # energy   -0.62839659 # occ.  0.00000000
 
ion      s      p      d      f    tot
    1  0.005  0.214  0.038  0.001  0.258
    2  0.005  0.214  0.038  0.001  0.258
tot    0.010  0.427  0.075  0.002  0.515
 
band     8 # energy    0.42078257 # occ.  0.00000000
 
ion      s      p      d      f    tot
    1  0.000  0.342  0.025  0.002  0.370
    2  0.000  0.342  0.025  0.002  0.370
tot    0.000  0.684  0.051  0.005  0.740
 
band     9 # energy    2.00033043 # occ.  0.00000000
 
ion      s      p      d      f    tot
    1  0.000  0.028  0.086  0.001  0.115
    2  0.000  0.028  0.086  0.001  0.115
tot    0.001  0.057  0.172  0.002  0.230
 
band    10 # energy    3.32390286 # occ.  0.00000000
 
ion      s      p      d      f    tot
    1  0.013  0.010  0.017  0.002  0.042
    2  0.013  0.010  0.017  0.002  0.042
tot    0.026  0.020  0.035  0.003  0.084
 
band    11 # energy    3.80721586 # occ.  0.00000000
 
ion      s      p      d      f    tot
    1  0.009  0.025  0.015  0.002  0.051
    2  0.009  0.025  0.015  0.002  0.051
tot    0.018  0.050  0.029  0.005  0.102
 
band    12 # energy    4.19169703 # occ.  0.00000000
 
ion      s      p      d      f    tot
    1  0.010  0.004  0.013  0.003  0.030
    2  0.010  0.004  0.013  0.003  0.030
tot    0.020  0.009  0.026  0.005  0.060
 
band    13 # energy    4.44309631 # occ.  0.00000000
 
ion      s      p      d      f    tot
    1  0.003  0.022  0.013  0.002  0.041
    2  0.003  0.022  0.013  0.002  0.041
tot    0.006  0.045  0.027  0.005  0.082
 
band    14 # energy    4.69831894 # occ.  0.00000000
 
ion      s      p      d      f    tot
    1  0.005  0.005  0.008  0.002  0.020
    2  0.005  0.005  0.008  0.002  0.020
tot    0.010  0.010  0.015  0.004  0.039
 
band    15 # energy    4.73824425 # occ.  0.00000000
 
ion      s      p      d      f    tot
    1  0.001  0.029  0.010  0.004  0.044
    2  0.001  0.029  0.010  0.004  0.044
tot    0.002  0.059  0.021  0.007  0.088
 
band    16 # energy    5.15464987 # occ.  0.00000000
 
ion      s      p      d      f    tot
    1  0.003  0.007  0.008  0.003  0.022
    2  0.003  0.007  0.008  0.003  0.022
tot    0.007  0.014  0.016  0.007  0.044
 

 k-point     7 :    0.09090909 0.09090909 0.00000000     weight = 0.04958678

band     1 # energy  -14.15063450 # occ.  2.00000000
 
ion      s      p      d      f    tot
    1  0.336  0.018  0.001  0.001  0.355
    2  0.336  0.018  0.001  0.001  0.355
tot    0.671  0.036  0.002  0.001  0.711
 
band     2 # energy   -9.45454745 # occ.  2.00000000
 
ion      s      p      d      f    tot
    1  0.379  0.024  0.003  0.001  0.406
    2  0.379  0.024  0.003  0.001  0.406
tot    0.757  0.048  0.005  0.001  0.812
 
band     3 # energy   -4.75853083 # occ.  2.00000000
 
ion      s      p      d      f    tot
    1  0.016  0.297  0.021  0.002  0.337
    2  0.016  0.297  0.021  0.002  0.337
tot    0.033  0.594  0.042  0.005  0.673
 
band     4 # energy   -3.79305037 # occ.  2.00000000
 
ion      s      p      d      f    tot
    1  0.007  0.341  0.021  0.003  0.372
    2  0.007  0.341  0.021  0.003  0.372
tot    0.013  0.682  0.042  0.006  0.743
 
band     5 # energy   -3.63112553 # occ.  2.00000000
 
ion      s      p      d      f    tot
    1  0.009  0.287  0.005  0.002  0.303
    2  0.009  0.287  0.005  0.002  0.303
tot    0.018  0.574  0.010  0.005  0.607
 
band     6 # energy   -0.80454404 # occ.  0.00000000
 
ion      s      p      d      f    tot
    1  0.027  0.285  0.021  0.006  0.339
    2  0.027  0.285  0.021  0.006  0.339
tot    0.055  0.570  0.042  0.011  0.678
 
band     7 # energy   -0.59638319 # occ.  0.00000000
 
ion      s      p      d      f    tot
    1  0.064  0.265  0.021  0.007  0.356
    2  0.064  0.265  0.021  0.007  0.356
tot    0.128  0.530  0.042  0.013  0.712
 
band     8 # energy    0.36772411 # occ.  0.00000000
 
ion      s      p      d      f    tot
    1  0.030  0.328  0.010  0.007  0.375
    2  0.030  0.328  0.010  0.007  0.375
tot    0.060  0.656  0.020  0.014  0.750
 
band     9 # energy    1.49956977 # occ.  0.00000000
 
ion      s      p      d      f    tot
    1  0.001  0.040  0.022  0.002  0.065
    2  0.001  0.040  0.022  0.002  0.065
tot    0.001  0.080  0.043  0.005  0.130
 
band    10 # energy    1.67568369 # occ.  0.00000000
 
ion      s      p      d      f    tot
    1  0.003  0.030  0.005  0.001  0.039
    2  0.003  0.029  0.005  0.001  0.039
tot    0.006  0.059  0.011  0.002  0.078
 
band    11 # energy    2.21524983 # occ.  0.00000000
 
ion      s      p      d      f    tot
    1  0.002  0.013  0.005  0.001  0.021
    2  0.002  0.013  0.005  0.001  0.021
tot    0.004  0.027  0.010  0.001  0.041
 
band    12 # energy    2.63510089 # occ.  0.00000000
 
ion      s      p      d      f    tot
    1  0.000  0.004  0.012  0.001  0.017
    2  0.000  0.004  0.012  0.001  0.017
tot    0.001  0.008  0.023  0.001  0.033
 
band    13 # energy    3.19718824 # occ.  0.00000000
 
ion      s      p      d      f    tot
    1  0.002  0.018  0.067  0.008  0.095
    2  0.002  0.018  0.067  0.008  0.095
tot    0.004  0.036  0.134  0.015  0.190
 
band    14 # energy    3.84876548 # occ.  0.00000000
 
ion      s      p      d      f    tot
    1  0.005  0.037  0.043  0.006  0.091
    2  0.005  0.037  0.043  0.006  0.091
tot    0.011  0.073  0.086  0.013  0.182
 
band    15 # energy    4.07943841 # occ.  0.00000000
 
ion      s      p      d      f    tot
    1  0.002  0.000  0.028  0.001  0.032
    2  0.002  0.000  0.028  0.001  0.032
tot    0.004  0.000  0.057  0.002  0.063
 
band    16 # energy    4.65654801 # occ.  0.00000000
 
ion      s      p      d      f    tot
    1  0.011  0.035  0.149  0.007  0.202
    2  0.011  0.035  0.149  0.007  0.202
tot    0.023  0.071  0.298  0.013  0.405
 

 k-point     8 :    0.18181818 0.09090909 0.00000000     weight = 0.09917355

band     1 # energy  -13.81026507 # occ.  2.00000000
 
ion      s      p      d      f    tot
    1  0.337  0.022  0.002  0.001  0.361
    2  0.337  0.022  0.002  0.001  0.361
tot    0.675  0.043  0.003  0.001  0.722
 
band     2 # energy   -9.58665237 # occ.  2.00000000
 
ion      s      p      d      f    tot
    1  0.399  0.020  0.005  0.001  0.424
    2  0.399  0.020  0.005  0.001  0.424
tot    0.798  0.039  0.009  0.002  0.848
 
band     3 # energy   -5.57670482 # occ.  2.00000000
 
ion      s      p      d      f    tot
    1  0.003  0.282  0.016  0.001  0.302
    2  0.003  0.282  0.016  0.001  0.302
tot    0.005  0.565  0.031  0.003  0.604
 
band     4 # energy   -4.38726242 # occ.  2.00000000
 
ion      s      p      d      f    tot
    1  0.009  0.321  0.020  0.003  0.352
    2  0.009  0.321  0.020  0.003  0.352
tot    0.017  0.641  0.040  0.005  0.703
 
band     5 # energy   -3.61316969 # occ.  2.00000000
 
ion      s      p      d      f    tot
    1  0.019  0.298  0.003  0.002  0.322
    2  0.019  0.298  0.003  0.002  0.322
tot    0.039  0.596  0.006  0.003  0.645
 
band     6 # energy   -1.26072004 # occ.  0.00000000
 
ion      s      p      d      f    tot
    1  0.039  0.240  0.022  0.005  0.306
    2  0.039  0.240  0.022  0.005  0.306
tot    0.078  0.480  0.045  0.010  0.612
 
band     7 # energy   -0.12348910 # occ.  0.00000000
 
ion      s      p      d      f    tot
    1  0.028  0.307  0.020  0.005  0.360
    2  0.028  0.307  0.020  0.005  0.360
tot    0.055  0.615  0.040  0.010  0.720
 
band     8 # energy    0.55651420 # occ.  0.00000000
 
ion      s      p      d      f    tot
    1  0.033  0.282  0.018  0.006  0.339
    2  0.033  0.282  0.018  0.006  0.339
tot    0.065  0.564  0.036  0.013  0.678
 
band     9 # energy    1.77381177 # occ.  0.00000000
 
ion      s      p      d      f    tot
    1  0.001  0.018  0.026  0.002  0.047
    2  0.001  0.018  0.026  0.002  0.047
tot    0.002  0.036  0.052  0.004  0.094
 
band    10 # energy    2.02952474 # occ.  0.00000000
 
ion      s      p      d      f    tot
    1  0.002  0.051  0.012  0.002  0.067
    2  0.002  0.051  0.012  0.002  0.067
tot    0.004  0.102  0.024  0.004  0.133
 
band    11 # energy    2.53970533 # occ.  0.00000000
 
ion      s      p      d      f    tot
    1  0.001  0.018  0.016  0.002  0.037
    2  0.001  0.018  0.016  0.002  0.037
tot    0.002  0.036  0.032  0.004  0.075
 
band    12 # energy    2.97181933 # occ.  0.00000000
 
ion      s      p      d      f    tot
    1  0.003  0.004  0.020  0.001  0.028
    2  0.003  0.004  0.020  0.001  0.028
tot    0.005  0.009  0.040  0.003  0.057
 
band    13 # energy    3.14617464 # occ.  0.00000000
 
ion      s      p      d      f    tot
    1  0.000  0.029  0.056  0.007  0.092
    2  0.000  0.029  0.056  0.007  0.092
tot    0.001  0.058  0.112  0.014  0.185
 
band    14 # energy    4.10673710 # occ.  0.00000000
 
ion      s      p      d      f    tot
    1  0.008  0.036  0.024  0.002  0.069
    2  0.008  0.036  0.024  0.002  0.069
tot    0.015  0.071  0.047  0.005  0.138
 
band    15 # energy    4.41401589 # occ.  0.00000000
 
ion      s      p      d      f    tot
    1  0.000  0.011  0.067  0.003  0.082
    2  0.000  0.011  0.067  0.003  0.082
tot    0.001  0.022  0.135  0.007  0.164
 
band    16 # energy    4.56211736 # occ.  0.00000000
 
ion      s      p      d      f    tot
    1  0.014  0.058  0.071  0.002  0.144
    2  0.014  0.058  0.071  0.002  0.144
tot    0.027  0.116  0.141  0.004  0.289
 

 k-point     9 :    0.27272727 0.09090909 0.00000000     weight = 0.09917355

band     1 # energy  -13.32534291 # occ.  2.00000000
 
ion      s      p      d      f    tot
    1  0.341  0.026  0.003  0.001  0.371
    2  0.341  0.026  0.003  0.001  0.371
tot    0.683  0.051  0.006  0.001  0.741
 
band     2 # energy   -9.97373421 # occ.  2.00000000
 
ion      s      p      d      f    tot
    1  0.398  0.025  0.007  0.001  0.431
    2  0.398  0.025  0.007  0.001  0.431
tot    0.796  0.050  0.014  0.002  0.862
 
band     3 # energy   -6.04547492 # occ.  2.00000000
 
ion      s      p      d      f    tot
    1  0.010  0.264  0.009  0.001  0.284
    2  0.010  0.264  0.009  0.001  0.284
tot    0.021  0.528  0.018  0.001  0.568
 
band     4 # energy   -4.82676010 # occ.  2.00000000
 
ion      s      p      d      f    tot
    1  0.009  0.309  0.017  0.002  0.337
    2  0.009  0.309  0.017  0.002  0.337
tot    0.018  0.618  0.034  0.005  0.675
 
band     5 # energy   -3.81779350 # occ.  2.00000000
 
ion      s      p      d      f    tot
    1  0.033  0.303  0.003  0.002  0.340
    2  0.033  0.303  0.003  0.002  0.340
tot    0.065  0.607  0.005  0.003  0.680
 
band     6 # energy   -1.47662710 # occ.  0.00000000
 