<?xml version="1.0" encoding="ISO-8859-1"?>
<modeling>
 <generator>
  <i name="program" type="string">vasp </i>
  <i name="version" type="string">6.4.2  </i>
  <i name="subversion" type="string">20Jul23 (build Nov 14 2023 12:59:38) complex                          parallel </i>
  <i name="platform" type="string">LinuxIFC </i>
  <i name="date" type="string">2023 12 18 </i>
  <i name="time" type="string">09:42:05 </i>
 </generator>
 <incar>
  <i type="string" name="PREC">Accurate</i>
  <i type="string" name="ALGO">Normal</i>
  <i type="logical" name="ADDGRID"> T  </i>
  <i type="int" name="ISPIN">     1</i>
  <i name="AMIX">      0.10000000</i>
  <i name="BMIX">      0.00010000</i>
  <i type="int" name="NELM">   200</i>
  <i type="int" name="NELMDL">   -12</i>
  <i type="int" name="NELMIN">     6</i>
  <i type="int" name="IBRION">     2</i>
  <i name="EDIFF">      0.00000100</i>
  <i name="EDIFFG">     -0.01000000</i>
  <i type="int" name="NSW">     0</i>
  <i type="int" name="ISIF">    -1</i>
  <i name="ENCUT">    193.57762500</i>
  <i name="POTIM">      0.50000000</i>
  <i type="int" name="NEDOS">  6001</i>
  <i type="logical" name="LPLANE"> T  </i>
  <i type="int" name="ISMEAR">     0</i>
  <i name="SIGMA">      0.01000000</i>
  <i type="int" name="NWRITE">     1</i>
  <i type="logical" name="LWAVE"> F  </i>
  <i type="logical" name="LCHARG"> F  </i>
  <i type="int" name="LORBIT">    10</i>
  <i type="logical" name="LASPH"> T  </i>
  <i type="logical" name="LEPSILON"> T  </i>
  <i type="int" name="IVDW">     0</i>
 </incar>
 <primitive_cell>
  <structure name="primitive_cell" >
   <crystal>
    <varray name="basis" >
     <v>       4.11336660       0.00000000       0.00000000 </v>
     <v>      -2.05668330       3.56227997       0.00000000 </v>
     <v>       0.00000000       0.00000000      24.00000000 </v>
    </varray>
    <i name="volume">    351.67112349 </i>
    <varray name="rec_basis" >
     <v>       0.24310987       0.14035955       0.00000000 </v>
     <v>       0.00000000       0.28071909       0.00000000 </v>
     <v>       0.00000000       0.00000000       0.04166667 </v>
    </varray>
   </crystal>
   <varray name="positions" >
    <v>       0.66666669       0.33333334       0.29908359 </v>
    <v>       0.33333334       0.66666669       0.36758308 </v>
   </varray>
  </structure>
  <varray name="primitive_index" >
   <v type="int" >        1 </v>
   <v type="int" >        2 </v>
  </varray>
 </primitive_cell>
 <kpoints>
  <generation param="Gamma">
   <v type="int" name="divisions">      11       11        1 </v>
   <v name="usershift">      0.00000000       0.00000000       0.00000000 </v>
   <v name="genvec1">      0.09090909       0.00000000       0.00000000 </v>
   <v name="genvec2">      0.00000000       0.09090909       0.00000000 </v>
   <v name="genvec3">      0.00000000       0.00000000       1.00000000 </v>
   <v name="shift">      0.00000000       0.00000000       0.00000000 </v>
  </generation>
  <varray name="kpointlist" >
   <v>       0.00000000       0.00000000       0.00000000 </v>
   <v>       0.09090909       0.00000000       0.00000000 </v>
   <v>       0.18181818       0.00000000       0.00000000 </v>
   <v>       0.27272727      -0.00000000       0.00000000 </v>
   <v>       0.36363636       0.00000000       0.00000000 </v>
   <v>       0.45454545       0.00000000       0.00000000 </v>
   <v>       0.09090909       0.09090909       0.00000000 </v>
   <v>       0.18181818       0.09090909       0.00000000 </v>
   <v>       0.27272727       0.09090909       0.00000000 </v>
   <v>       0.36363636       0.09090909       0.00000000 </v>
   <v>       0.45454545       0.09090909       0.00000000 </v>
   <v>       0.18181818       0.18181818       0.00000000 </v>
   <v>       0.27272727       0.18181818       0.00000000 </v>
   <v>       0.36363636       0.18181818       0.00000000 </v>
   <v>       0.27272727       0.27272727       0.00000000 </v>
   <v>       0.36363636       0.27272727       0.00000000 </v>
  </varray>
  <varray name="weights" >
   <v>       0.00826446 </v>
   <v>       0.04958678 </v>
   <v>       0.04958678 </v>
   <v>       0.04958678 </v>
   <v>       0.04958678 </v>
   <v>       0.04958678 </v>
   <v>       0.04958678 </v>
   <v>       0.09917355 </v>
   <v>       0.09917355 </v>
   <v>       0.09917355 </v>
   <v>       0.04958678 </v>
   <v>       0.04958678 </v>
   <v>       0.09917355 </v>
   <v>       0.09917355 </v>
   <v>       0.04958678 </v>
   <v>       0.04958678 </v>
  </varray>
 </kpoints>
 <parameters>
  <separator name="general" >
   <i type="string" name="SYSTEM">unknown system</i>
   <i type="logical" name="LCOMPAT"> F  </i>
  </separator>
  <separator name="electronic" >
   <i type="string" name="PREC">accura</i>
   <i name="ENMAX">    193.57762500</i>
   <i name="ENAUG">    560.61200000</i>
   <i name="EDIFF">      0.00000100</i>
   <i type="int" name="IALGO">    38</i>
   <i type="int" name="IWAVPR">    10</i>
   <i type="int" name="NBANDS">    16</i>
   <i type="int" name="NBANDSLOW">    -1</i>
   <i type="int" name="NBANDSHIGH">    -1</i>
   <i name="NELECT">     10.00000000</i>
   <i type="int" name="TURBO">     0</i>
   <i type="int" name="IRESTART">     0</i>
   <i type="int" name="NREBOOT">     0</i>
   <i type="int" name="NMIN">     0</i>
   <i name="EREF">      0.00000000</i>
   <separator name="electronic smearing" >
    <i type="int" name="ISMEAR">     0</i>
    <i name="SIGMA">      0.01000000</i>
    <i name="KSPACING">      0.50000000</i>
    <i type="logical" name="KGAMMA"> T  </i>
    <i type="logical" name="KBLOWUP"> T  </i>
   </separator>
   <separator name="electronic projectors" >
    <i type="logical" name="LREAL"> F  </i>
    <v name="ROPT">      0.00000000</v>
    <i type="int" name="LMAXPAW">  -100</i>
    <i type="int" name="LMAXMIX">     2</i>
    <i type="logical" name="NLSPLINE"> F  </i>
   </separator>
   <separator name="electronic startup" >
    <i type="int" name="ISTART">     0</i>
    <i type="int" name="ICHARG">     2</i>
    <i type="int" name="INIWAV">     1</i>
   </separator>
   <separator name="electronic spin" >
    <i type="int" name="ISPIN">     1</i>
    <i type="logical" name="LNONCOLLINEAR"> F  </i>
    <v name="MAGMOM">      1.00000000      1.00000000</v>
    <i name="NUPDOWN">     -1.00000000</i>
    <i type="logical" name="LSORBIT"> F  </i>
    <v name="SAXIS">      0.00000000      0.00000000      1.00000000</v>
    <i type="logical" name="LSPIRAL"> F  </i>
    <v name="QSPIRAL">      0.00000000      0.00000000      0.00000000</v>
    <i type="logical" name="LZEROZ"> F  </i>
   </separator>
   <separator name="electronic exchange-correlation" >
    <i type="logical" name="LASPH"> T  </i>
    <i type="logical" name="LMETAGGA"> F  </i>
   </separator>
   <separator name="electronic convergence" >
    <i type="int" name="NELM">   200</i>
    <i type="int" name="NELMDL">   -12</i>
    <i type="int" name="NELMIN">     6</i>
    <i name="ENINI">    193.57762500</i>
    <separator name="electronic convergence detail" >
     <i type="logical" name="LDIAG"> T  </i>
     <i type="logical" name="LSUBROT"> F  </i>
     <i name="WEIMIN">      0.00000000</i>
     <i name="EBREAK">      0.00000002</i>
     <i name="DEPER">      0.30000000</i>
     <i type="int" name="NRMM">     4</i>
     <i name="TIME">      0.40000000</i>
    </separator>
   </separator>
   <separator name="electronic mixer" >
    <i name="AMIX">      0.10000000</i>
    <i name="BMIX">      0.00010000</i>
    <i name="AMIN">      0.10000000</i>
    <i name="AMIX_MAG">      0.40000000</i>
    <i name="BMIX_MAG">      0.00010000</i>
    <separator name="electronic mixer details" >
     <i type="int" name="IMIX">     4</i>
     <i type="logical" name="MIXFIRST"> F  </i>
     <i type="int" name="MAXMIX">   -45</i>
     <i name="WC">    100.00000000</i>
     <i type="int" name="INIMIX">     1</i>
     <i type="int" name="MIXPRE">     1</i>
     <i type="int" name="MREMOVE">     5</i>
    </separator>
   </separator>
   <separator name="electronic dipolcorrection" >
    <i type="logical" name="LDIPOL"> F  </i>
    <i type="logical" name="LMONO"> F  </i>
    <i type="int" name="IDIPOL">     0</i>
    <i name="EPSILON">      1.00000000</i>
    <v name="DIPOL">   -100.00000000   -100.00000000   -100.00000000</v>
    <i name="EFIELD">      0.00000000</i>
   </separator>
  </separator>
  <separator name="grids" >
   <i type="int" name="NGX">    20</i>
   <i type="int" name="NGY">    20</i>
   <i type="int" name="NGZ">   112</i>
   <i type="int" name="NGXF">    40</i>
   <i type="int" name="NGYF">    40</i>
   <i type="int" name="NGZF">   224</i>
   <i type="logical" name="ADDGRID"> T  </i>
  </separator>
  <separator name="ionic" >
   <i type="int" name="NSW">     0</i>
   <i type="int" name="IBRION">    -1</i>
   <i type="int" name="MDALGO">     0</i>
   <i type="int" name="ISIF">    -1</i>
   <i name="PSTRESS">      0.00000000</i>
   <i name="EDIFFG">     -0.01000000</i>
   <i type="int" name="NFREE">     1</i>
   <i name="POTIM">      0.50000000</i>
   <i name="SMASS">     -3.00000000</i>
   <i name="SCALEE">      1.00000000</i>
  </separator>
  <separator name="ionic md" >
   <i name="TEBEG">      0.00010000</i>
   <i name="TEEND">      0.00010000</i>
   <i type="int" name="NBLOCK">     1</i>
   <i type="int" name="KBLOCK">     1</i>
   <i type="int" name="NPACO">   256</i>
   <i name="APACO">     10.00000000</i>
  </separator>
  <separator name="symmetry" >
   <i type="int" name="ISYM">     2</i>
   <i name="SYMPREC">      0.00001000</i>
  </separator>
  <separator name="dos" >
   <i type="int" name="LORBIT">    10</i>
   <v name="RWIGS">     -1.00000000</v>
   <i type="int" name="NEDOS">  6001</i>
   <i name="EMIN">     10.00000000</i>
   <i name="EMAX">    -10.00000000</i>
   <i name="EFERMI">      0.00000000</i>
  </separator>
  <separator name="writing" >
   <i type="int" name="NWRITE">     1</i>
   <i type="logical" name="LWAVE"> F  </i>
   <i type="logical" name="LDOWNSAMPLE"> F  </i>
   <i type="logical" name="LCHARG"> F  </i>
   <i type="logical" name="LPARD"> F  </i>
   <i type="logical" name="LVTOT"> F  </i>
   <i type="logical" name="LVHAR"> F  </i>
   <i type="logical" name="LELF"> F  </i>
   <i type="logical" name="LOPTICS"> F  </i>
   <v name="STM">      0.00000000      0.00000000      0.00000000      0.00000000      0.00000000      0.00000000      0.00000000</v>
  </separator>
  <separator name="performance" >
   <i type="int" name="NPAR">    16</i>
   <i type="int" name="NSIM">     4</i>
   <i type="int" name="NBLK">    -1</i>
   <i type="logical" name="LPLANE"> T  </i>
   <i type="logical" name="LSCALAPACK"> T  </i>
   <i type="logical" name="LSCAAWARE"> F  </i>
   <i type="logical" name="LSCALU"> F  </i>
   <i type="logical" name="LASYNC"> F  </i>
   <i type="logical" name="LORBITALREAL"> F  </i>
  </separator>
  <separator name="miscellaneous" >
   <i type="int" name="IDIOT">     3</i>
   <i type="int" name="PHON_NSTRUCT">    -1</i>
   <i type="logical" name="LMUSIC"> F  </i>
   <v name="POMASS">    121.75000000</v>
   <v name="DARWINR">      0.00000000</v>
   <v name="DARWINV">      1.00000000</v>
   <i type="logical" name="LCORR"> T  </i>
  </separator>
  <i type="logical" name="GGA_COMPAT"> T  </i>
  <i type="logical" name="LBERRY"> F  </i>
  <i type="int" name="ICORELEVEL">     0</i>
  <i type="logical" name="LDAU"> F  </i>
  <i type="int" name="I_CONSTRAINED_M">     0</i>
  <separator name="electronic exchange-correlation" >
   <i type="string" name="GGA">--</i>
   <i type="int" name="VOSKOWN">     0</i>
   <i type="logical" name="LHFCALC"> F  </i>
   <i type="string" name="PRECFOCK"></i>
   <i type="logical" name="LSYMGRAD"> F  </i>
   <i type="logical" name="LHFONE"> F  </i>
   <i type="logical" name="LRHFCALC"> F  </i>
   <i type="logical" name="LTHOMAS"> F  </i>
   <i type="logical" name="LMODELHF"> F  </i>
   <i type="logical" name="LFOCKACE"> F  </i>
   <i name="ENCUT4O">     -1.00000000</i>
   <i type="int" name="EXXOEP">     0</i>
   <i type="int" name="FOURORBIT">     0</i>
   <i name="AEXX">      0.00000000</i>
   <i name="HFALPHA">      0.00000000</i>
   <i name="MCALPHA">      0.00000000</i>
   <i name="ALDAX">      1.00000000</i>
   <i name="AGGAX">      1.00000000</i>
   <i name="ALDAC">      1.00000000</i>
   <i name="AGGAC">      1.00000000</i>
   <i type="int" name="NKREDX">     1</i>
   <i type="int" name="NKREDY">     1</i>
   <i type="int" name="NKREDZ">     1</i>
   <i type="logical" name="SHIFTRED"> F  </i>
   <i type="logical" name="ODDONLY"> F  </i>
   <i type="logical" name="EVENONLY"> F  </i>
   <i type="int" name="LMAXFOCK">     0</i>
   <i type="int" name="NMAXFOCKAE">     0</i>
   <i type="logical" name="LFOCKAEDFT"> F  </i>
   <i name="HFSCREEN">      0.00000000</i>
   <i name="HFSCREENC">      0.00000000</i>
   <i type="int" name="NBANDSGWLOW">     0</i>
  </separator>
  <separator name="vdW DFT" >
   <i type="logical" name="LUSE_VDW"> F  </i>
   <i type="int" name="IVDW_NL">     1</i>
   <i type="logical" name="LSPIN_VDW"> F  </i>
   <i name="Zab_VDW">     -0.84910000</i>
   <i name="PARAM1">      0.12340000</i>
   <i name="PARAM2">      1.00000000</i>
   <i name="PARAM3">      0.00000000</i>
  </separator>
  <separator name="model GW" >
   <i type="int" name="MODEL_GW">     0</i>
   <i name="MODEL_EPS0">    105.50133705</i>
   <i name="MODEL_ALPHA">      1.00000000</i>
  </separator>
  <separator name="linear response parameters" >
   <i type="logical" name="LEPSILON"> T  </i>
   <i type="logical" name="LRPA"> F  </i>
   <i type="logical" name="LNABLA"> F  </i>
   <i type="logical" name="LVEL"> F  </i>
   <i name="CSHIFT">      0.10000000</i>
   <i name="OMEGAMAX">     -1.00000000</i>
   <i name="DEG_THRESHOLD">      0.00200000</i>
   <i name="RTIME">     -0.10000000</i>
   <i name="WPLASMAI">      0.00000000</i>
   <v name="DFIELD">      0.00000000      0.00000000      0.00000000</v>
   <v name="WPLASMA">      0.00000000      0.00000000      0.00000000      0.00000000      0.00000000      0.00000000      0.00000000      0.00000000      0.00000000</v>
  </separator>
  <separator name="orbital magnetization" >
   <i type="logical" name="NUCIND"> F  </i>
   <v name="MAGPOS">      0.00000000      0.00000000      0.00000000</v>
   <i type="logical" name="LNICSALL"> T  </i>
   <i type="logical" name="ORBITALMAG"> F  </i>
   <i type="logical" name="LMAGBLOCH"> F  </i>
   <i type="logical" name="LCHIMAG"> F  </i>
   <i type="logical" name="LGAUGE"> T  </i>
   <i type="int" name="MAGATOM">     0</i>
   <v name="MAGDIPOL">      0.00000000      0.00000000      0.00000000</v>
   <v name="AVECCONST">      0.00000000      0.00000000      0.00000000</v>
  </separator>
  <separator name="response functions" >
   <i type="logical" name="LALL_IN_ONE"> F  </i>
   <i type="int" name="IALL_IN_ONE">    -1</i>
   <i type="int" name="NBANDS_WAVE">    -1</i>
   <i type="logical" name="LFINITE_TEMPERATURE"> F  </i>
   <i type="logical" name="LADDER"> F  </i>
   <i type="logical" name="LRPAFORCE"> F  </i>
   <i type="logical" name="LFXC"> F  </i>
   <i type="logical" name="LHARTREE"> T  </i>
   <i type="int" name="IBSE">     0</i>
   <v type="int" name="KPOINT">    -1     0     0     0</v>
   <i type="logical" name="LTCTC"> F  </i>
   <i type="logical" name="LTCTE"> F  </i>
   <i type="logical" name="LTETE"> F  </i>
   <i type="logical" name="LTRIPLET"> F  </i>
   <i type="logical" name="LFXCEPS"> F  </i>
   <i type="logical" name="LFXHEG"> F  </i>
   <i type="int" name="NATURALO">     2</i>
   <i type="logical" name="LHOLEGF"> F  </i>
   <i type="logical" name="L2ORDER"> F  </i>
   <i type="logical" name="LDMP1"> F  </i>
   <i type="logical" name="LMP2LT"> F  </i>
   <i type="logical" name="LSMP2LT"> F  </i>
   <i type="logical" name="LGWLF"> F  </i>
   <i name="ENCUTGW">     -1.60000002</i>
   <i name="ENCUTGWSOFT">     -1.60000002</i>
   <i name="ENCUTLF">     -1.00000000</i>
   <i type="logical" name="LESF_SPLINES"> F  </i>
   <i type="int" name="LMAXMP2">    -1</i>
   <i name="SCISSOR">      0.00000000</i>
   <i type="int" name="NOMEGA">     0</i>
   <i type="int" name="NOMEGAR">     0</i>
   <i type="int" name="NBANDSGW">    -1</i>
   <i type="int" name="NBANDSO">    -1</i>
   <i type="int" name="NBANDSV">    -1</i>
   <i type="int" name="NELMGW">     1</i>
   <i type="int" name="NELMHF">     1</i>
   <i type="int" name="DIM">     3</i>
   <i type="int" name="IESPILON">     4</i>
   <i type="int" name="ANTIRES">     0</i>
   <i name="OMEGAMAX">    -30.00000000</i>
   <i name="OMEGAMIN">    -30.00000000</i>
   <i name="OMEGATL">   -200.00000000</i>
   <i type="int" name="OMEGAGRID">     0</i>
   <i name="CSHIFT">     -0.10000000</i>
   <i type="logical" name="LSELFENERGY"> F  </i>
   <i type="logical" name="LSPECTRAL"> F  </i>
   <i type="logical" name="LSPECTRALGW"> F  </i>
   <i type="logical" name="LSINGLES"> F  </i>
   <i type="logical" name="LFERMIGW"> F  </i>
   <i type="logical" name="ODDONLYGW"> F  </i>
   <i type="logical" name="EVENONLYGW"> F  </i>
   <i type="int" name="NKREDLFX">     1</i>
   <i type="int" name="NKREDLFY">     1</i>
   <i type="int" name="NKREDLFZ">     1</i>
   <i type="int" name="MAXMEM">  2800</i>
   <i type="int" name="TELESCOPE">     0</i>
   <i type="int" name="NTAUPAR">    -1</i>
   <i type="int" name="NOMEGAPAR">    -1</i>
   <i name="DAMP_NEWTON">      0.80000001</i>
   <i name="LAMBDA">      1.00000000</i>
  </separator>
  <separator name="External order field" >
   <i name="OFIELD_KAPPA">      0.00000000</i>
   <v name="OFIELD_K">      0.00000000      0.00000000      0.00000000</v>
   <i name="OFIELD_Q6_NEAR">      0.00000000</i>
   <i name="OFIELD_Q6_FAR">      0.00000000</i>
   <i name="OFIELD_A">      0.00000000</i>
  </separator>
  <separator name="optional k-points parameters" >
   <i type="int" name="KPOINTS_OPT_MODE">     1</i>
   <i type="logical" name="LKPOINTS_OPT"> F  </i>
  </separator>
 </parameters>
 <atominfo>
  <atoms>       2 </atoms>
  <types>       1 </types>
  <array name="atoms" >
   <dimension dim="1">ion</dimension>
   <field type="string">element</field>
   <field type="int">atomtype</field>
   <set>
    <rc><c>Sb</c><c>   1</c></rc>
    <rc><c>Sb</c><c>   1</c></rc>
   </set>
  </array>
  <array name="atomtypes" >
   <dimension dim="1">type</dimension>
   <field type="int">atomspertype</field>
   <field type="string">element</field>
   <field>mass</field>
   <field>valence</field>
   <field type="string">pseudopotential</field>
   <set>
    <rc><c>   2</c><c>Sb</c><c>    121.75000000</c><c>      5.00000000</c><c>  PAW_PBE Sb_GW 21Mar2012               </c></rc>
   </set>
  </array>
 </atominfo>
 <structure name="initialpos" >
  <crystal>
   <varray name="basis" >
    <v>       4.11336660       0.00000000       0.00000000 </v>
    <v>      -2.05668330       3.56227997       0.00000000 </v>
    <v>       0.00000000       0.00000000      24.00000000 </v>
   </varray>
   <i name="volume">    351.67112349 </i>
   <varray name="rec_basis" >
    <v>       0.24310987       0.14035955       0.00000000 </v>
    <v>       0.00000000       0.28071909       0.00000000 </v>
    <v>       0.00000000       0.00000000       0.04166667 </v>
   </varray>
  </crystal>
  <varray name="positions" >
   <v>       0.66666669       0.33333334       0.29908359 </v>
   <v>       0.33333334       0.66666669       0.36758308 </v>
  </varray>
 </structure>
 <calculation>
  <scstep>
   <time name="dav">    0.15    0.15</time>
   <time name="total">    0.52    0.55</time>
   <energy>
    <i name="alphaZ">      1.98395647 </i>
    <i name="ewald">    616.86872450 </i>
    <i name="hartreedc">   -860.82644452 </i>
    <i name="XCdc">    -92.70010106 </i>
    <i name="pawpsdc">    327.35893868 </i>
    <i name="pawaedc">   -219.44694627 </i>
    <i name="eentropy">     -0.00000000 </i>
    <i name="bandstr">    -48.55260862 </i>
    <i name="atom">    299.89217194 </i>
    <i name="e_fr_energy">     24.57769113 </i>
    <i name="e_wo_entrp">     24.57769113 </i>
    <i name="e_0_energy">     24.57769113 </i>
   </energy>
  </scstep>
  <scstep>
   <time name="dav">    0.16    0.17</time>
   <time name="total">    0.16    0.17</time>
   <energy>
    <i name="e_fr_energy">     -7.40780293 </i>
    <i name="e_wo_entrp">     -7.40780293 </i>
    <i name="e_0_energy">     -7.40780293 </i>
   </energy>
  </scstep>
  <scstep>
   <time name="dav">    0.21    0.21</time>
   <time name="total">    0.21    0.21</time>
   <energy>
    <i name="e_fr_energy">     -8.16057903 </i>
    <i name="e_wo_entrp">     -8.16057903 </i>
    <i name="e_0_energy">     -8.16057903 </i>
   </energy>
  </scstep>
  <scstep>
   <time name="dav">    0.30    0.30</time>
   <time name="total">    0.30    0.30</time>
   <energy>
    <i name="e_fr_energy">     -8.16628444 </i>
    <i name="e_wo_entrp">     -8.16628444 </i>
    <i name="e_0_energy">     -8.16628444 </i>
   </energy>
  </scstep>
  <scstep>
   <time name="dav">    0.16    0.16</time>
   <time name="total">    0.16    0.16</time>
   <energy>
    <i name="e_fr_energy">     -8.16629203 </i>
    <i name="e_wo_entrp">     -8.16629203 </i>
    <i name="e_0_energy">     -8.16629203 </i>
   </energy>
  </scstep>
  <scstep>
   <time name="dav">    0.22    0.22</time>
   <time name="total">    0.22    0.22</time>
   <energy>
    <i name="e_fr_energy">     -8.16629208 </i>
    <i name="e_wo_entrp">     -8.16629208 </i>
    <i name="e_0_energy">     -8.16629208 </i>
   </energy>
  </scstep>
  <scstep>
   <time name="dav">    0.14    0.14</time>
   <time name="total">    0.14    0.14</time>
   <energy>
    <i name="e_fr_energy">     -8.16629208 </i>
    <i name="e_wo_entrp">     -8.16629208 </i>
    <i name="e_0_energy">     -8.16629208 </i>
   </energy>
  </scstep>
  <scstep>
   <time name="dav">    0.24    0.24</time>
   <time name="total">    0.24    0.24</time>
   <energy>
    <i name="e_fr_energy">     -8.16629208 </i>
    <i name="e_wo_entrp">     -8.16629208 </i>
    <i name="e_0_energy">     -8.16629208 </i>
   </energy>
  </scstep>
  <scstep>
   <time name="dav">    0.15    0.15</time>
   <time name="total">    0.15    0.15</time>
   <energy>
    <i name="e_fr_energy">     -8.16629208 </i>
    <i name="e_wo_entrp">     -8.16629208 </i>
    <i name="e_0_energy">     -8.16629208 </i>
   </energy>
  </scstep>
  <scstep>
   <time name="dav">    0.14    0.14</time>
   <time name="total">    0.14    0.14</time>
   <energy>
    <i name="e_fr_energy">     -8.16629208 </i>
    <i name="e_wo_entrp">     -8.16629208 </i>
    <i name="e_0_energy">     -8.16629208 </i>
   </energy>
  </scstep>
  <scstep>
   <time name="dav">    0.08    0.08</time>
   <time name="total">    0.08    0.08</time>
   <energy>
    <i name="e_fr_energy">     -8.16629208 </i>
    <i name="e_wo_entrp">     -8.16629208 </i>
    <i name="e_0_energy">     -8.16629208 </i>
   </energy>
  </scstep>
  <scstep>
   <time name="dav">    0.10    0.10</time>
   <time name="total">    0.13    0.13</time>
   <energy>
    <i name="e_fr_energy">     -8.16629208 </i>
    <i name="e_wo_entrp">     -8.16629208 </i>
    <i name="e_0_energy">     -8.16629208 </i>
   </energy>
  </scstep>
  <scstep>
   <time name="dav">    0.17    0.17</time>
   <time name="total">    0.57    0.57</time>
   <energy>
    <i name="e_fr_energy">     -8.15086102 </i>
    <i name="e_wo_entrp">     -8.15086102 </i>
    <i name="e_0_energy">     -8.15086102 </i>
   </energy>
  </scstep>
  <scstep>
   <time name="dav">    0.17    0.17</time>
   <time name="total">    0.56    0.56</time>
   <energy>
    <i name="e_fr_energy">     -8.12157796 </i>
    <i name="e_wo_entrp">     -8.12157796 </i>
    <i name="e_0_energy">     -8.12157796 </i>
   </energy>
  </scstep>
  <scstep>
   <time name="dav">    0.19    0.19</time>
   <time name="total">    0.59    0.59</time>
   <energy>
    <i name="e_fr_energy">     -8.11792025 </i>
    <i name="e_wo_entrp">     -8.11792025 </i>
    <i name="e_0_energy">     -8.11792025 </i>
   </energy>
  </scstep>
  <scstep>
   <time name="dav">    0.20    0.20</time>
   <time name="total">    0.60    0.60</time>
   <energy>
    <i name="e_fr_energy">     -8.11740434 </i>
    <i name="e_wo_entrp">     -8.11740434 </i>
    <i name="e_0_energy">     -8.11740434 </i>
   </energy>
  </scstep>
  <scstep>
   <time name="dav">    0.18    0.18</time>
   <time name="total">    0.57    0.57</time>
   <energy>
    <i name="e_fr_energy">     -8.11730098 </i>
    <i name="e_wo_entrp">     -8.11730098 </i>
    <i name="e_0_energy">     -8.11730098 </i>
   </energy>
  </scstep>
  <scstep>
   <time name="dav">    0.19    0.19</time>
   <time name="total">    0.58    0.58</time>
   <energy>
    <i name="e_fr_energy">     -8.11730865 </i>
    <i name="e_wo_entrp">     -8.11730865 </i>
    <i name="e_0_energy">     -8.11730865 </i>
   </energy>
  </scstep>
  <scstep>
   <time name="dav">    0.14    0.14</time>
   <time name="total">    0.51    0.51</time>
   <energy>
    <i name="alphaZ">      1.98395647 </i>
    <i name="ewald">    616.86872450 </i>
    <i name="hartreedc">   -866.34114952 </i>
    <i name="XCdc">    -92.29524434 </i>
    <i name="pawpsdc">    366.57269115 </i>
    <i name="pawaedc">   -258.80194939 </i>
    <i name="eentropy">     -0.00000000 </i>
    <i name="bandstr">    -75.99650937 </i>
    <i name="atom">    299.89217194 </i>
    <i name="e_fr_energy">     -8.11730857 </i>
    <i name="e_wo_entrp">     -8.11730857 </i>
    <i name="e_0_energy">     -8.11730857 </i>
   </energy>
  </scstep>
  <structure>
   <crystal>
    <varray name="basis" >
     <v>       4.11336660       0.00000000       0.00000000 </v>
     <v>      -2.05668330       3.56227997       0.00000000 </v>
     <v>       0.00000000       0.00000000      24.00000000 </v>
    </varray>
    <i name="volume">    351.67112349 </i>
    <varray name="rec_basis" >
     <v>       0.24310987       0.14035955       0.00000000 </v>
     <v>       0.00000000       0.28071909       0.00000000 </v>
     <v>       0.00000000       0.00000000       0.04166667 </v>
    </varray>
   </crystal>
   <varray name="positions" >
    <v>       0.66666669       0.33333334       0.29908359 </v>
    <v>       0.33333334       0.66666669       0.36758308 </v>
   </varray>
  </structure>
  <varray name="forces" >
   <v>       0.00000000       0.00000000       0.00000000 </v>
   <v>       0.00000000       0.00000000       0.00000000 </v>
  </varray>
  <varray name="stress" >
   <v>       0.00000000       0.00000000       0.00000000 </v>
   <v>       0.00000000       0.00000000       0.00000000 </v>
   <v>       0.00000000       0.00000000       0.00000000 </v>
  </varray>
  <energy>
   <i name="e_fr_energy">     -8.11730857 </i>
   <i name="e_wo_entrp">     -8.11730857 </i>
   <i name="e_0_energy">     -8.11730857 </i>
  </energy>
  <scstep>
   <time name="total">    0.10    0.10</time>
   <energy>
    <i name="e_fr_energy">    -44.34274894 </i>
    <i name="e_wo_entrp">    -44.34274894 </i>
    <i name="e_0_energy">    -44.34274894 </i>
   </energy>
  </scstep>
  <scstep>
   <time name="total">    0.19    0.28</time>
   <energy>
    <i name="e_fr_energy">    -50.01603062 </i>
    <i name="e_wo_entrp">    -50.01603062 </i>
    <i name="e_0_energy">    -50.01603062 </i>
   </energy>
  </scstep>
  <scstep>
   <time name="total">    0.20    0.29</time>
   <energy>
    <i name="e_fr_energy">    -50.60559466 </i>
    <i name="e_wo_entrp">    -50.60559466 </i>
    <i name="e_0_energy">    -50.60559466 </i>
   </energy>
  </scstep>
  <scstep>
   <time name="total">    0.16    0.25</time>
   <energy>
    <i name="e_fr_energy">    -50.63597198 </i>
    <i name="e_wo_entrp">    -50.63597198 </i>
    <i name="e_0_energy">    -50.63597198 </i>
   </energy>
  </scstep>
  <scstep>
   <time name="total">    0.17    0.25</time>
   <energy>
    <i name="e_fr_energy">    -50.63641719 </i>
    <i name="e_wo_entrp">    -50.63641719 </i>
    <i name="e_0_energy">    -50.63641719 </i>
   </energy>
  </scstep>
  <scstep>
   <time name="total">    0.16    0.25</time>
   <energy>
    <i name="e_fr_energy">    -50.63648586 </i>
    <i name="e_wo_entrp">    -50.63648586 </i>
    <i name="e_0_energy">    -50.63648586 </i>
   </energy>
  </scstep>
  <scstep>
   <time name="total">    0.16    0.25</time>
   <energy>
    <i name="e_fr_energy">    -50.63648920 </i>
    <i name="e_wo_entrp">    -50.63648920 </i>
    <i name="e_0_energy">    -50.63648920 </i>
   </energy>
  </scstep>
  <scstep>
   <time name="total">    0.17    0.25</time>
   <energy>
    <i name="e_fr_energy">    -50.63649001 </i>
    <i name="e_wo_entrp">    -50.63649001 </i>
    <i name="e_0_energy">    -50.63649001 </i>
   </energy>
  </scstep>
  <scstep>
   <time name="total">    0.10    0.10</time>
   <energy>
    <i name="e_fr_energy">    -44.07898862 </i>
    <i name="e_wo_entrp">    -44.07898862 </i>
    <i name="e_0_energy">    -44.07898862 </i>
   </energy>
  </scstep>
  <scstep>
   <time name="total">    0.19    0.28</time>
   <energy>
    <i name="e_fr_energy">    -58.65284872 </i>
    <i name="e_wo_entrp">    -58.65284872 </i>
    <i name="e_0_energy">    -58.65284872 </i>
   </energy>
  </scstep>
  <scstep>
   <time name="total">    0.19    0.29</time>
   <energy>
    <i name="e_fr_energy">    -59.26970001 </i>
    <i name="e_wo_entrp">    -59.26970001 </i>
    <i name="e_0_energy">    -59.26970001 </i>
   </energy>
  </scstep>
  <scstep>
   <time name="total">    0.16    0.25</time>
   <energy>
    <i name="e_fr_energy">    -59.29816754 </i>
    <i name="e_wo_entrp">    -59.29816754 </i>
    <i name="e_0_energy">    -59.29816754 </i>
   </energy>
  </scstep>
  <scstep>
   <time name="total">    0.17    0.25</time>
   <energy>
    <i name="e_fr_energy">    -59.29905063 </i>
    <i name="e_wo_entrp">    -59.29905063 </i>
    <i name="e_0_energy">    -59.29905063 </i>
   </energy>
  </scstep>
  <scstep>
   <time name="total">    0.16    0.25</time>
   <energy>
    <i name="e_fr_energy">    -59.29911872 </i>
    <i name="e_wo_entrp">    -59.29911872 </i>
    <i name="e_0_energy">    -59.29911872 </i>
   </energy>
  </scstep>
  <scstep>
   <time name="total">    0.16    0.25</time>
   <energy>
    <i name="e_fr_energy">    -59.29912152 </i>
    <i name="e_wo_entrp">    -59.29912152 </i>
    <i name="e_0_energy">    -59.29912152 </i>
   </energy>
  </scstep>
  <scstep>
   <time name="total">    0.16    0.26</time>
   <energy>
    <i name="e_fr_energy">    -59.29912191 </i>
    <i name="e_wo_entrp">    -59.29912191 </i>
    <i name="e_0_energy">    -59.29912191 </i>
   </energy>
  </scstep>
  <scstep>
   <time name="total">    0.11    0.11</time>
   <energy>
    <i name="e_fr_energy">    -54.11148799 </i>
    <i name="e_wo_entrp">    -54.11148799 </i>
    <i name="e_0_energy">    -54.11148799 </i>
   </energy>
  </scstep>
  <scstep>
   <time name="total">    0.21    0.35</time>
   <energy>
    <i name="e_fr_energy">    -55.59455047 </i>
    <i name="e_wo_entrp">    -55.59455047 </i>
    <i name="e_0_energy">    -55.59455047 </i>
   </energy>
  </scstep>
  <scstep>
   <time name="total">    0.19    0.28</time>
   <energy>
    <i name="e_fr_energy">    -56.10642771 </i>
    <i name="e_wo_entrp">    -56.10642771 </i>
    <i name="e_0_energy">    -56.10642771 </i>
   </energy>
  </scstep>
  <scstep>
   <time name="total">    0.17    0.33</time>
   <energy>
    <i name="e_fr_energy">    -56.12294280 </i>
    <i name="e_wo_entrp">    -56.12294280 </i>
    <i name="e_0_energy">    -56.12294280 </i>
   </energy>
  </scstep>
  <scstep>
   <time name="total">    0.16    0.25</time>
   <energy>
    <i name="e_fr_energy">    -56.12384051 </i>
    <i name="e_wo_entrp">    -56.12384051 </i>
    <i name="e_0_energy">    -56.12384051 </i>
   </energy>
  </scstep>
  <scstep>
   <time name="total">    0.16    0.24</time>
   <energy>
    <i name="e_fr_energy">    -56.12390787 </i>
    <i name="e_wo_entrp">    -56.12390787 </i>
    <i name="e_0_energy">    -56.12390787 </i>
   </energy>
  </scstep>
  <scstep>
   <time name="total">    0.16    0.25</time>
   <energy>
    <i name="e_fr_energy">    -56.12391505 </i>
    <i name="e_wo_entrp">    -56.12391505 </i>
    <i name="e_0_energy">    -56.12391505 </i>
   </energy>
  </scstep>
  <scstep>
   <time name="total">    0.17    0.26</time>
   <energy>
    <i name="e_fr_energy">    -56.12391587 </i>
    <i name="e_wo_entrp">    -56.12391587 </i>
    <i name="e_0_energy">    -56.12391587 </i>
   </energy>
  </scstep>
  <scstep>
   <time name="total">    0.98    0.99</time>
   <energy>
    <i name="e_fr_energy">     -2.61194571 </i>
    <i name="e_wo_entrp">     -2.61194571 </i>
    <i name="e_0_energy">     -2.61194571 </i>
   </energy>
  </scstep>
  <scstep>
   <time name="total">    0.96    0.96</time>
   <energy>
    <i name="e_fr_energy">     -2.90168660 </i>
    <i name="e_wo_entrp">     -2.90168660 </i>
    <i name="e_0_energy">     -2.90168660 </i>
   </energy>
  </scstep>
  <scstep>
   <time name="total">    0.96    0.99</time>
   <energy>
    <i name="e_fr_energy">     -2.90645444 </i>
    <i name="e_wo_entrp">     -2.90645444 </i>
    <i name="e_0_energy">     -2.90645444 </i>
   </energy>
  </scstep>
  <scstep>
   <time name="total">    0.96    0.96</time>
   <energy>
    <i name="e_fr_energy">     -2.90663690 </i>
    <i name="e_wo_entrp">     -2.90663690 </i>
    <i name="e_0_energy">     -2.90663690 </i>
   </energy>
  </scstep>
  <scstep>
   <time name="total">    0.96    0.96</time>
   <energy>
    <i name="e_fr_energy">     -2.90664934 </i>
    <i name="e_wo_entrp">     -2.90664934 </i>
    <i name="e_0_energy">     -2.90664934 </i>
   </energy>
  </scstep>
  <scstep>
   <time name="total">    0.95    0.95</time>
   <energy>
    <i name="e_fr_energy">     -2.90665047 </i>
    <i name="e_wo_entrp">     -2.90665047 </i>
    <i name="e_0_energy">     -2.90665047 </i>
   </energy>
  </scstep>
  <scstep>
   <time name="total">    0.95    0.95</time>
   <energy>
    <i name="e_fr_energy">     -2.90665059 </i>
    <i name="e_wo_entrp">     -2.90665059 </i>
    <i name="e_0_energy">     -2.90665059 </i>
   </energy>
  </scstep>
  <scstep>
   <time name="total">    0.96    0.96</time>
   <energy>
    <i name="e_fr_energy">     -3.30537970 </i>
    <i name="e_wo_entrp">     -3.30537970 </i>
    <i name="e_0_energy">     -3.30537970 </i>
   </energy>
  </scstep>
  <scstep>
   <time name="total">    0.95    0.95</time>
   <energy>
    <i name="e_fr_energy">     -3.64233020 </i>
    <i name="e_wo_entrp">     -3.64233020 </i>
    <i name="e_0_energy">     -3.64233020 </i>
   </energy>
  </scstep>
  <scstep>
   <time name="total">    0.97    0.97</time>
   <energy>
    <i name="e_fr_energy">     -3.64708305 </i>
    <i name="e_wo_entrp">     -3.64708305 </i>
    <i name="e_0_energy">     -3.64708305 </i>
   </energy>
  </scstep>
  <scstep>
   <time name="total">    0.95    0.95</time>
   <energy>
    <i name="e_fr_energy">     -3.64721960 </i>
    <i name="e_wo_entrp">     -3.64721960 </i>
    <i name="e_0_energy">     -3.64721960 </i>
   </energy>
  </scstep>
  <scstep>
   <time name="total">    0.96    0.96</time>
   <energy>
    <i name="e_fr_energy">     -3.64722781 </i>
    <i name="e_wo_entrp">     -3.64722781 </i>
    <i name="e_0_energy">     -3.64722781 </i>
   </energy>
  </scstep>
  <scstep>
   <time name="total">    0.96    0.96</time>
   <energy>
    <i name="e_fr_energy">     -3.64722867 </i>
    <i name="e_wo_entrp">     -3.64722867 </i>
    <i name="e_0_energy">     -3.64722867 </i>
   </energy>
  </scstep>
  <scstep>
   <time name="total">    0.95    0.96</time>
   <energy>
    <i name="e_fr_energy">     -1.02265677 </i>
    <i name="e_wo_entrp">     -1.02265677 </i>
    <i name="e_0_energy">     -1.02265677 </i>
   </energy>
  </scstep>
  <scstep>
   <time name="total">    0.94    0.94</time>
   <energy>
    <i name="e_fr_energy">     -1.31300413 </i>
    <i name="e_wo_entrp">     -1.31300413 </i>
    <i name="e_0_energy">     -1.31300413 </i>
   </energy>
  </scstep>
  <scstep>
   <time name="total">    0.93    0.93</time>
   <energy>
    <i name="e_fr_energy">     -1.31727135 </i>
    <i name="e_wo_entrp">     -1.31727135 </i>
    <i name="e_0_energy">     -1.31727135 </i>
   </energy>
  </scstep>
  <scstep>
   <time name="total">    0.95    0.95</time>
   <energy>
    <i name="e_fr_energy">     -1.31736594 </i>
    <i name="e_wo_entrp">     -1.31736594 </i>
    <i name="e_0_energy">     -1.31736594 </i>
   </energy>
  </scstep>
  <scstep>
   <time name="total">    0.97    0.97</time>
   <energy>
    <i name="e_fr_energy">     -1.31737170 </i>
    <i name="e_wo_entrp">     -1.31737170 </i>
    <i name="e_0_energy">     -1.31737170 </i>
   </energy>
  </scstep>
  <scstep>
   <time name="total">    0.96    0.96</time>
   <energy>
    <i name="e_fr_energy">     -1.31737215 </i>
    <i name="e_wo_entrp">     -1.31737215 </i>
    <i name="e_0_energy">     -1.31737215 </i>
   </energy>
  </scstep>
  <varray name="dielectric_ipa" >
   <v>       4.37232011       0.00000000      -0.00000000 </v>
   <v>       0.00000000       4.37232011       0.00000000 </v>
   <v>       0.00000000       0.00000000       2.35571560 </v>
  </varray>
  <kpoints>
   <generation param="Gamma">
    <v type="int" name="divisions">      11       11        1 </v>
    <v name="usershift">      0.00000000       0.00000000       0.00000000 </v>
    <v name="genvec1">      0.09090909       0.00000000       0.00000000 </v>
    <v name="genvec2">      0.00000000       0.09090909       0.00000000 </v>
    <v name="genvec3">      0.00000000       0.00000000       1.00000000 </v>
    <v name="shift">      0.00000000       0.00000000       0.00000000 </v>
   </generation>
   <varray name="kpointlist" >
    <v>       0.00000000       0.00000000       0.00000000 </v>
    <v>       0.09090909       0.00000000       0.00000000 </v>
    <v>       0.00000000       0.09090909       0.00000000 </v>
    <v>       0.18181818       0.00000000       0.00000000 </v>
    <v>       0.00000000       0.18181818       0.00000000 </v>
    <v>       0.27272727      -0.00000000       0.00000000 </v>
    <v>       0.00000000       0.27272727       0.00000000 </v>
    <v>       0.36363636       0.00000000       0.00000000 </v>
    <v>       0.00000000       0.36363636       0.00000000 </v>
    <v>       0.45454545       0.00000000       0.00000000 </v>
    <v>       0.00000000       0.45454545       0.00000000 </v>
    <v>       0.09090909       0.09090909       0.00000000 </v>
    <v>      -0.18181818       0.09090909       0.00000000 </v>
    <v>       0.18181818       0.09090909       0.00000000 </v>
    <v>      -0.09090909       0.27272727       0.00000000 </v>
    <v>      -0.27272727       0.18181818       0.00000000 </v>
    <v>       0.27272727       0.09090909       0.00000000 </v>
    <v>      -0.09090909       0.36363636       0.00000000 </v>
    <v>      -0.36363636       0.27272727       0.00000000 </v>
    <v>       0.36363636       0.09090909       0.00000000 </v>
    <v>      -0.09090909       0.45454545       0.00000000 </v>
    <v>      -0.45454545       0.36363636       0.00000000 </v>
    <v>       0.45454545       0.09090909       0.00000000 </v>
    <v>      -0.09090909      -0.45454545       0.00000000 </v>
    <v>       0.18181818       0.18181818       0.00000000 </v>
    <v>      -0.36363636       0.18181818       0.00000000 </v>
    <v>       0.27272727       0.18181818       0.00000000 </v>
    <v>      -0.18181818       0.45454545       0.00000000 </v>
    <v>      -0.45454545       0.27272727       0.00000000 </v>
    <v>       0.36363636       0.18181818       0.00000000 </v>
    <v>      -0.18181818      -0.45454545       0.00000000 </v>
    <v>       0.45454545       0.36363636       0.00000000 </v>
    <v>       0.27272727       0.27272727       0.00000000 </v>
    <v>       0.45454545       0.27272727       0.00000000 </v>
    <v>       0.36363636       0.27272727       0.00000000 </v>
    <v>      -0.27272727      -0.36363636       0.00000000 </v>
   </varray>
   <varray name="weights" >
    <v>       0.00826446 </v>
    <v>       0.03305785 </v>
    <v>       0.01652893 </v>
    <v>       0.03305785 </v>
    <v>       0.01652893 </v>
    <v>       0.03305785 </v>
    <v>       0.01652893 </v>
    <v>       0.03305785 </v>
    <v>       0.01652893 </v>
    <v>       0.03305785 </v>
    <v>       0.01652893 </v>
    <v>       0.03305785 </v>
    <v>       0.01652893 </v>
    <v>       0.03305785 </v>
    <v>       0.03305785 </v>
    <v>       0.03305785 </v>
    <v>       0.03305785 </v>
    <v>       0.03305785 </v>
    <v>       0.03305785 </v>
    <v>       0.03305785 </v>
    <v>       0.03305785 </v>
    <v>       0.03305785 </v>
    <v>       0.03305785 </v>
    <v>       0.01652893 </v>
    <v>       0.03305785 </v>
    <v>       0.01652893 </v>
    <v>       0.03305785 </v>
    <v>       0.03305785 </v>
    <v>       0.03305785 </v>
    <v>       0.03305785 </v>
    <v>       0.03305785 </v>
    <v>       0.03305785 </v>
    <v>       0.03305785 </v>
    <v>       0.01652893 </v>
    <v>       0.03305785 </v>
    <v>       0.01652893 </v>
   </varray>
  </kpoints>
  <scstep>
   <time name="total">    1.22    1.22</time>
   <energy>
    <i name="e_fr_energy">     -2.95846742 </i>
    <i name="e_wo_entrp">     -2.95846742 </i>
    <i name="e_0_energy">     -2.95846742 </i>
   </energy>
  </scstep>
  <scstep>
   <time name="total">    1.27    1.27</time>
   <energy>
    <i name="e_fr_energy">     -3.27195917 </i>
    <i name="e_wo_entrp">     -3.27195917 </i>
    <i name="e_0_energy">     -3.27195917 </i>
   </energy>
  </scstep>
  <scstep>
   <time name="total">    1.24    1.24</time>
   <energy>
    <i name="e_fr_energy">     -3.21113217 </i>
    <i name="e_wo_entrp">     -3.21113217 </i>
    <i name="e_0_energy">     -3.21113217 </i>
   </energy>
  </scstep>
  <scstep>
   <time name="total">    1.26    1.34</time>
   <energy>
    <i name="e_fr_energy">     -3.16111008 </i>
    <i name="e_wo_entrp">     -3.16111008 </i>
    <i name="e_0_energy">     -3.16111008 </i>
   </energy>
  </scstep>
  <scstep>
   <time name="total">    1.25    1.25</time>
   <energy>
    <i name="e_fr_energy">     -3.17578170 </i>
    <i name="e_wo_entrp">     -3.17578170 </i>
    <i name="e_0_energy">     -3.17578170 </i>
   </energy>
  </scstep>
  <scstep>
   <time name="total">    1.25    1.25</time>
   <energy>
    <i name="e_fr_energy">     -3.18860748 </i>
    <i name="e_wo_entrp">     -3.18860748 </i>
    <i name="e_0_energy">     -3.18860748 </i>
   </energy>
  </scstep>
  <scstep>
   <time name="total">    1.27    1.27</time>
   <energy>
    <i name="e_fr_energy">     -3.18971668 </i>
    <i name="e_wo_entrp">     -3.18971668 </i>
    <i name="e_0_energy">     -3.18971668 </i>
   </energy>
  </scstep>
  <scstep>
   <time name="total">    1.26    1.33</time>
   <energy>
    <i name="e_fr_energy">     -3.19261100 </i>
    <i name="e_wo_entrp">     -3.19261100 </i>
    <i name="e_0_energy">     -3.19261100 </i>
   </energy>
  </scstep>
  <scstep>
   <time name="total">    1.26    1.26</time>
   <energy>
    <i name="e_fr_energy">     -3.19365811 </i>
    <i name="e_wo_entrp">     -3.19365811 </i>
    <i name="e_0_energy">     -3.19365811 </i>
   </energy>
  </scstep>
  <scstep>
   <time name="total">    1.26    1.26</time>
   <energy>
    <i name="e_fr_energy">     -3.19368079 </i>
    <i name="e_wo_entrp">     -3.19368079 </i>
    <i name="e_0_energy">     -3.19368079 </i>
   </energy>
  </scstep>
  <scstep>
   <time name="total">    1.25    1.25</time>
   <energy>
    <i name="e_fr_energy">     -3.19374922 </i>
    <i name="e_wo_entrp">     -3.19374922 </i>
    <i name="e_0_energy">     -3.19374922 </i>
   </energy>
  </scstep>
  <scstep>
   <time name="total">    1.24    1.29</time>
   <energy>
    <i name="e_fr_energy">     -3.19377683 </i>
    <i name="e_wo_entrp">     -3.19377683 </i>
    <i name="e_0_energy">     -3.19377683 </i>
   </energy>
  </scstep>
  <scstep>
   <time name="total">    1.25    1.25</time>
   <energy>
    <i name="e_fr_energy">     -3.19378027 </i>
    <i name="e_wo_entrp">     -3.19378027 </i>
    <i name="e_0_energy">     -3.19378027 </i>
   </energy>
  </scstep>
  <scstep>
   <time name="total">    1.25    1.25</time>
   <energy>
    <i name="e_fr_energy">     -3.19378221 </i>
    <i name="e_wo_entrp">     -3.19378221 </i>
    <i name="e_0_energy">     -3.19378221 </i>
   </energy>
  </scstep>
  <scstep>
   <time name="total">    1.26    1.26</time>
   <energy>
    <i name="e_fr_energy">     -3.19378249 </i>
    <i name="e_wo_entrp">     -3.19378249 </i>
    <i name="e_0_energy">     -3.19378249 </i>
   </energy>
  </scstep>
  <kpoints>
   <generation param="Gamma">
    <v type="int" name="divisions">      11       11        1 </v>
    <v name="usershift">      0.00000000       0.00000000       0.00000000 </v>
    <v name="genvec1">      0.09090909       0.00000000       0.00000000 </v>
    <v name="genvec2">      0.00000000       0.09090909       0.00000000 </v>
    <v name="genvec3">      0.00000000       0.00000000       1.00000000 </v>
    <v name="shift">      0.00000000       0.00000000       0.00000000 </v>
   </generation>
   <varray name="kpointlist" >
    <v>       0.00000000       0.00000000       0.00000000 </v>
    <v>       0.09090909       0.00000000       0.00000000 </v>
    <v>       0.00000000       0.09090909       0.00000000 </v>
    <v>       0.18181818       0.00000000       0.00000000 </v>
    <v>       0.00000000       0.18181818       0.00000000 </v>
    <v>       0.27272727      -0.00000000       0.00000000 </v>
    <v>       0.00000000       0.27272727       0.00000000 </v>
    <v>       0.36363636       0.00000000       0.00000000 </v>
    <v>       0.00000000       0.36363636       0.00000000 </v>
    <v>       0.45454545       0.00000000       0.00000000 </v>
    <v>       0.00000000       0.45454545       0.00000000 </v>
    <v>       0.09090909       0.09090909       0.00000000 </v>
    <v>      -0.18181818       0.09090909       0.00000000 </v>
    <v>       0.18181818       0.09090909       0.00000000 </v>
    <v>      -0.09090909       0.27272727       0.00000000 </v>
    <v>      -0.27272727       0.18181818       0.00000000 </v>
    <v>       0.27272727       0.09090909       0.00000000 </v>
    <v>      -0.09090909       0.36363636       0.00000000 </v>
    <v>      -0.36363636       0.27272727       0.00000000 </v>
    <v>       0.36363636       0.09090909       0.00000000 </v>
    <v>      -0.09090909       0.45454545       0.00000000 </v>
    <v>      -0.45454545       0.36363636       0.00000000 </v>
    <v>       0.45454545       0.09090909       0.00000000 </v>
    <v>      -0.09090909      -0.45454545       0.00000000 </v>
    <v>       0.18181818       0.18181818       0.00000000 </v>
    <v>      -0.36363636       0.18181818       0.00000000 </v>
    <v>       0.27272727       0.18181818       0.00000000 </v>
    <v>      -0.18181818       0.45454545       0.00000000 </v>
    <v>      -0.45454545       0.27272727       0.00000000 </v>
    <v>       0.36363636       0.18181818       0.00000000 </v>
    <v>      -0.18181818      -0.45454545       0.00000000 </v>
    <v>       0.45454545       0.36363636       0.00000000 </v>
    <v>       0.27272727       0.27272727       0.00000000 </v>
    <v>       0.45454545       0.27272727       0.00000000 </v>
    <v>       0.36363636       0.27272727       0.00000000 </v>
    <v>      -0.27272727      -0.36363636       0.00000000 </v>
   </varray>
   <varray name="weights" >
    <v>       0.00826446 </v>
    <v>       0.03305785 </v>
    <v>       0.01652893 </v>
    <v>       0.03305785 </v>
    <v>       0.01652893 </v>
    <v>       0.03305785 </v>
    <v>       0.01652893 </v>
    <v>       0.03305785 </v>
    <v>       0.01652893 </v>
    <v>       0.03305785 </v>
    <v>       0.01652893 </v>
    <v>       0.03305785 </v>
    <v>       0.01652893 </v>
    <v>       0.03305785 </v>
    <v>       0.03305785 </v>
    <v>       0.03305785 </v>
    <v>       0.03305785 </v>
    <v>       0.03305785 </v>
    <v>       0.03305785 </v>
    <v>       0.03305785 </v>
    <v>       0.03305785 </v>
    <v>       0.03305785 </v>
    <v>       0.03305785 </v>
    <v>       0.01652893 </v>
    <v>       0.03305785 </v>
    <v>       0.01652893 </v>
    <v>       0.03305785 </v>
    <v>       0.03305785 </v>
    <v>       0.03305785 </v>
    <v>       0.03305785 </v>
    <v>       0.03305785 </v>
    <v>       0.03305785 </v>
    <v>       0.03305785 </v>
    <v>       0.01652893 </v>
    <v>       0.03305785 </v>
    <v>       0.01652893 </v>
   </varray>
  </kpoints>
  <scstep>
   <time name="total">    1.21    1.21</time>
   <energy>
    <i name="e_fr_energy">     -2.96216013 </i>
    <i name="e_wo_entrp">     -2.96216013 </i>
    <i name="e_0_energy">     -2.96216013 </i>
   </energy>
  </scstep>
  <scstep>
   <time name="total">    1.26    1.26</time>
   <energy>
    <i name="e_fr_energy">     -3.27222593 </i>
    <i name="e_wo_entrp">     -3.27222593 </i>
    <i name="e_0_energy">     -3.27222593 </i>
   </energy>
  </scstep>
  <scstep>
   <time name="total">    1.26    1.26</time>
   <energy>
    <i name="e_fr_energy">     -3.21104206 </i>
    <i name="e_wo_entrp">     -3.21104206 </i>
    <i name="e_0_energy">     -3.21104206 </i>
   </energy>
  </scstep>
  <scstep>
   <time name="total">    1.24    1.24</time>
   <energy>
    <i name="e_fr_energy">     -3.16104799 </i>
    <i name="e_wo_entrp">     -3.16104799 </i>
    <i name="e_0_energy">     -3.16104799 </i>
   </energy>
  </scstep>
  <scstep>
   <time name="total">    1.20    1.20</time>
   <energy>
    <i name="e_fr_energy">     -3.17614499 </i>
    <i name="e_wo_entrp">     -3.17614499 </i>
    <i name="e_0_energy">     -3.17614499 </i>
   </energy>
  </scstep>
  <scstep>
   <time name="total">    1.20    1.20</time>
   <energy>
    <i name="e_fr_energy">     -3.18836626 </i>
    <i name="e_wo_entrp">     -3.18836626 </i>
    <i name="e_0_energy">     -3.18836626 </i>
   </energy>
  </scstep>
  <scstep>
   <time name="total">    1.20    1.20</time>
   <energy>
    <i name="e_fr_energy">     -3.18951191 </i>
    <i name="e_wo_entrp">     -3.18951191 </i>
    <i name="e_0_energy">     -3.18951191 </i>
   </energy>
  </scstep>
  <scstep>
   <time name="total">    1.20    1.21</time>
   <energy>
    <i name="e_fr_energy">     -3.19180337 </i>
    <i name="e_wo_entrp">     -3.19180337 </i>
    <i name="e_0_energy">     -3.19180337 </i>
   </energy>
  </scstep>
  <scstep>
   <time name="total">    1.20    1.20</time>
   <energy>
    <i name="e_fr_energy">     -3.19350249 </i>
    <i name="e_wo_entrp">     -3.19350249 </i>
    <i name="e_0_energy">     -3.19350249 </i>
   </energy>
  </scstep>
  <scstep>
   <time name="total">    1.21    1.21</time>
   <energy>
    <i name="e_fr_energy">     -3.19347831 </i>
    <i name="e_wo_entrp">     -3.19347831 </i>
    <i name="e_0_energy">     -3.19347831 </i>
   </energy>
  </scstep>
  <scstep>
   <time name="total">    1.20    1.21</time>
   <energy>
    <i name="e_fr_energy">     -3.19320947 </i>
    <i name="e_wo_entrp">     -3.19320947 </i>
    <i name="e_0_energy">     -3.19320947 </i>
   </energy>
  </scstep>
  <scstep>
   <time name="total">    1.21    1.21</time>
   <energy>
    <i name="e_fr_energy">     -3.19370702 </i>
    <i name="e_wo_entrp">     -3.19370702 </i>
    <i name="e_0_energy">     -3.19370702 </i>
   </energy>
  </scstep>
  <scstep>
   <time name="total">    1.21    1.21</time>
   <energy>
    <i name="e_fr_energy">     -3.19373791 </i>
    <i name="e_wo_entrp">     -3.19373791 </i>
    <i name="e_0_energy">     -3.19373791 </i>
   </energy>
  </scstep>
  <scstep>
   <time name="total">    1.20    1.21</time>
   <energy>
    <i name="e_fr_energy">     -3.19375980 </i>
    <i name="e_wo_entrp">     -3.19375980 </i>
    <i name="e_0_energy">     -3.19375980 </i>
   </energy>
  </scstep>
  <scstep>
   <time name="total">    1.20    1.20</time>
   <energy>
    <i name="e_fr_energy">     -3.19376889 </i>
    <i name="e_wo_entrp">     -3.19376889 </i>
    <i name="e_0_energy">     -3.19376889 </i>
   </energy>
  </scstep>
  <scstep>
   <time name="total">    1.20    1.21</time>
   <energy>
    <i name="e_fr_energy">     -3.19377590 </i>
    <i name="e_wo_entrp">     -3.19377590 </i>
    <i name="e_0_energy">     -3.19377590 </i>
   </energy>
  </scstep>
  <scstep>
   <time name="total">    1.21    1.21</time>
   <energy>
    <i name="e_fr_energy">     -3.19377381 </i>
    <i name="e_wo_entrp">     -3.19377381 </i>
    <i name="e_0_energy">     -3.19377381 </i>
   </energy>
  </scstep>
  <scstep>
   <time name="total">    1.20    1.20</time>
   <energy>
    <i name="e_fr_energy">     -3.19377601 </i>
    <i name="e_wo_entrp">     -3.19377601 </i>
    <i name="e_0_energy">     -3.19377601 </i>
   </energy>
  </scstep>
  <scstep>
   <time name="total">    1.21    1.21</time>
   <energy>
    <i name="e_fr_energy">     -3.19377604 </i>
    <i name="e_wo_entrp">     -3.19377604 </i>
    <i name="e_0_energy">     -3.19377604 </i>
   </energy>
  </scstep>
  <kpoints>
   <generation param="Gamma">
    <v type="int" name="divisions">      11       11        1 </v>
    <v name="usershift">      0.00000000       0.00000000       0.00000000 </v>
    <v name="genvec1">      0.09090909       0.00000000       0.00000000 </v>
    <v name="genvec2">      0.00000000       0.09090909       0.00000000 </v>
    <v name="genvec3">      0.00000000       0.00000000       1.00000000 </v>
    <v name="shift">      0.00000000       0.00000000       0.00000000 </v>
   </generation>
   <varray name="kpointlist" >
    <v>       0.00000000       0.00000000       0.00000000 </v>
    <v>       0.09090909       0.00000000       0.00000000 </v>
    <v>       0.18181818       0.00000000       0.00000000 </v>
    <v>       0.27272727      -0.00000000       0.00000000 </v>
    <v>       0.36363636       0.00000000       0.00000000 </v>
    <v>       0.45454545       0.00000000       0.00000000 </v>
    <v>       0.09090909       0.09090909       0.00000000 </v>
    <v>       0.18181818       0.09090909       0.00000000 </v>
    <v>       0.27272727       0.09090909       0.00000000 </v>
    <v>       0.36363636       0.09090909       0.00000000 </v>
    <v>       0.45454545       0.09090909       0.00000000 </v>
    <v>       0.18181818       0.18181818       0.00000000 </v>
    <v>       0.27272727       0.18181818       0.00000000 </v>
    <v>       0.36363636       0.18181818       0.00000000 </v>
    <v>       0.27272727       0.27272727       0.00000000 </v>
    <v>       0.36363636       0.27272727       0.00000000 </v>
   </varray>
   <varray name="weights" >
    <v>       0.00826446 </v>
    <v>       0.04958678 </v>
    <v>       0.04958678 </v>
    <v>       0.04958678 </v>
    <v>       0.04958678 </v>
    <v>       0.04958678 </v>
    <v>       0.04958678 </v>
    <v>       0.09917355 </v>
    <v>       0.09917355 </v>
    <v>       0.09917355 </v>
    <v>       0.04958678 </v>
    <v>       0.04958678 </v>
    <v>       0.09917355 </v>
    <v>       0.09917355 </v>
    <v>       0.04958678 </v>
    <v>       0.04958678 </v>
   </varray>
  </kpoints>
  <scstep>
   <time name="total">    0.92    0.92</time>
   <energy>
    <i name="e_fr_energy">     -1.02265677 </i>
    <i name="e_wo_entrp">     -1.02265677 </i>
    <i name="e_0_energy">     -1.02265677 </i>
   </energy>
  </scstep>
  <scstep>
   <time name="total">    0.94    0.94</time>
   <energy>
    <i name="e_fr_energy">     -1.31300413 </i>
    <i name="e_wo_entrp">     -1.31300413 </i>
    <i name="e_0_energy">     -1.31300413 </i>
   </energy>
  </scstep>
  <scstep>
   <time name="total">    0.94    0.94</time>
   <energy>
    <i name="e_fr_energy">     -0.30966993 </i>
    <i name="e_wo_entrp">     -0.30966993 </i>
    <i name="e_0_energy">     -0.30966993 </i>
   </energy>
  </scstep>
  <scstep>
   <time name="total">    0.94    0.94</time>
   <energy>
    <i name="e_fr_energy">     -0.24196625 </i>
    <i name="e_wo_entrp">     -0.24196625 </i>
    <i name="e_0_energy">     -0.24196625 </i>
   </energy>
  </scstep>
  <scstep>
   <time name="total">    0.94    0.94</time>
   <energy>
    <i name="e_fr_energy">     -0.23327874 </i>
    <i name="e_wo_entrp">     -0.23327874 </i>
    <i name="e_0_energy">     -0.23327874 </i>
   </energy>
  </scstep>
  <scstep>
   <time name="total">    0.94    0.94</time>
   <energy>
    <i name="e_fr_energy">     -0.23331671 </i>
    <i name="e_wo_entrp">     -0.23331671 </i>
    <i name="e_0_energy">     -0.23331671 </i>
   </energy>
  </scstep>
  <scstep>
   <time name="total">    0.94    0.94</time>
   <energy>
    <i name="e_fr_energy">     -0.23361504 </i>
    <i name="e_wo_entrp">     -0.23361504 </i>
    <i name="e_0_energy">     -0.23361504 </i>
   </energy>
  </scstep>
  <scstep>
   <time name="total">    0.94    0.95</time>
   <energy>
    <i name="e_fr_energy">     -0.23370904 </i>
    <i name="e_wo_entrp">     -0.23370904 </i>
    <i name="e_0_energy">     -0.23370904 </i>
   </energy>
  </scstep>
  <scstep>
   <time name="total">    0.94    0.94</time>
   <energy>
    <i name="e_fr_energy">     -0.23372793 </i>
    <i name="e_wo_entrp">     -0.23372793 </i>
    <i name="e_0_energy">     -0.23372793 </i>
   </energy>
  </scstep>
  <scstep>
   <time name="total">    0.94    0.94</time>
   <energy>
    <i name="e_fr_energy">     -0.23374168 </i>
    <i name="e_wo_entrp">     -0.23374168 </i>
    <i name="e_0_energy">     -0.23374168 </i>
   </energy>
  </scstep>
  <scstep>
   <time name="total">    0.94    0.94</time>
   <energy>
    <i name="e_fr_energy">     -0.23373849 </i>
    <i name="e_wo_entrp">     -0.23373849 </i>
    <i name="e_0_energy">     -0.23373849 </i>
   </energy>
  </scstep>
  <scstep>
   <time name="total">    0.95    0.95</time>
   <energy>
    <i name="e_fr_energy">     -0.23373941 </i>
    <i name="e_wo_entrp">     -0.23373941 </i>
    <i name="e_0_energy">     -0.23373941 </i>
   </energy>
  </scstep>
  <kpoints>
   <generation param="Gamma">
    <v type="int" name="divisions">      11       11        1 </v>
    <v name="usershift">      0.00000000       0.00000000       0.00000000 </v>
    <v name="genvec1">      0.09090909       0.00000000       0.00000000 </v>
    <v name="genvec2">      0.00000000       0.09090909       0.00000000 </v>
    <v name="genvec3">      0.00000000       0.00000000       1.00000000 </v>
    <v name="shift">      0.00000000       0.00000000       0.00000000 </v>
   </generation>
   <varray name="kpointlist" >
    <v>       0.00000000       0.00000000       0.00000000 </v>
    <v>       0.09090909       0.00000000       0.00000000 </v>
    <v>       0.18181818       0.00000000       0.00000000 </v>
    <v>       0.27272727      -0.00000000       0.00000000 </v>
    <v>       0.36363636       0.00000000       0.00000000 </v>
    <v>       0.45454545       0.00000000       0.00000000 </v>
    <v>       0.09090909       0.09090909       0.00000000 </v>
    <v>       0.18181818       0.09090909       0.00000000 </v>
    <v>       0.27272727       0.09090909       0.00000000 </v>
    <v>       0.36363636       0.09090909       0.00000000 </v>
    <v>       0.45454545       0.09090909       0.00000000 </v>
    <v>       0.18181818       0.18181818       0.00000000 </v>
    <v>       0.27272727       0.18181818       0.00000000 </v>
    <v>       0.36363636       0.18181818       0.00000000 </v>
    <v>       0.27272727       0.27272727       0.00000000 </v>
    <v>       0.36363636       0.27272727       0.00000000 </v>
   </varray>
   <varray name="weights" >
    <v>       0.00826446 </v>
    <v>       0.04958678 </v>
    <v>       0.04958678 </v>
    <v>       0.04958678 </v>
    <v>       0.04958678 </v>
    <v>       0.04958678 </v>
    <v>       0.04958678 </v>
    <v>       0.09917355 </v>
    <v>       0.09917355 </v>
    <v>       0.09917355 </v>
    <v>       0.04958678 </v>
    <v>       0.04958678 </v>
    <v>       0.09917355 </v>
    <v>       0.09917355 </v>
    <v>       0.04958678 </v>
    <v>       0.04958678 </v>
   </varray>
  </kpoints>
  <varray name="dielectric_dft" >
   <v>       4.12754229       0.00000000       0.00000000 </v>
   <v>       0.00000000       4.12754229       0.00000000 </v>
   <v>       0.00000000      -0.00000000       1.23319561 </v>
  </varray>
  <varray name="epsilon" >
   <v>       4.12754229       0.00000000       0.00000000 </v>
   <v>       0.00000000       4.12754229       0.00000000 </v>
   <v>       0.00000000      -0.00000000       1.23319561 </v>
  </varray>
  <kpoints>
   <generation param="Gamma">
    <v type="int" name="divisions">      11       11        1 </v>
    <v name="usershift">      0.00000000       0.00000000       0.00000000 </v>
    <v name="genvec1">      0.09090909       0.00000000       0.00000000 </v>
    <v name="genvec2">      0.00000000       0.09090909       0.00000000 </v>
    <v name="genvec3">      0.00000000       0.00000000       1.00000000 </v>
    <v name="shift">      0.00000000       0.00000000       0.00000000 </v>
   </generation>
   <varray name="kpointlist" >
    <v>       0.00000000       0.00000000       0.00000000 </v>
    <v>       0.09090909       0.00000000       0.00000000 </v>
    <v>       0.18181818       0.00000000       0.00000000 </v>
    <v>       0.27272727      -0.00000000       0.00000000 </v>
    <v>       0.36363636       0.00000000       0.00000000 </v>
    <v>       0.45454545       0.00000000       0.00000000 </v>
    <v>       0.09090909       0.09090909       0.00000000 </v>
    <v>       0.18181818       0.09090909       0.00000000 </v>
    <v>       0.27272727       0.09090909       0.00000000 </v>
    <v>       0.36363636       0.09090909       0.00000000 </v>
    <v>       0.45454545       0.09090909       0.00000000 </v>
    <v>       0.18181818       0.18181818       0.00000000 </v>
    <v>       0.27272727       0.18181818       0.00000000 </v>
    <v>       0.36363636       0.18181818       0.00000000 </v>
    <v>       0.27272727       0.27272727       0.00000000 </v>
    <v>       0.36363636       0.27272727       0.00000000 </v>
   </varray>
   <varray name="weights" >
    <v>       0.00826446 </v>
    <v>       0.04958678 </v>
    <v>       0.04958678 </v>
    <v>       0.04958678 </v>
    <v>       0.04958678 </v>
    <v>       0.04958678 </v>
    <v>       0.04958678 </v>
    <v>       0.09917355 </v>
    <v>       0.09917355 </v>
    <v>       0.09917355 </v>
    <v>       0.04958678 </v>
    <v>       0.04958678 </v>
    <v>       0.09917355 </v>
    <v>       0.09917355 </v>
    <v>       0.04958678 </v>
    <v>       0.04958678 </v>
   </varray>
  </kpoints>
  <array name="born_charges" >
   <dimension dim="1">ion</dimension>
   <set>
    <v>       0.00000000       0.00000000       0.00000000 </v>
    <v>      -0.00000000       0.00000000       0.00000000 </v>
    <v>       0.00000000       0.00000000       0.00000000 </v>
   </set>
   <set>
    <v>       0.00000000       0.00000000       0.00000000 </v>
    <v>       0.00000000       0.00000000       0.00000000 </v>
    <v>       0.00000000       0.00000000      -0.00000000 </v>
   </set>
  </array>
  <time name="totalsc">   85.98   89.39</time>
  <eigenvalues>
   <array>
    <dimension dim="1">band</dimension>
    <dimension dim="2">kpoint</dimension>
    <dimension dim="3">spin</dimension>
    <field>eigene</field>
    <field>occ</field>
    <set>
     <set comment="spin 1">
      <set comment="kpoint 1">
       <r>  -14.4123    1.0000 </r>
       <r>   -9.4392    1.0000 </r>
       <r>   -3.7381    1.0000 </r>
       <r>   -3.1314    1.0000 </r>
       <r>   -3.1314    1.0000 </r>
       <r>   -1.5650    0.0000 </r>
       <r>   -0.3411    0.0000 </r>
       <r>   -0.3411    0.0000 </r>
       <r>    1.1603    0.0000 </r>
       <r>    1.4004    0.0000 </r>
       <r>    1.9446    0.0000 </r>
       <r>    2.3402    0.0000 </r>
       <r>    3.2160    0.0000 </r>
       <r>    3.7971    0.0000 </r>
       <r>    3.9970    0.0000 </r>
       <r>    5.0374    0.0000 </r>
      </set>
      <set comment="kpoint 2">
       <r>  -14.3245    1.0000 </r>
       <r>   -9.4365    1.0000 </r>
       <r>   -3.9569    1.0000 </r>
       <r>   -3.7001    1.0000 </r>
       <r>   -3.3304    1.0000 </r>
       <r>   -1.0441    0.0000 </r>
       <r>   -0.4128    0.0000 </r>
       <r>   -0.1501    0.0000 </r>
       <r>    1.2788    0.0000 </r>
       <r>    1.5003    0.0000 </r>
       <r>    2.0409    0.0000 </r>
       <r>    2.4407    0.0000 </r>
       <r>    3.2984    0.0000 </r>
       <r>    3.8928    0.0000 </r>
       <r>    4.0263    0.0000 </r>
       <r>    4.6223    0.0000 </r>
      </set>
      <set comment="kpoint 3">
       <r>  -14.0646    1.0000 </r>
       <r>   -9.4772    1.0000 </r>
       <r>   -5.1024    1.0000 </r>
       <r>   -3.7538    1.0000 </r>
       <r>   -3.6346    1.0000 </r>
       <r>   -1.4519    0.0000 </r>
       <r>    0.1930    0.0000 </r>
       <r>    0.2367    0.0000 </r>
       <r>    1.5438    0.0000 </r>
       <r>    1.7956    0.0000 </r>
       <r>    2.3114    0.0000 </r>
       <r>    2.7130    0.0000 </r>
       <r>    3.2338    0.0000 </r>
       <r>    3.8456    0.0000 </r>
       <r>    4.2019    0.0000 </r>
       <r>    4.5875    0.0000 </r>
      </set>
      <set comment="kpoint 4">
       <r>  -13.6460    1.0000 </r>
       <r>   -9.7071    1.0000 </r>
       <r>   -5.9040    1.0000 </r>
       <r>   -4.1780    1.0000 </r>
       <r>   -3.7235    1.0000 </r>
       <r>   -1.8452    0.0000 </r>
       <r>    0.2404    0.0000 </r>
       <r>    0.3974    0.0000 </r>
       <r>    1.8687    0.0000 </r>
       <r>    2.2074    0.0000 </r>
       <r>    2.7276    0.0000 </r>
       <r>    3.1297    0.0000 </r>
       <r>    3.3860    0.0000 </r>
       <r>    4.2856    0.0000 </r>
       <r>    4.5421    0.0000 </r>
       <r>    4.7711    0.0000 </r>
      </set>
      <set comment="kpoint 5">
       <r>  -13.1072    1.0000 </r>
       <r>  -10.2267    1.0000 </r>
       <r>   -6.1749    1.0000 </r>
       <r>   -4.4958    1.0000 </r>
       <r>   -4.1128    1.0000 </r>
       <r>   -1.8070    0.0000 </r>
       <r>   -0.2340    0.0000 </r>
       <r>    0.4371    0.0000 </r>
       <r>    2.2602    0.0000 </r>
       <r>    2.5049    0.0000 </r>
       <r>    3.1867    0.0000 </r>
       <r>    3.6375    0.0000 </r>
       <r>    3.8445    0.0000 </r>
       <r>    4.5906    0.0000 </r>
       <r>    5.1611    0.0000 </r>
       <r>    5.2434    0.0000 </r>
      </set>
      <set comment="kpoint 6">
       <r>  -12.5937    1.0000 </r>
       <r>  -10.8018    1.0000 </r>
       <r>   -6.1034    1.0000 </r>
       <r>   -4.6632    1.0000 </r>
       <r>   -4.5244    1.0000 </r>
       <r>   -1.5645    0.0000 </r>
       <r>   -0.6284    0.0000 </r>
       <r>    0.4208    0.0000 </r>
       <r>    2.0003    0.0000 </r>
       <r>    3.3239    0.0000 </r>
       <r>    3.8072    0.0000 </r>
       <r>    4.1917    0.0000 </r>
       <r>    4.4431    0.0000 </r>
       <r>    4.6983    0.0000 </r>
       <r>    4.7382    0.0000 </r>
       <r>    5.1546    0.0000 </r>
      </set>
      <set comment="kpoint 7">
       <r>  -14.1506    1.0000 </r>
       <r>   -9.4545    1.0000 </r>
       <r>   -4.7585    1.0000 </r>
       <r>   -3.7931    1.0000 </r>
       <r>   -3.6311    1.0000 </r>
       <r>   -0.8045    0.0000 </r>
       <r>   -0.5964    0.0000 </r>
       <r>    0.3677    0.0000 </r>
       <r>    1.4996    0.0000 </r>
       <r>    1.6757    0.0000 </r>
       <r>    2.2152    0.0000 </r>
       <r>    2.6351    0.0000 </r>
       <r>    3.1972    0.0000 </r>
       <r>    3.8488    0.0000 </r>
       <r>    4.0794    0.0000 </r>
       <r>    4.6565    0.0000 </r>
      </set>
      <set comment="kpoint 8">
       <r>  -13.8103    1.0000 </r>
       <r>   -9.5867    1.0000 </r>
       <r>   -5.5767    1.0000 </r>
       <r>   -4.3873    1.0000 </r>
       <r>   -3.6132    1.0000 </r>
       <r>   -1.2607    0.0000 </r>
       <r>   -0.1235    0.0000 </r>
       <r>    0.5565    0.0000 </r>
       <r>    1.7738    0.0000 </r>
       <r>    2.0295    0.0000 </r>
       <r>    2.5397    0.0000 </r>
       <r>    2.9718    0.0000 </r>
       <r>    3.1462    0.0000 </r>
       <r>    4.1067    0.0000 </r>
       <r>    4.4140    0.0000 </r>
       <r>    4.5621    0.0000 </r>
      </set>
      <set comment="kpoint 9">
       <r>  -13.3253    1.0000 </r>
       <r>   -9.9737    1.0000 </r>
       <r>   -6.0455    1.0000 </r>
       <r>   -4.8268    1.0000 </r>
       <r>   -3.8178    1.0000 </r>
       <r>   -1.4766    0.0000 </r>
       <r>    0.0654    0.0000 </r>
       <r>    0.2052    0.0000 </r>
       <r>    2.2227    0.0000 </r>
       <r>    2.4320    0.0000 </r>
       <r>    2.9895    0.0000 </r>
       <r>    3.4264    0.0000 </r>
       <r>    3.5892    0.0000 </r>
       <r>    4.4536    0.0000 </r>
       <r>    4.6293    0.0000 </r>
       <r>    5.0236    0.0000 </r>
      </set>
      <set comment="kpoint 10">
       <r>  -12.7647    1.0000 </r>
       <r>  -10.5708    1.0000 </r>
       <r>   -6.1297    1.0000 </r>
       <r>   -5.0133    1.0000 </r>
       <r>   -4.2668    1.0000 </r>
       <r>   -1.3054    0.0000 </r>
       <r>   -0.4010    0.0000 </r>
       <r>    0.2090    0.0000 </r>
       <r>    2.2528    0.0000 </r>
       <r>    2.9871    0.0000 </r>
       <r>    3.5829    0.0000 </r>
       <r>    4.0371    0.0000 </r>
       <r>    4.3243    0.0000 </r>
       <r>    4.6791    0.0000 </r>
       <r>    5.0969    0.0000 </r>
       <r>    5.2048    0.0000 </r>
      </set>
      <set comment="kpoint 11">
       <r>  -12.4267    1.0000 </r>
       <r>  -10.9449    1.0000 </r>
       <r>   -6.1014    1.0000 </r>
       <r>   -4.9681    1.0000 </r>
       <r>   -4.5882    1.0000 </r>
       <r>   -1.0040    0.0000 </r>
       <r>   -0.7960    0.0000 </r>
       <r>    0.2373    0.0000 </r>
       <r>    2.0641    0.0000 </r>
       <r>    3.8854    0.0000 </r>
       <r>    3.8902    0.0000 </r>
       <r>    4.2396    0.0000 </r>
       <r>    4.5307    0.0000 </r>
       <r>    4.8142    0.0000 </r>
       <r>    4.9545    0.0000 </r>
       <r>    5.2881    0.0000 </r>
      </set>
      <set comment="kpoint 12">
       <r>  -13.3999    1.0000 </r>
       <r>   -9.8796    1.0000 </r>
       <r>   -5.8300    1.0000 </r>
       <r>   -5.2216    1.0000 </r>
       <r>   -3.7092    1.0000 </r>
       <r>   -0.9088    0.0000 </r>
       <r>   -0.4734    0.0000 </r>
       <r>    0.6197    0.0000 </r>
       <r>    2.2437    0.0000 </r>
       <r>    2.2847    0.0000 </r>
       <r>    2.8613    0.0000 </r>
       <r>    3.2999    0.0000 </r>
       <r>    3.4803    0.0000 </r>
       <r>    4.1211    0.0000 </r>
       <r>    4.5145    0.0000 </r>
       <r>    4.9443    0.0000 </r>
      </set>
      <set comment="kpoint 13">
       <r>  -12.8672    1.0000 </r>
       <r>  -10.3919    1.0000 </r>
       <r>   -5.9992    1.0000 </r>
       <r>   -5.5896    1.0000 </r>
       <r>   -4.0351    1.0000 </r>
       <r>   -0.9785    0.0000 </r>
       <r>   -0.4973    0.0000 </r>
       <r>    0.5407    0.0000 </r>
       <r>    2.6460    0.0000 </r>
       <r>    2.8551    0.0000 </r>
       <r>    3.4218    0.0000 </r>
       <r>    3.8567    0.0000 </r>
       <r>    3.9803    0.0000 </r>
       <r>    4.1653    0.0000 </r>
       <r>    4.7647    0.0000 </r>
       <r>    5.4977    0.0000 </r>
      </set>
      <set comment="kpoint 14">
       <r>  -12.3359    1.0000 </r>
       <r>  -10.9506    1.0000 </r>
       <r>   -6.2601    1.0000 </r>
       <r>   -5.3301    1.0000 </r>
       <r>   -4.4912    1.0000 </r>
       <r>   -1.1472    0.0000 </r>
       <r>   -0.1859    0.0000 </r>
       <r>    0.2518    0.0000 </r>
       <r>    2.5256    0.0000 </r>
       <r>    3.6571    0.0000 </r>
       <r>    4.0422    0.0000 </r>
       <r>    4.3639    0.0000 </r>
       <r>    4.6289    0.0000 </r>
       <r>    4.7286    0.0000 </r>
       <r>    5.0175    0.0000 </r>
       <r>    5.2655    0.0000 </r>
      </set>
      <set comment="kpoint 15">
       <r>  -12.3149    1.0000 </r>
       <r>  -10.9221    1.0000 </r>
       <r>   -6.3816    1.0000 </r>
       <r>   -5.4503    1.0000 </r>
       <r>   -4.3992    1.0000 </r>
       <r>   -1.3485    0.0000 </r>
       <r>   -0.1397    0.0000 </r>
       <r>    0.7072    0.0000 </r>
       <r>    3.3635    0.0000 </r>
       <r>    3.4995    0.0000 </r>
       <r>    3.7233    0.0000 </r>
       <r>    3.8527    0.0000 </r>
       <r>    4.3456    0.0000 </r>
       <r>    4.8480    0.0000 </r>
       <r>    4.9297    0.0000 </r>
       <r>    5.5702    0.0000 </r>
      </set>
      <set comment="kpoint 16">
       <r>  -11.8942    1.0000 </r>
       <r>  -11.3364    1.0000 </r>
       <r>   -6.5825    1.0000 </r>
       <r>   -5.1225    1.0000 </r>
       <r>   -4.7326    1.0000 </r>
       <r>   -1.5529    0.0000 </r>
       <r>    0.2827    0.0000 </r>
       <r>    0.4782    0.0000 </r>
       <r>    3.4335    0.0000 </r>
       <r>    3.6136    0.0000 </r>
       <r>    4.4316    0.0000 </r>
       <r>    4.4967    0.0000 </r>
       <r>    4.6667    0.0000 </r>
       <r>    5.2548    0.0000 </r>
       <r>    5.2608    0.0000 </r>
       <r>    5.3203    0.0000 </r>
      </set>
     </set>
    </set>
   </array>
  </eigenvalues>
  <separator name="orbital magnetization" >
   <v name="MAGDIPOLOUT">      0.00000000      0.00000000      0.00000000</v>
  </separator>
  <dos>
   <i name="efermi">     -3.08754804 </i>
   <total>
    <array>
     <dimension dim="1">gridpoints</dimension>
     <dimension dim="2">spin</dimension>
     <field>energy</field>
     <field>total</field>
     <field>integrated</field>
     <set>
      <set comment="spin 1">
       <r>   -15.4114     0.0000     0.0000 </r>
       <r>   -15.4078     0.0000     0.0000 </r>
       <r>   -15.4041     0.0000     0.0000 </r>
       <r>   -15.4005     0.0000     0.0000 </r>
       <r>   -15.3968     0.0000     0.0000 </r>
       <r>   -15.3931     0.0000     0.0000 </r>
       <r>   -15.3895     0.0000     0.0000 </r>
       <r>   -15.3858     0.0000     0.0000 </r>
       <r>   -15.3821     0.0000     0.0000 </r>
       <r>   -15.3785     0.0000     0.0000 </r>
       <r>   -15.3748     0.0000     0.0000 </r>
       <r>   -15.3711     0.0000     0.0000 </r>
       <r>   -15.3675     0.0000     0.0000 </r>
       <r>   -15.3638     0.0000     0.0000 </r>
       <r>   -15.3602     0.0000     0.0000 </r>
       <r>   -15.3565     0.0000     0.0000 </r>
       <r>   -15.3528     0.0000     0.0000 </r>
       <r>   -15.3492     0.0000     0.0000 </r>
       <r>   -15.3455     0.0000     0.0000 </r>
       <r>   -15.3418     0.0000     0.0000 </r>
       <r>   -15.3382     0.0000     0.0000 </r>
       <r>   -15.3345     0.0000     0.0000 </r>
       <r>   -15.3308     0.0000     0.0000 </r>
       <r>   -15.3272     0.0000     0.0000 </r>
       <r>   -15.3235     0.0000     0.0000 </r>
       <r>   -15.3199     0.0000     0.0000 </r>
       <r>   -15.3162     0.0000     0.0000 </r>
       <r>   -15.3125     0.0000     0.0000 </r>
       <r>   -15.3089     0.0000     0.0000 </r>
       <r>   -15.3052     0.0000     0.0000 </r>
       <r>   -15.3015     0.0000     0.0000 </r>
       <r>   -15.2979     0.0000     0.0000 </r>
       <r>   -15.2942     0.0000     0.0000 </r>
       <r>   -15.2905     0.0000     0.0000 </r>
       <r>   -15.2869     0.0000     0.0000 </r>
       <r>   -15.2832     0.0000     0.0000 </r>
       <r>   -15.2796     0.0000     0.0000 </r>
       <r>   -15.2759     0.0000     0.0000 </r>
       <r>   -15.2722     0.0000     0.0000 </r>
       <r>   -15.2686     0.0000     0.0000 </r>
       <r>   -15.2649     0.0000     0.0000 </r>
       <r>   -15.2612     0.0000     0.0000 </r>
       <r>   -15.2576     0.0000     0.0000 </r>
       <r>   -15.2539     0.0000     0.0000 </r>
       <r>   -15.2502     0.0000     0.0000 </r>
       <r>   -15.2466     0.0000     0.0000 </r>
       <r>   -15.2429     0.0000     0.0000 </r>
       <r>   -15.2393     0.0000     0.0000 </r>
       <r>   -15.2356     0.0000     0.0000 </r>
       <r>   -15.2319     0.0000     0.0000 </r>
       <r>   -15.2283     0.0000     0.0000 </r>
       <r>   -15.2246     0.0000     0.0000 </r>
       <r>   -15.2209     0.0000     0.0000 </r>
       <r>   -15.2173     0.0000     0.0000 </r>
       <r>   -15.2136     0.0000     0.0000 </r>
       <r>   -15.2100     0.0000     0.0000 </r>
       <r>   -15.2063     0.0000     0.0000 </r>
       <r>   -15.2026     0.0000     0.0000 </r>
       <r>   -15.1990     0.0000     0.0000 </r>
       <r>   -15.1953     0.0000     0.0000 </r>
       <r>   -15.1916     0.0000     0.0000 </r>
       <r>   -15.1880     0.0000     0.0000 </r>
       <r>   -15.1843     0.0000     0.0000 </r>
       <r>   -15.1806     0.0000     0.0000 </r>
       <r>   -15.1770     0.0000     0.0000 </r>
       <r>   -15.1733     0.0000     0.0000 </r>
       <r>   -15.1697     0.0000     0.0000 </r>
       <r>   -15.1660     0.0000     0.0000 </r>
       <r>   -15.1623     0.0000     0.0000 </r>
       <r>   -15.1587     0.0000     0.0000 </r>
       <r>   -15.1550     0.0000     0.0000 </r>
       <r>   -15.1513     0.0000     0.0000 </r>
       <r>   -15.1477     0.0000     0.0000 </r>
       <r>   -15.1440     0.0000     0.0000 </r>
       <r>   -15.1403     0.0000     0.0000 </r>
       <r>   -15.1367     0.0000     0.0000 </r>
       <r>   -15.1330     0.0000     0.0000 </r>
       <r>   -15.1294     0.0000     0.0000 </r>
       <r>   -15.1257     0.0000     0.0000 </r>
       <r>   -15.1220     0.0000     0.0000 </r>
       <r>   -15.1184     0.0000     0.0000 </r>
       <r>   -15.1147     0.0000     0.0000 </r>
       <r>   -15.1110     0.0000     0.0000 </r>
       <r>   -15.1074     0.0000     0.0000 </r>
       <r>   -15.1037     0.0000     0.0000 </r>
       <r>   -15.1000     0.0000     0.0000 </r>
       <r>   -15.0964     0.0000     0.0000 </r>
       <r>   -15.0927     0.0000     0.0000 </r>
       <r>   -15.0891     0.0000     0.0000 </r>
       <r>   -15.0854     0.0000     0.0000 </r>
       <r>   -15.0817     0.0000     0.0000 </r>
       <r>   -15.0781     0.0000     0.0000 </r>
       <r>   -15.0744     0.0000     0.0000 </r>
       <r>   -15.0707     0.0000     0.0000 </r>
       <r>   -15.0671     0.0000     0.0000 </r>
       <r>   -15.0634     0.0000     0.0000 </r>
       <r>   -15.0597     0.0000     0.0000 </r>
       <r>   -15.0561     0.0000     0.0000 </r>
       <r>   -15.0524     0.0000     0.0000 </r>
       <r>   -15.0488     0.0000     0.0000 </r>
       <r>   -15.0451     0.0000     0.0000 </r>
       <r>   -15.0414     0.0000     0.0000 </r>
       <r>   -15.0378     0.0000     0.0000 </r>
       <r>   -15.0341     0.0000     0.0000 </r>
       <r>   -15.0304     0.0000     0.0000 </r>
       <r>   -15.0268     0.0000     0.0000 </r>
       <r>   -15.0231     0.0000     0.0000 </r>
       <r>   -15.0195     0.0000     0.0000 </r>
       <r>   -15.0158     0.0000     0.0000 </r>
       <r>   -15.0121     0.0000     0.0000 </r>
       <r>   -15.0085     0.0000     0.0000 </r>
       <r>   -15.0048     0.0000     0.0000 </r>
       <r>   -15.0011     0.0000     0.0000 </r>
       <r>   -14.9975     0.0000     0.0000 </r>
       <r>   -14.9938     0.0000     0.0000 </r>
       <r>   -14.9901     0.0000     0.0000 </r>
       <r>   -14.9865     0.0000     0.0000 </r>
       <r>   -14.9828     0.0000     0.0000 </r>
       <r>   -14.9792     0.0000     0.0000 </r>
[...]
       <set comment="band 13">
        <r>  0.0004  0.0289  0.0558  0.0071 </r>
        <r>  0.0004  0.0289  0.0558  0.0071 </r>
       </set>
       <set comment="band 14">
        <r>  0.0076  0.0355  0.0235  0.0024 </r>
        <r>  0.0076  0.0355  0.0235  0.0024 </r>
       </set>
       <set comment="band 15">
        <r>  0.0003  0.0108  0.0673  0.0033 </r>
        <r>  0.0003  0.0108  0.0673  0.0033 </r>
       </set>
       <set comment="band 16">
        <r>  0.0137  0.0580  0.0707  0.0019 </r>
        <r>  0.0137  0.0580  0.0707  0.0019 </r>
       </set>
      </set>
      <set comment="kpoint 9">
       <set comment="band 1">
        <r>  0.3414  0.0256  0.0030  0.0007 </r>
        <r>  0.3414  0.0256  0.0030  0.0007 </r>
       </set>
       <set comment="band 2">
        <r>  0.3982  0.0248  0.0069  0.0009 </r>
        <r>  0.3982  0.0248  0.0069  0.0009 </r>
       </set>
       <set comment="band 3">
        <r>  0.0104  0.2638  0.0092  0.0006 </r>
        <r>  0.0104  0.2638  0.0092  0.0006 </r>
       </set>
       <set comment="band 4">
        <r>  0.0091  0.3090  0.0171  0.0023 </r>
        <r>  0.0091  0.3090  0.0171  0.0023 </r>
       </set>
       <set comment="band 5">
        <r>  0.0326  0.3033  0.0025  0.0016 </r>
        <r>  0.0326  0.3033  0.0025  0.0016 </r>
       </set>
       <set comment="band 6">
        <r>  0.0311  0.2165  0.0267  0.0040 </r>
        <r>  0.0311  0.2165  0.0267  0.0040 </r>
       </set>
       <set comment="band 7">
        <r>  0.0028  0.3125  0.0255  0.0034 </r>
        <r>  0.0028  0.3125  0.0255  0.0034 </r>
       </set>
       <set comment="band 8">
        <r>  0.0317  0.2199  0.0382  0.0051 </r>
        <r>  0.0317  0.2199  0.0382  0.0051 </r>
       </set>
       <set comment="band 9">
        <r>  0.0062  0.0161  0.0312  0.0016 </r>
        <r>  0.0062  0.0161  0.0312  0.0016 </r>
       </set>
       <set comment="band 10">
        <r>  0.0015  0.0780  0.0248  0.0022 </r>
        <r>  0.0015  0.0780  0.0247  0.0022 </r>
       </set>
       <set comment="band 11">
        <r>  0.0002  0.0210  0.0221  0.0014 </r>
        <r>  0.0002  0.0210  0.0221  0.0014 </r>
       </set>
       <set comment="band 12">
        <r>  0.0018  0.0234  0.0260  0.0016 </r>
        <r>  0.0018  0.0234  0.0260  0.0016 </r>
       </set>
       <set comment="band 13">
        <r>  0.0023  0.0113  0.0083  0.0008 </r>
        <r>  0.0023  0.0113  0.0083  0.0008 </r>
       </set>
       <set comment="band 14">
        <r>  0.0058  0.0550  0.1102  0.0141 </r>
        <r>  0.0058  0.0550  0.1102  0.0141 </r>
       </set>
       <set comment="band 15">
        <r>  0.0080  0.0396  0.0149  0.0015 </r>
        <r>  0.0080  0.0396  0.0149  0.0015 </r>
       </set>
       <set comment="band 16">
        <r>  0.0063  0.0086  0.0155  0.0022 </r>
        <r>  0.0063  0.0086  0.0155  0.0022 </r>
       </set>
      </set>
      <set comment="kpoint 10">
       <set comment="band 1">
        <r>  0.3504  0.0279  0.0047  0.0007 </r>
        <r>  0.3504  0.0279  0.0047  0.0007 </r>
       </set>
       <set comment="band 2">
        <r>  0.3723  0.0369  0.0074  0.0007 </r>
        <r>  0.3723  0.0369  0.0074  0.0007 </r>
       </set>
       <set comment="band 3">
        <r>  0.0426  0.2448  0.0047  0.0005 </r>
        <r>  0.0426  0.2448  0.0047  0.0005 </r>
       </set>
       <set comment="band 4">
        <r>  0.0057  0.3071  0.0150  0.0021 </r>
        <r>  0.0057  0.3071  0.0150  0.0021 </r>
       </set>
       <set comment="band 5">
        <r>  0.0372  0.2882  0.0032  0.0016 </r>
        <r>  0.0372  0.2882  0.0032  0.0016 </r>
       </set>
       <set comment="band 6">
        <r>  0.0247  0.2177  0.0332  0.0035 </r>
        <r>  0.0247  0.2177  0.0332  0.0035 </r>
       </set>
       <set comment="band 7">
        <r>  0.0121  0.2305  0.0417  0.0031 </r>
        <r>  0.0121  0.2305  0.0417  0.0031 </r>
       </set>
       <set comment="band 8">
        <r>  0.0109  0.2829  0.0277  0.0031 </r>
        <r>  0.0109  0.2829  0.0277  0.0031 </r>
       </set>
       <set comment="band 9">
        <r>  0.0002  0.0518  0.0824  0.0020 </r>
        <r>  0.0002  0.0518  0.0824  0.0020 </r>
       </set>
       <set comment="band 10">
        <r>  0.0085  0.0128  0.0147  0.0014 </r>
        <r>  0.0085  0.0128  0.0147  0.0014 </r>
       </set>
       <set comment="band 11">
        <r>  0.0008  0.0205  0.0107  0.0005 </r>
        <r>  0.0008  0.0205  0.0107  0.0005 </r>
       </set>
       <set comment="band 12">
        <r>  0.0023  0.0219  0.0089  0.0007 </r>
        <r>  0.0023  0.0219  0.0089  0.0007 </r>
       </set>
       <set comment="band 13">
        <r>  0.0035  0.0057  0.0057  0.0006 </r>
        <r>  0.0035  0.0057  0.0057  0.0006 </r>
       </set>
       <set comment="band 14">
        <r>  0.0099  0.0540  0.0384  0.0087 </r>
        <r>  0.0099  0.0540  0.0384  0.0087 </r>
       </set>
       <set comment="band 15">
        <r>  0.0016  0.0353  0.0188  0.0048 </r>
        <r>  0.0016  0.0353  0.0188  0.0048 </r>
       </set>
       <set comment="band 16">
        <r>  0.0062  0.0607  0.0251  0.0032 </r>
        <r>  0.0062  0.0607  0.0251  0.0032 </r>
       </set>
      </set>
      <set comment="kpoint 11">
       <set comment="band 1">
        <r>  0.3608  0.0267  0.0060  0.0008 </r>
        <r>  0.3608  0.0267  0.0060  0.0008 </r>
       </set>
       <set comment="band 2">
        <r>  0.3529  0.0440  0.0066  0.0006 </r>
        <r>  0.3529  0.0440  0.0066  0.0006 </r>
       </set>
       <set comment="band 3">
        <r>  0.0601  0.2381  0.0034  0.0005 </r>
        <r>  0.0601  0.2381  0.0034  0.0005 </r>
       </set>
       <set comment="band 4">
        <r>  0.0020  0.3164  0.0148  0.0021 </r>
        <r>  0.0020  0.3164  0.0148  0.0021 </r>
       </set>
       <set comment="band 5">
        <r>  0.0373  0.2698  0.0029  0.0015 </r>
        <r>  0.0373  0.2698  0.0029  0.0015 </r>
       </set>
       <set comment="band 6">
        <r>  0.0349  0.2151  0.0449  0.0047 </r>
        <r>  0.0349  0.2151  0.0449  0.0047 </r>
       </set>
       <set comment="band 7">
        <r>  0.0007  0.2327  0.0326  0.0012 </r>
        <r>  0.0007  0.2327  0.0326  0.0012 </r>
       </set>
       <set comment="band 8">
        <r>  0.0075  0.2924  0.0260  0.0027 </r>
        <r>  0.0075  0.2924  0.0260  0.0027 </r>
       </set>
       <set comment="band 9">
        <r>  0.0001  0.0206  0.0909  0.0018 </r>
        <r>  0.0001  0.0206  0.0909  0.0018 </r>
       </set>
       <set comment="band 10">
        <r>  0.0076  0.0077  0.0247  0.0018 </r>
        <r>  0.0076  0.0077  0.0247  0.0018 </r>
       </set>
       <set comment="band 11">
        <r>  0.0152  0.0262  0.0121  0.0028 </r>
        <r>  0.0151  0.0262  0.0121  0.0028 </r>
       </set>
       <set comment="band 12">
        <r>  0.0010  0.0536  0.0090  0.0024 </r>
        <r>  0.0010  0.0535  0.0091  0.0024 </r>
       </set>
       <set comment="band 13">
        <r>  0.0001  0.0370  0.0126  0.0009 </r>
        <r>  0.0001  0.0370  0.0126  0.0009 </r>
       </set>
       <set comment="band 14">
        <r>  0.0029  0.0114  0.0077  0.0021 </r>
        <r>  0.0029  0.0114  0.0077  0.0021 </r>
       </set>
       <set comment="band 15">
        <r>  0.0005  0.0307  0.0127  0.0013 </r>
        <r>  0.0005  0.0307  0.0127  0.0013 </r>
       </set>
       <set comment="band 16">
        <r>  0.0036  0.0013  0.0071  0.0004 </r>
        <r>  0.0010  0.0039  0.0062  0.0010 </r>
       </set>
      </set>
      <set comment="kpoint 12">
       <set comment="band 1">
        <r>  0.3403  0.0252  0.0027  0.0007 </r>
        <r>  0.3403  0.0252  0.0027  0.0007 </r>
       </set>
       <set comment="band 2">
        <r>  0.4043  0.0216  0.0067  0.0009 </r>
        <r>  0.4043  0.0216  0.0067  0.0009 </r>
       </set>
       <set comment="band 3">
        <r>  0.0019  0.2743  0.0112  0.0008 </r>
        <r>  0.0019  0.2743  0.0112  0.0008 </r>
       </set>
       <set comment="band 4">
        <r>  0.0129  0.2889  0.0172  0.0017 </r>
        <r>  0.0129  0.2889  0.0172  0.0017 </r>
       </set>
       <set comment="band 5">
        <r>  0.0284  0.3065  0.0027  0.0015 </r>
        <r>  0.0284  0.3065  0.0027  0.0015 </r>
       </set>
       <set comment="band 6">
        <r>  0.0271  0.2317  0.0221  0.0037 </r>
        <r>  0.0271  0.2317  0.0221  0.0037 </r>
       </set>
       <set comment="band 7">
        <r>  0.0134  0.2867  0.0236  0.0039 </r>
        <r>  0.0134  0.2867  0.0236  0.0039 </r>
       </set>
       <set comment="band 8">
        <r>  0.0428  0.2807  0.0200  0.0071 </r>
        <r>  0.0428  0.2807  0.0200  0.0071 </r>
       </set>
       <set comment="band 9">
        <r>  0.0014  0.0237  0.0171  0.0019 </r>
        <r>  0.0014  0.0237  0.0171  0.0019 </r>
       </set>
       <set comment="band 10">
        <r>  0.0002  0.0539  0.0588  0.0063 </r>
        <r>  0.0002  0.0539  0.0587  0.0063 </r>
       </set>
       <set comment="band 11">
        <r>  0.0000  0.0092  0.0321  0.0032 </r>
        <r>  0.0000  0.0092  0.0321  0.0032 </r>
       </set>
       <set comment="band 12">
        <r>  0.0006  0.0189  0.0294  0.0030 </r>
        <r>  0.0006  0.0189  0.0294  0.0030 </r>
       </set>
       <set comment="band 13">
        <r>  0.0017  0.0031  0.0093  0.0008 </r>
        <r>  0.0017  0.0031  0.0093  0.0008 </r>
       </set>
       <set comment="band 14">
        <r>  0.0020  0.0479  0.1194  0.0064 </r>
        <r>  0.0020  0.0479  0.1194  0.0064 </r>
       </set>
       <set comment="band 15">
        <r>  0.0024  0.0382  0.0146  0.0015 </r>
        <r>  0.0024  0.0382  0.0146  0.0015 </r>
       </set>
       <set comment="band 16">
        <r>  0.0068  0.0109  0.0119  0.0008 </r>
        <r>  0.0068  0.0109  0.0119  0.0008 </r>
       </set>
      </set>
      <set comment="kpoint 13">
       <set comment="band 1">
        <r>  0.3467  0.0285  0.0042  0.0007 </r>
        <r>  0.3467  0.0285  0.0042  0.0007 </r>
       </set>
       <set comment="band 2">
        <r>  0.3902  0.0294  0.0078  0.0009 </r>
        <r>  0.3902  0.0294  0.0078  0.0009 </r>
       </set>
       <set comment="band 3">
        <r>  0.0215  0.2609  0.0098  0.0007 </r>
        <r>  0.0215  0.2609  0.0098  0.0007 </r>
       </set>
       <set comment="band 4">
        <r>  0.0099  0.2784  0.0123  0.0010 </r>
        <r>  0.0099  0.2784  0.0123  0.0010 </r>
       </set>
       <set comment="band 5">
        <r>  0.0376  0.2995  0.0030  0.0013 </r>
        <r>  0.0376  0.2995  0.0030  0.0013 </r>
       </set>
       <set comment="band 6">
        <r>  0.0100  0.2371  0.0270  0.0028 </r>
        <r>  0.0100  0.2371  0.0270  0.0028 </r>
       </set>
       <set comment="band 7">
        <r>  0.0150  0.2429  0.0264  0.0030 </r>
        <r>  0.0150  0.2429  0.0264  0.0030 </r>
       </set>
       <set comment="band 8">
        <r>  0.0362  0.2770  0.0260  0.0063 </r>
        <r>  0.0362  0.2770  0.0260  0.0063 </r>
       </set>
       <set comment="band 9">
        <r>  0.0005  0.0679  0.0832  0.0070 </r>
        <r>  0.0005  0.0679  0.0832  0.0070 </r>
       </set>
       <set comment="band 10">
        <r>  0.0044  0.0228  0.0105  0.0017 </r>
        <r>  0.0044  0.0229  0.0105  0.0017 </r>
       </set>
       <set comment="band 11">
        <r>  0.0003  0.0188  0.0222  0.0015 </r>
        <r>  0.0003  0.0188  0.0222  0.0015 </r>
       </set>
       <set comment="band 12">
        <r>  0.0003  0.0234  0.0166  0.0012 </r>
        <r>  0.0003  0.0234  0.0166  0.0012 </r>
       </set>
       <set comment="band 13">
        <r>  0.0049  0.0475  0.0992  0.0106 </r>
        <r>  0.0049  0.0475  0.0992  0.0106 </r>
       </set>
       <set comment="band 14">
        <r>  0.0010  0.0064  0.0166  0.0021 </r>
        <r>  0.0010  0.0064  0.0166  0.0021 </r>
       </set>
       <set comment="band 15">
        <r>  0.0000  0.0275  0.0425  0.0041 </r>
        <r>  0.0000  0.0275  0.0425  0.0041 </r>
       </set>
       <set comment="band 16">
        <r>  0.0040  0.0108  0.0259  0.0041 </r>
        <r>  0.0040  0.0108  0.0259  0.0041 </r>
       </set>
      </set>
      <set comment="kpoint 14">
       <set comment="band 1">
        <r>  0.3580  0.0292  0.0059  0.0008 </r>
        <r>  0.3580  0.0292  0.0059  0.0008 </r>
       </set>
       <set comment="band 2">
        <r>  0.3682  0.0371  0.0074  0.0008 </r>
        <r>  0.3682  0.0371  0.0074  0.0008 </r>
       </set>
       <set comment="band 3">
        <r>  0.0283  0.2544  0.0098  0.0006 </r>
        <r>  0.0283  0.2544  0.0098  0.0006 </r>
       </set>
       <set comment="band 4">
        <r>  0.0205  0.2800  0.0090  0.0008 </r>
        <r>  0.0205  0.2800  0.0090  0.0008 </r>
       </set>
       <set comment="band 5">
        <r>  0.0403  0.2805  0.0034  0.0012 </r>
        <r>  0.0403  0.2805  0.0034  0.0012 </r>
       </set>
       <set comment="band 6">
        <r>  0.0011  0.2361  0.0294  0.0022 </r>
        <r>  0.0011  0.2361  0.0294  0.0022 </r>
       </set>
       <set comment="band 7">
        <r>  0.0240  0.2487  0.0288  0.0040 </r>
        <r>  0.0240  0.2487  0.0288  0.0040 </r>
       </set>
       <set comment="band 8">
        <r>  0.0233  0.2568  0.0285  0.0041 </r>
        <r>  0.0233  0.2568  0.0285  0.0041 </r>
       </set>
       <set comment="band 9">
        <r>  0.0013  0.0312  0.0977  0.0057 </r>
        <r>  0.0013  0.0312  0.0977  0.0057 </r>
       </set>
       <set comment="band 10">
        <r>  0.0068  0.0156  0.0186  0.0023 </r>
        <r>  0.0068  0.0156  0.0186  0.0023 </r>
       </set>
       <set comment="band 11">
        <r>  0.0000  0.0497  0.0308  0.0016 </r>
        <r>  0.0000  0.0497  0.0308  0.0016 </r>
       </set>
       <set comment="band 12">
        <r>  0.0016  0.0483  0.0381  0.0025 </r>
        <r>  0.0016  0.0483  0.0381  0.0025 </r>
       </set>
       <set comment="band 13">
        <r>  0.0010  0.0379  0.0124  0.0019 </r>
        <r>  0.0010  0.0379  0.0124  0.0019 </r>
       </set>
       <set comment="band 14">
        <r>  0.0043  0.0347  0.0138  0.0039 </r>
        <r>  0.0043  0.0346  0.0138  0.0039 </r>
       </set>
       <set comment="band 15">
        <r>  0.0027  0.0059  0.0048  0.0010 </r>
        <r>  0.0027  0.0059  0.0048  0.0010 </r>
       </set>
       <set comment="band 16">
        <r>  0.0001  0.0384  0.0397  0.0084 </r>
        <r>  0.0001  0.0384  0.0397  0.0084 </r>
       </set>
      </set>
      <set comment="kpoint 15">
       <set comment="band 1">
        <r>  0.3552  0.0308  0.0057  0.0007 </r>
        <r>  0.3552  0.0308  0.0057  0.0007 </r>
       </set>
       <set comment="band 2">
        <r>  0.3792  0.0324  0.0079  0.0009 </r>
        <r>  0.3792  0.0324  0.0079  0.0009 </r>
       </set>
       <set comment="band 3">
        <r>  0.0068  0.2645  0.0132  0.0005 </r>
        <r>  0.0068  0.2645  0.0132  0.0005 </r>
       </set>
       <set comment="band 4">
        <r>  0.0326  0.2649  0.0056  0.0005 </r>
        <r>  0.0326  0.2649  0.0056  0.0005 </r>
       </set>
       <set comment="band 5">
        <r>  0.0428  0.2883  0.0035  0.0009 </r>
        <r>  0.0428  0.2883  0.0035  0.0009 </r>
       </set>
       <set comment="band 6">
        <r>  0.0013  0.2287  0.0280  0.0027 </r>
        <r>  0.0013  0.2287  0.0280  0.0027 </r>
       </set>
       <set comment="band 7">
        <r>  0.0177  0.2268  0.0271  0.0025 </r>
        <r>  0.0177  0.2268  0.0271  0.0025 </r>
       </set>
       <set comment="band 8">
        <r>  0.0302  0.2969  0.0180  0.0051 </r>
        <r>  0.0302  0.2969  0.0180  0.0051 </r>
       </set>
       <set comment="band 9">
        <r>  0.0017  0.0892  0.0901  0.0120 </r>
        <r>  0.0017  0.0892  0.0902  0.0120 </r>
       </set>
       <set comment="band 10">
        <r>  0.0105  0.0313  0.0246  0.0037 </r>
        <r>  0.0105  0.0312  0.0245  0.0037 </r>
       </set>
       <set comment="band 11">
        <r>  0.0001  0.0347  0.0634  0.0016 </r>
        <r>  0.0001  0.0347  0.0634  0.0016 </r>
       </set>
       <set comment="band 12">
        <r>  0.0011  0.0378  0.0916  0.0108 </r>
        <r>  0.0011  0.0378  0.0916  0.0108 </r>
       </set>
       <set comment="band 13">
        <r>  0.0002  0.0011  0.0116  0.0014 </r>
        <r>  0.0002  0.0011  0.0116  0.0014 </r>
       </set>
       <set comment="band 14">
        <r>  0.0011  0.0069  0.0182  0.0027 </r>
        <r>  0.0011  0.0068  0.0182  0.0027 </r>
       </set>
       <set comment="band 15">
        <r>  0.0017  0.0042  0.0074  0.0013 </r>
        <r>  0.0017  0.0042  0.0074  0.0013 </r>
       </set>
       <set comment="band 16">
        <r>  0.0061  0.0214  0.0193  0.0051 </r>
        <r>  0.0061  0.0214  0.0192  0.0051 </r>
       </set>
      </set>
      <set comment="kpoint 16">
       <set comment="band 1">
        <r>  0.3643  0.0310  0.0068  0.0008 </r>
        <r>  0.3643  0.0310  0.0068  0.0008 </r>
       </set>
       <set comment="band 2">
        <r>  0.3690  0.0341  0.0074  0.0008 </r>
        <r>  0.3690  0.0341  0.0074  0.0008 </r>
       </set>
       <set comment="band 3">
        <r>  0.0038  0.2619  0.0125  0.0003 </r>
        <r>  0.0038  0.2619  0.0125  0.0003 </r>
       </set>
       <set comment="band 4">
        <r>  0.0398  0.2717  0.0050  0.0005 </r>
        <r>  0.0398  0.2717  0.0050  0.0005 </r>
       </set>
       <set comment="band 5">
        <r>  0.0437  0.2766  0.0038  0.0008 </r>
        <r>  0.0437  0.2766  0.0038  0.0008 </r>
       </set>
       <set comment="band 6">
        <r>  0.0003  0.2200  0.0279  0.0028 </r>
        <r>  0.0003  0.2200  0.0279  0.0028 </r>
       </set>
       <set comment="band 7">
        <r>  0.0174  0.2437  0.0261  0.0028 </r>
        <r>  0.0174  0.2437  0.0261  0.0028 </r>
       </set>
       <set comment="band 8">
        <r>  0.0246  0.2719  0.0222  0.0040 </r>
        <r>  0.0246  0.2719  0.0222  0.0040 </r>
       </set>
       <set comment="band 9">
        <r>  0.0074  0.0616  0.0833  0.0114 </r>
        <r>  0.0074  0.0616  0.0833  0.0114 </r>
       </set>
       <set comment="band 10">
        <r>  0.0001  0.0267  0.0796  0.0010 </r>
        <r>  0.0001  0.0267  0.0796  0.0010 </r>
       </set>
       <set comment="band 11">
        <r>  0.0083  0.0910  0.0244  0.0061 </r>
        <r>  0.0083  0.0911  0.0244  0.0061 </r>
       </set>
       <set comment="band 12">
        <r>  0.0052  0.0124  0.0263  0.0041 </r>
        <r>  0.0053  0.0123  0.0263  0.0041 </r>
       </set>
       <set comment="band 13">
        <r>  0.0002  0.0610  0.0234  0.0051 </r>
        <r>  0.0002  0.0610  0.0233  0.0051 </r>
       </set>
       <set comment="band 14">
        <r>  0.0005  0.0640  0.0681  0.0139 </r>
        <r>  0.0006  0.0637  0.0677  0.0138 </r>
       </set>
       <set comment="band 15">
        <r>  0.0021  0.0185  0.0123  0.0036 </r>
        <r>  0.0019  0.0188  0.0128  0.0036 </r>
       </set>
       <set comment="band 16">
        <r>  0.0007  0.0333  0.0455  0.0070 </r>
        <r>  0.0007  0.0333  0.0454  0.0070 </r>
       </set>
      </set>
     </set>
    </set>
   </array>
  </projected>
 </calculation>
 <structure name="finalpos" >
  <crystal>
   <varray name="basis" >
    <v>       4.11336660       0.00000000       0.00000000 </v>
    <v>      -2.05668330       3.56227997       0.00000000 </v>
    <v>       0.00000000       0.00000000      24.00000000 </v>
   </varray>
   <i name="volume">    351.67112349 </i>
   <varray name="rec_basis" >
    <v>       0.24310987       0.14035955       0.00000000 </v>
    <v>       0.00000000       0.28071909       0.00000000 </v>
    <v>       0.00000000       0.00000000       0.04166667 </v>
   </varray>
  </crystal>
  <varray name="positions" >
   <v>       0.66666669       0.33333334       0.29908359 </v>
   <v>       0.33333334       0.66666669       0.36758308 </v>
  </varray>
 </structure>
</modeling>
