unknown system                          
           1
     4.113367    0.000000    0.000000
    -2.056683    3.562280    0.000000
     0.000000    0.000000   24.000000
   Sb
     2
Direct configuration=     1
   0.66666669  0.33333334  0.29908359
   0.33333334  0.66666669  0.36758308
