   2   2   1   0
  0.5471262E+02  0.2294499E-09  0.2294499E-09  0.2400000E-08  0.5000000E-15
  1.000000000000000E-004
  CAR 
 unknown system                          
     16.43024406    -33.14245005 6001     -5.97654913      1.00000000
    -33.142  0.0000E+00  0.0000E+00
    -33.134  0.0000E+00  0.0000E+00
    -33.126  0.0000E+00  0.0000E+00
    -33.118  0.0000E+00  0.0000E+00
    -33.109  0.0000E+00  0.0000E+00
    -33.101  0.0000E+00  0.0000E+00
    -33.093  0.0000E+00  0.0000E+00
    -33.085  0.0000E+00  0.0000E+00
    -33.076  0.0000E+00  0.0000E+00
    -33.068  0.0000E+00  0.0000E+00
    -33.060  0.0000E+00  0.0000E+00
    -33.052  0.0000E+00  0.0000E+00
    -33.043  0.0000E+00  0.0000E+00
    -33.035  0.0000E+00  0.0000E+00
    -33.027  0.0000E+00  0.0000E+00
    -33.019  0.0000E+00  0.0000E+00
    -33.010  0.0000E+00  0.0000E+00
    -33.002  0.0000E+00  0.0000E+00
    -32.994  0.0000E+00  0.0000E+00
    -32.985  0.0000E+00  0.0000E+00
    -32.977  0.0000E+00  0.0000E+00
    -32.969  0.0000E+00  0.0000E+00
    -32.961  0.0000E+00  0.0000E+00
    -32.952  0.0000E+00  0.0000E+00
    -32.944  0.0000E+00  0.0000E+00
    -32.936  0.0000E+00  0.0000E+00
    -32.928  0.0000E+00  0.0000E+00
    -32.919  0.0000E+00  0.0000E+00
    -32.911  0.0000E+00  0.0000E+00
    -32.903  0.0000E+00  0.0000E+00
    -32.895  0.0000E+00  0.0000E+00
    -32.886  0.0000E+00  0.0000E+00
    -32.878  0.0000E+00  0.0000E+00
    -32.870  0.0000E+00  0.0000E+00
    -32.862  0.0000E+00  0.0000E+00
    -32.853  0.0000E+00  0.0000E+00
    -32.845  0.0000E+00  0.0000E+00
    -32.837  0.0000E+00  0.0000E+00
    -32.828  0.0000E+00  0.0000E+00
    -32.820  0.0000E+00  0.0000E+00
    -32.812  0.0000E+00  0.0000E+00
    -32.804  0.0000E+00  0.0000E+00
    -32.795  0.0000E+00  0.0000E+00
    -32.787  0.0000E+00  0.0000E+00
    -32.779  0.0000E+00  0.0000E+00
    -32.771  0.0000E+00  0.0000E+00
    -32.762  0.0000E+00  0.0000E+00
    -32.754  0.0000E+00  0.0000E+00
    -32.746  0.0000E+00  0.0000E+00
    -32.738  0.0000E+00  0.0000E+00
    -32.729  0.0000E+00  0.0000E+00
    -32.721  0.0000E+00  0.0000E+00
    -32.713  0.0000E+00  0.0000E+00
    -32.705  0.0000E+00  0.0000E+00
    -32.696  0.0000E+00  0.0000E+00
    -32.688  0.0000E+00  0.0000E+00
    -32.680  0.0000E+00  0.0000E+00
    -32.672  0.0000E+00  0.0000E+00
    -32.663  0.0000E+00  0.0000E+00
    -32.655  0.0000E+00  0.0000E+00
    -32.647  0.0000E+00  0.0000E+00
    -32.638  0.0000E+00  0.0000E+00
    -32.630  0.0000E+00  0.0000E+00
    -32.622  0.0000E+00  0.0000E+00
    -32.614  0.0000E+00  0.0000E+00
    -32.605  0.0000E+00  0.0000E+00
    -32.597  0.0000E+00  0.0000E+00
    -32.589  0.0000E+00  0.0000E+00
    -32.581  0.0000E+00  0.0000E+00
    -32.572  0.0000E+00  0.0000E+00
    -32.564  0.0000E+00  0.0000E+00
    -32.556  0.0000E+00  0.0000E+00
    -32.548  0.0000E+00  0.0000E+00
    -32.539  0.0000E+00  0.0000E+00
    -32.531  0.0000E+00  0.0000E+00
    -32.523  0.0000E+00  0.0000E+00
    -32.515  0.0000E+00  0.0000E+00
    -32.506  0.0000E+00  0.0000E+00
    -32.498  0.0000E+00  0.0000E+00
    -32.490  0.0000E+00  0.0000E+00
    -32.481  0.0000E+00  0.0000E+00
    -32.473  0.0000E+00  0.0000E+00
    -32.465  0.0000E+00  0.0000E+00
    -32.457  0.0000E+00  0.0000E+00
    -32.448  0.0000E+00  0.0000E+00
    -32.440  0.0000E+00  0.0000E+00
    -32.432  0.0000E+00  0.0000E+00
    -32.424  0.0000E+00  0.0000E+00
    -32.415  0.0000E+00  0.0000E+00
    -32.407  0.0000E+00  0.0000E+00
    -32.399  0.0000E+00  0.0000E+00
    -32.391  0.0000E+00  0.0000E+00
    -32.382  0.0000E+00  0.0000E+00
    -32.374  0.0000E+00  0.0000E+00
    -32.366  0.0000E+00  0.0000E+00
    -32.358  0.0000E+00  0.0000E+00
    -32.349  0.0000E+00  0.0000E+00
    -32.341  0.0000E+00  0.0000E+00
    -32.333  0.0000E+00  0.0000E+00
    -32.325  0.0000E+00  0.0000E+00
    -32.316  0.0000E+00  0.0000E+00
    -32.308  0.0000E+00  0.0000E+00
    -32.300  0.0000E+00  0.0000E+00
    -32.291  0.0000E+00  0.0000E+00
    -32.283  0.0000E+00  0.0000E+00
    -32.275  0.0000E+00  0.0000E+00
    -32.267  0.0000E+00  0.0000E+00
    -32.258  0.0000E+00  0.0000E+00
    -32.250  0.0000E+00  0.0000E+00
    -32.242  0.0000E+00  0.0000E+00
    -32.234  0.0000E+00  0.0000E+00
    -32.225  0.0000E+00  0.0000E+00
    -32.217  0.0000E+00  0.0000E+00
    -32.209  0.0000E+00  0.0000E+00
    -32.201  0.0000E+00  0.0000E+00
    -32.192  0.0000E+00  0.0000E+00
    -32.184  0.0000E+00  0.0000E+00
    -32.176  0.0000E+00  0.0000E+00
    -32.168  0.0000E+00  0.0000E+00
    -32.159  0.0000E+00  0.0000E+00
    -32.151  0.0000E+00  0.0000E+00
    -32.143  0.0000E+00  0.0000E+00
    -32.134  0.0000E+00  0.0000E+00
    -32.126  0.0000E+00  0.0000E+00
    -32.118  0.0000E+00  0.0000E+00
    -32.110  0.0000E+00  0.0000E+00
    -32.101  0.0000E+00  0.0000E+00
    -32.093  0.0000E+00  0.0000E+00
    -32.085  0.0000E+00  0.0000E+00
    -32.077  0.0000E+00  0.0000E+00
    -32.068  0.0000E+00  0.0000E+00
    -32.060  0.0000E+00  0.0000E+00
    -32.052  0.0000E+00  0.0000E+00
    -32.044  0.0000E+00  0.0000E+00
    -32.035  0.0000E+00  0.0000E+00
    -32.027  0.0000E+00  0.0000E+00
    -32.019  0.0000E+00  0.0000E+00
    -32.011  0.0000E+00  0.0000E+00
    -32.002  0.0000E+00  0.0000E+00
    -31.994  0.0000E+00  0.0000E+00
    -31.986  0.0000E+00  0.0000E+00
    -31.977  0.0000E+00  0.0000E+00
    -31.969  0.0000E+00  0.0000E+00
    -31.961  0.0000E+00  0.0000E+00
    -31.953  0.0000E+00  0.0000E+00
    -31.944  0.0000E+00  0.0000E+00
    -31.936  0.0000E+00  0.0000E+00
    -31.928  0.0000E+00  0.0000E+00
    -31.920  0.0000E+00  0.0000E+00
    -31.911  0.0000E+00  0.0000E+00
    -31.903  0.0000E+00  0.0000E+00
    -31.895  0.0000E+00  0.0000E+00
    -31.887  0.0000E+00  0.0000E+00
    -31.878  0.0000E+00  0.0000E+00
    -31.870  0.0000E+00  0.0000E+00
    -31.862  0.0000E+00  0.0000E+00
    -31.854  0.0000E+00  0.0000E+00
    -31.845  0.0000E+00  0.0000E+00
    -31.837  0.0000E+00  0.0000E+00
    -31.829  0.0000E+00  0.0000E+00
    -31.821  0.0000E+00  0.0000E+00
    -31.812  0.0000E+00  0.0000E+00
    -31.804  0.0000E+00  0.0000E+00
    -31.796  0.0000E+00  0.0000E+00
    -31.787  0.0000E+00  0.0000E+00
    -31.779  0.0000E+00  0.0000E+00
    -31.771  0.0000E+00  0.0000E+00
    -31.763  0.0000E+00  0.0000E+00
    -31.754  0.0000E+00  0.0000E+00
    -31.746  0.0000E+00  0.0000E+00
    -31.738  0.0000E+00  0.0000E+00
    -31.730  0.0000E+00  0.0000E+00
    -31.721  0.0000E+00  0.0000E+00
    -31.713  0.0000E+00  0.0000E+00
    -31.705  0.0000E+00  0.0000E+00
    -31.697  0.0000E+00  0.0000E+00
    -31.688  0.0000E+00  0.0000E+00
    -31.680  0.0000E+00  0.0000E+00
    -31.672  0.0000E+00  0.0000E+00
    -31.664  0.0000E+00  0.0000E+00
    -31.655  0.0000E+00  0.0000E+00
    -31.647  0.0000E+00  0.0000E+00
    -31.639  0.0000E+00  0.0000E+00
    -31.630  0.0000E+00  0.0000E+00
    -31.622  0.0000E+00  0.0000E+00
    -31.614  0.0000E+00  0.0000E+00
    -31.606  0.0000E+00  0.0000E+00
    -31.597  0.0000E+00  0.0000E+00
    -31.589  0.0000E+00  0.0000E+00
    -31.581  0.0000E+00  0.0000E+00
    -31.573  0.0000E+00  0.0000E+00
    -31.564  0.0000E+00  0.0000E+00
    -31.556  0.0000E+00  0.0000E+00
    -31.548  0.0000E+00  0.0000E+00
    -31.540  0.0000E+00  0.0000E+00
    -31.531  0.0000E+00  0.0000E+00
    -31.523  0.0000E+00  0.0000E+00
    -31.515  0.0000E+00  0.0000E+00
    -31.507  0.0000E+00  0.0000E+00
    -31.498  0.0000E+00  0.0000E+00
    -31.490  0.0000E+00  0.0000E+00
    -31.482  0.0000E+00  0.0000E+00
    -31.474  0.0000E+00  0.0000E+00
    -31.465  0.0000E+00  0.0000E+00
    -31.457  0.0000E+00  0.0000E+00
    -31.449  0.0000E+00  0.0000E+00
    -31.440  0.0000E+00  0.0000E+00
    -31.432  0.0000E+00  0.0000E+00
    -31.424  0.0000E+00  0.0000E+00
    -31.416  0.0000E+00  0.0000E+00
    -31.407  0.0000E+00  0.0000E+00
    -31.399  0.0000E+00  0.0000E+00
    -31.391  0.0000E+00  0.0000E+00
    -31.383  0.0000E+00  0.0000E+00
    -31.374  0.0000E+00  0.0000E+00
    -31.366  0.0000E+00  0.0000E+00
    -31.358  0.0000E+00  0.0000E+00
    -31.350  0.0000E+00  0.0000E+00
    -31.341  0.0000E+00  0.0000E+00
    -31.333  0.0000E+00  0.0000E+00
    -31.325  0.0000E+00  0.0000E+00
    -31.317  0.0000E+00  0.0000E+00
    -31.308  0.0000E+00  0.0000E+00
    -31.300  0.0000E+00  0.0000E+00
    -31.292  0.0000E+00  0.0000E+00
    -31.283  0.0000E+00  0.0000E+00
    -31.275  0.0000E+00  0.0000E+00
    -31.267  0.0000E+00  0.0000E+00
    -31.259  0.0000E+00  0.0000E+00
    -31.250  0.0000E+00  0.0000E+00
    -31.242  0.0000E+00  0.0000E+00
    -31.234  0.0000E+00  0.0000E+00
    -31.226  0.0000E+00  0.0000E+00
    -31.217  0.0000E+00  0.0000E+00
    -31.209  0.0000E+00  0.0000E+00
    -31.201  0.0000E+00  0.0000E+00
    -31.193  0.0000E+00  0.0000E+00
    -31.184  0.0000E+00  0.0000E+00
    -31.176  0.0000E+00  0.0000E+00
    -31.168  0.0000E+00  0.0000E+00
    -31.160  0.0000E+00  0.0000E+00
    -31.151  0.0000E+00  0.0000E+00
    -31.143  0.0000E+00  0.0000E+00
    -31.135  0.0000E+00  0.0000E+00
    -31.126  0.0000E+00  0.0000E+00
    -31.118  0.0000E+00  0.0000E+00
    -31.110  0.0000E+00  0.0000E+00
    -31.102  0.0000E+00  0.0000E+00
    -31.093  0.0000E+00  0.0000E+00
    -31.085  0.0000E+00  0.0000E+00
    -31.077  0.0000E+00  0.0000E+00
    -31.069  0.0000E+00  0.0000E+00
    -31.060  0.0000E+00  0.0000E+00
    -31.052  0.0000E+00  0.0000E+00
    -31.044  0.0000E+00  0.0000E+00
    -31.036  0.0000E+00  0.0000E+00
    -31.027  0.0000E+00  0.0000E+00
    -31.019  0.0000E+00  0.0000E+00
    -31.011  0.0000E+00  0.0000E+00
    -31.003  0.0000E+00  0.0000E+00
    -30.994  0.0000E+00  0.0000E+00
    -30.986  0.0000E+00  0.0000E+00
    -30.978  0.0000E+00  0.0000E+00
    -30.970  0.0000E+00  0.0000E+00
    -30.961  0.0000E+00  0.0000E+00
    -30.953  0.0000E+00  0.0000E+00
    -30.945  0.1142E-14  0.9437E-17
    -30.936  0.6661E-11  0.5505E-13
    -30.928  0.1005E-07  0.8306E-10
    -30.920  0.4015E-05  0.3325E-07
    -30.912  0.4315E-03  0.3598E-05
    -30.903  0.1275E-01  0.1089E-03
    -30.895  0.1065E+00  0.9886E-03
    -30.887  0.2586E+00  0.3125E-02
    -30.879  0.1855E+00  0.4658E-02
    -30.870  0.3905E-01  0.4980E-02
    -30.862  0.2356E-02  0.5000E-02
    -30.854  0.3989E-04  0.5000E-02
    -30.846  0.9395E-04  0.5001E-02
    -30.837  0.7154E-02  0.5060E-02
    -30.829  0.1511E+00  0.6308E-02
    -30.821  0.9090E+00  0.1382E-01
    -30.813  0.1600E+01  0.2704E-01
    -30.804  0.8320E+00  0.3391E-01
    -30.796  0.1264E+00  0.3495E-01
    -30.788  0.5458E-02  0.3500E-01
    -30.779  0.6511E-04  0.3500E-01
    -30.771  0.2097E-06  0.3500E-01
    -30.763  0.1794E-09  0.3500E-01
    -30.755  0.4031E-13  0.3500E-01
    -30.746  0.0000E+00  0.3500E-01
    -30.738  0.0000E+00  0.3500E-01
    -30.730  0.1411E-14  0.3500E-01
    -30.722  0.1037E-10  0.3500E-01
    -30.713  0.1954E-07  0.3500E-01
    -30.705  0.9734E-05  0.3500E-01
    -30.697  0.1300E-02  0.3501E-01
    -30.689  0.4755E-01  0.3540E-01
    -30.680  0.4891E+00  0.3944E-01
    -30.672  0.1457E+01  0.5148E-01
    -30.664  0.1280E+01  0.6206E-01
    -30.656  0.3310E+00  0.6479E-01
    -30.647  0.2464E-01  0.6500E-01
    -30.639  0.5130E-03  0.6500E-01
    -30.631  0.5124E-04  0.6500E-01
    -30.623  0.4370E-02  0.6504E-01
    -30.614  0.1090E+00  0.6594E-01
    -30.606  0.7713E+00  0.7231E-01
    -30.598  0.1592E+01  0.8547E-01
    -30.589  0.9714E+00  0.9349E-01
    -30.581  0.1735E+00  0.9493E-01
    -30.573  0.8849E-02  0.9500E-01
    -30.565  0.1251E-03  0.9500E-01
    -30.556  0.4785E-06  0.9500E-01
    -30.548  0.4871E-09  0.9500E-01
    -30.540  0.1306E-12  0.9500E-01
    -30.532  0.0000E+00  0.9500E-01
    -30.523  0.0000E+00  0.9500E-01
    -30.515  0.0000E+00  0.9500E-01
    -30.507  0.0000E+00  0.9500E-01
    -30.499  0.0000E+00  0.9500E-01
    -30.490  0.0000E+00  0.9500E-01
    -30.482  0.0000E+00  0.9500E-01
    -30.474  0.0000E+00  0.9500E-01
    -30.466  0.0000E+00  0.9500E-01
    -30.457  0.0000E+00  0.9500E-01
    -30.449  0.0000E+00  0.9500E-01
    -30.441  0.3225E-13  0.9500E-01
    -30.432  0.1634E-09  0.9500E-01
    -30.424  0.2186E-06  0.9500E-01
    -30.416  0.7752E-04  0.9500E-01
    -30.408  0.7408E-02  0.9506E-01
    -30.399  0.1950E+00  0.9667E-01
    -30.391  0.1456E+01  0.1087E+00
    -30.383  0.3166E+01  0.1349E+00
    -30.375  0.2034E+01  0.1517E+00
    -30.366  0.3831E+00  0.1548E+00
    -30.358  0.2062E-01  0.1550E+00
    -30.350  0.3079E-03  0.1550E+00
    -30.342  0.1246E-05  0.1550E+00
    -30.333  0.1342E-08  0.1550E+00
    -30.325  0.3806E-12  0.1550E+00
    -30.317  0.0000E+00  0.1550E+00
    -30.309  0.0000E+00  0.1550E+00
    -30.300  0.8063E-15  0.1550E+00
    -30.292  0.6853E-11  0.1550E+00
    -30.284  0.1381E-07  0.1550E+00
    -30.275  0.7351E-05  0.1550E+00
    -30.267  0.1049E-02  0.1550E+00
    -30.259  0.4090E-01  0.1553E+00
    -30.251  0.4482E+00  0.1590E+00
    -30.242  0.1420E+01  0.1708E+00
    -30.234  0.1326E+01  0.1817E+00
    -30.226  0.3649E+00  0.1848E+00
    -30.218  0.2894E-01  0.1850E+00
    -30.209  0.6427E-03  0.1850E+00
    -30.201  0.3892E-05  0.1850E+00
    -30.193  0.6304E-08  0.1850E+00
    -30.185  0.2695E-11  0.1850E+00
    -30.176  0.0000E+00  0.1850E+00
    -30.168  0.0000E+00  0.1850E+00
    -30.160  0.0000E+00  0.1850E+00
    -30.152  0.0000E+00  0.1850E+00
    -30.143  0.0000E+00  0.1850E+00
    -30.135  0.0000E+00  0.1850E+00
    -30.127  0.0000E+00  0.1850E+00
    -30.119  0.0000E+00  0.1850E+00
    -30.110  0.0000E+00  0.1850E+00
    -30.102  0.0000E+00  0.1850E+00
    -30.094  0.0000E+00  0.1850E+00
    -30.085  0.1814E-14  0.1850E+00
    -30.077  0.1226E-10  0.1850E+00
    -30.069  0.2247E-07  0.1850E+00
    -30.061  0.1089E-04  0.1850E+00
    -30.052  0.1417E-02  0.1850E+00
    -30.044  0.5048E-01  0.1854E+00
    -30.036  0.5063E+00  0.1896E+00
    -30.028  0.1471E+01  0.2018E+00
    -30.019  0.1261E+01  0.2122E+00
    -30.011  0.3179E+00  0.2148E+00
    -30.003  0.2307E-01  0.2150E+00
    -29.995  0.4683E-03  0.2150E+00
    -29.986  0.1753E-03  0.2150E+00
    -29.978  0.1346E-01  0.2151E+00
    -29.970  0.2903E+00  0.2175E+00
    -29.962  0.1783E+01  0.2322E+00
    -29.953  0.3201E+01  0.2587E+00
    -29.945  0.1699E+01  0.2727E+00
    -29.937  0.2634E+00  0.2749E+00
    -29.928  0.1162E-01  0.2750E+00
    -29.920  0.1416E-03  0.2750E+00
    -29.912  0.4660E-06  0.2750E+00
    -29.904  0.4074E-09  0.2750E+00
    -29.895  0.9353E-13  0.2750E+00
    -29.887  0.0000E+00  0.2750E+00
    -29.879  0.0000E+00  0.2750E+00
    -29.871  0.0000E+00  0.2750E+00
    -29.862  0.0000E+00  0.2750E+00
    -29.854  0.0000E+00  0.2750E+00
    -29.846  0.0000E+00  0.2750E+00
    -29.838  0.0000E+00  0.2750E+00
    -29.829  0.0000E+00  0.2750E+00
    -29.821  0.0000E+00  0.2750E+00
    -29.813  0.0000E+00  0.2750E+00
    -29.805  0.0000E+00  0.2750E+00
    -29.796  0.4854E-12  0.2750E+00
    -29.788  0.1484E-08  0.2750E+00
    -29.780  0.1195E-05  0.2750E+00
    -29.772  0.2567E-03  0.2750E+00
    -29.763  0.1497E-01  0.2751E+00
    -29.755  0.2429E+00  0.2771E+00
    -29.747  0.1130E+01  0.2865E+00
    -29.738  0.1544E+01  0.2992E+00
    -29.730  0.6230E+00  0.3044E+00
    -29.722  0.7306E-01  0.3050E+00
    -29.714  0.2421E-02  0.3050E+00
    -29.705  0.2204E-04  0.3050E+00
    -29.697  0.5397E-07  0.3050E+00
    -29.689  0.3500E-10  0.3050E+00
    -29.681  0.6047E-14  0.3050E+00
    -29.672  0.0000E+00  0.3050E+00
    -29.664  0.0000E+00  0.3050E+00
    -29.656  0.0000E+00  0.3050E+00
    -29.648  0.0000E+00  0.3050E+00
    -29.639  0.0000E+00  0.3050E+00
    -29.631  0.0000E+00  0.3050E+00
    -29.623  0.0000E+00  0.3050E+00
    -29.615  0.0000E+00  0.3050E+00
    -29.606  0.0000E+00  0.3050E+00
    -29.598  0.0000E+00  0.3050E+00
    -29.590  0.1209E-14  0.3050E+00
    -29.581  0.8717E-11  0.3050E+00
    -29.573  0.1889E-07  0.3050E+00
    -29.565  0.1081E-04  0.3050E+00
    -29.557  0.1656E-02  0.3050E+00
    -29.548  0.6926E-01  0.3056E+00
    -29.540  0.8125E+00  0.3123E+00
    -29.532  0.2752E+01  0.3350E+00
    -29.524  0.2748E+01  0.3577E+00
    -29.515  0.8082E+00  0.3644E+00
    -29.507  0.6864E-01  0.3650E+00
    -29.499  0.1635E-02  0.3650E+00
    -29.491  0.1063E-04  0.3650E+00
    -29.482  0.1851E-07  0.3650E+00
    -29.474  0.8509E-11  0.3650E+00
    -29.466  0.1613E-14  0.3650E+00
    -29.458  0.0000E+00  0.3650E+00
    -29.449  0.8063E-15  0.3650E+00
    -29.441  0.6030E-11  0.3650E+00
    -29.433  0.1386E-07  0.3650E+00
    -29.424  0.8405E-05  0.3650E+00
    -29.416  0.1364E-02  0.3650E+00
    -29.408  0.6037E-01  0.3655E+00
    -29.400  0.7486E+00  0.3717E+00
    -29.391  0.2677E+01  0.3938E+00
    -29.383  0.2819E+01  0.4171E+00
    -29.375  0.8753E+00  0.4243E+00
    -29.367  0.7857E-01  0.4250E+00
    -29.358  0.1980E-02  0.4250E+00
    -29.350  0.1364E-04  0.4250E+00
    -29.342  0.2517E-07  0.4250E+00
    -29.334  0.1227E-10  0.4250E+00
    -29.325  0.1613E-14  0.4250E+00
    -29.317  0.0000E+00  0.4250E+00
    -29.309  0.0000E+00  0.4250E+00
    -29.301  0.0000E+00  0.4250E+00
    -29.292  0.0000E+00  0.4250E+00
    -29.284  0.0000E+00  0.4250E+00
    -29.276  0.0000E+00  0.4250E+00
    -29.268  0.0000E+00  0.4250E+00
    -29.259  0.0000E+00  0.4250E+00
    -29.251  0.0000E+00  0.4250E+00
    -29.243  0.0000E+00  0.4250E+00
    -29.234  0.0000E+00  0.4250E+00
    -29.226  0.0000E+00  0.4250E+00
    -29.218  0.0000E+00  0.4250E+00
    -29.210  0.0000E+00  0.4250E+00
    -29.201  0.0000E+00  0.4250E+00
    -29.193  0.0000E+00  0.4250E+00
    -29.185  0.0000E+00  0.4250E+00
    -29.177  0.0000E+00  0.4250E+00
    -29.168  0.4031E-15  0.4250E+00
    -29.160  0.3340E-11  0.4250E+00
    -29.152  0.7550E-08  0.4250E+00
    -29.144  0.4507E-05  0.4250E+00
    -29.135  0.7197E-03  0.4250E+00
    -29.127  0.3136E-01  0.4253E+00
    -29.119  0.3830E+00  0.4284E+00
    -29.111  0.1349E+01  0.4396E+00
    -29.102  0.1400E+01  0.4511E+00
    -29.094  0.4282E+00  0.4547E+00
    -29.086  0.3785E-01  0.4550E+00
    -29.077  0.9391E-03  0.4550E+00
    -29.069  0.6367E-05  0.4550E+00
    -29.061  0.1156E-07  0.4550E+00
    -29.053  0.5546E-11  0.4550E+00
    -29.044  0.8063E-15  0.4550E+00
    -29.036  0.0000E+00  0.4550E+00
    -29.028  0.2016E-15  0.4550E+00
    -29.020  0.1876E-11  0.4550E+00
    -29.011  0.4646E-08  0.4550E+00
    -29.003  0.3037E-05  0.4550E+00
    -28.995  0.5304E-03  0.4550E+00
    -28.987  0.2524E-01  0.4552E+00
    -28.978  0.3359E+00  0.4580E+00
    -28.970  0.1287E+01  0.4686E+00
    -28.962  0.1452E+01  0.4806E+00
    -28.954  0.4829E+00  0.4846E+00
    -28.945  0.4651E-01  0.4850E+00
    -28.937  0.1260E-02  0.4850E+00
    -28.929  0.1553E-03  0.4850E+00
    -28.921  0.1188E-01  0.4851E+00
    -28.912  0.2674E+00  0.4873E+00
    -28.904  0.1712E+01  0.5015E+00
    -28.896  0.3202E+01  0.5279E+00
    -28.887  0.1770E+01  0.5425E+00
    -28.879  0.2860E+00  0.5449E+00
    -28.871  0.1316E-01  0.5450E+00
    -28.863  0.1676E-03  0.5450E+00
    -28.854  0.5763E-06  0.5450E+00
    -28.846  0.5268E-09  0.5450E+00
    -28.838  0.1266E-12  0.5450E+00
    -28.830  0.0000E+00  0.5450E+00
    -28.821  0.0000E+00  0.5450E+00
    -28.813  0.0000E+00  0.5450E+00
    -28.805  0.0000E+00  0.5450E+00
    -28.797  0.0000E+00  0.5450E+00
    -28.788  0.0000E+00  0.5450E+00
    -28.780  0.0000E+00  0.5450E+00
    -28.772  0.0000E+00  0.5450E+00
    -28.764  0.0000E+00  0.5450E+00
    -28.755  0.0000E+00  0.5450E+00
    -28.747  0.2056E-13  0.5450E+00
    -28.739  0.1115E-09  0.5450E+00
    -28.730  0.1590E-06  0.5450E+00
    -28.722  0.6012E-04  0.5450E+00
    -28.714  0.6119E-02  0.5451E+00
    -28.706  0.1714E+00  0.5465E+00
    -28.697  0.1359E+01  0.5577E+00
    -28.689  0.3136E+01  0.5836E+00
    -28.681  0.2138E+01  0.6013E+00
    -28.673  0.4274E+00  0.6048E+00
    -28.664  0.2446E-01  0.6050E+00
    -28.656  0.3890E-03  0.6050E+00
    -28.648  0.1678E-05  0.6050E+00
    -28.640  0.1927E-08  0.6050E+00
    -28.631  0.5829E-12  0.6050E+00
    -28.623  0.0000E+00  0.6050E+00
    -28.615  0.0000E+00  0.6050E+00
    -28.607  0.0000E+00  0.6050E+00
    -28.598  0.0000E+00  0.6050E+00
    -28.590  0.0000E+00  0.6050E+00
    -28.582  0.0000E+00  0.6050E+00
    -28.574  0.0000E+00  0.6050E+00
    -28.565  0.0000E+00  0.6050E+00
    -28.557  0.0000E+00  0.6050E+00
    -28.549  0.0000E+00  0.6050E+00
    -28.540  0.0000E+00  0.6050E+00
    -28.532  0.0000E+00  0.6050E+00
    -28.524  0.0000E+00  0.6050E+00
    -28.516  0.0000E+00  0.6050E+00
    -28.507  0.0000E+00  0.6050E+00
    -28.499  0.0000E+00  0.6050E+00
    -28.491  0.0000E+00  0.6050E+00
    -28.483  0.0000E+00  0.6050E+00
    -28.474  0.0000E+00  0.6050E+00
    -28.466  0.0000E+00  0.6050E+00
    -28.458  0.0000E+00  0.6050E+00
    -28.450  0.0000E+00  0.6050E+00
    -28.441  0.0000E+00  0.6050E+00
    -28.433  0.0000E+00  0.6050E+00
    -28.425  0.0000E+00  0.6050E+00
    -28.417  0.0000E+00  0.6050E+00
    -28.408  0.0000E+00  0.6050E+00
    -28.400  0.1389E-12  0.6050E+00
    -28.392  0.5139E-09  0.6050E+00
    -28.383  0.5001E-06  0.6050E+00
    -28.375  0.1295E-03  0.6050E+00
    -28.367  0.9078E-02  0.6051E+00
    -28.359  0.1765E+00  0.6065E+00
    -28.350  0.9791E+00  0.6146E+00
    -28.342  0.1591E+01  0.6278E+00
    -28.334  0.7640E+00  0.6341E+00
    -28.326  0.1070E+00  0.6350E+00
    -28.317  0.4252E-02  0.6350E+00
    -28.309  0.5128E-04  0.6350E+00
    -28.301  0.8679E-03  0.6350E+00
    -28.293  0.4372E-01  0.6354E+00
    -28.284  0.6152E+00  0.6405E+00
    -28.276  0.2489E+01  0.6610E+00
    -28.268  0.2963E+01  0.6855E+00
    -28.260  0.1041E+01  0.6941E+00
    -28.251  0.1060E+00  0.6950E+00
    -28.243  0.3038E-02  0.6950E+00
    -28.235  0.2386E-04  0.6950E+00
    -28.226  0.5030E-07  0.6950E+00
    -28.218  0.2805E-10  0.6950E+00
    -28.210  0.4031E-14  0.6950E+00
    -28.202  0.0000E+00  0.6950E+00
    -28.193  0.5724E-13  0.6950E+00
    -28.185  0.2676E-09  0.6950E+00
    -28.177  0.3290E-06  0.6950E+00
    -28.169  0.1074E-03  0.6950E+00
    -28.160  0.9454E-02  0.6951E+00
    -28.152  0.2297E+00  0.6970E+00
    -28.144  0.1585E+01  0.7101E+00
    -28.136  0.3191E+01  0.7364E+00
    -28.127  0.1899E+01  0.7521E+00
    -28.119  0.3308E+00  0.7549E+00
    -28.111  0.1643E-01  0.7550E+00
    -28.103  0.2262E-03  0.7550E+00
    -28.094  0.8424E-06  0.7550E+00
    -28.086  0.8345E-09  0.7550E+00
    -28.078  0.2177E-12  0.7550E+00
    -28.070  0.0000E+00  0.7550E+00
    -28.061  0.0000E+00  0.7550E+00
    -28.053  0.0000E+00  0.7550E+00
    -28.045  0.0000E+00  0.7550E+00
    -28.036  0.0000E+00  0.7550E+00
    -28.028  0.0000E+00  0.7550E+00
    -28.020  0.0000E+00  0.7550E+00
    -28.012  0.0000E+00  0.7550E+00
    -28.003  0.0000E+00  0.7550E+00
    -27.995  0.0000E+00  0.7550E+00
    -27.987  0.0000E+00  0.7550E+00
    -27.979  0.0000E+00  0.7550E+00
    -27.970  0.0000E+00  0.7550E+00
    -27.962  0.0000E+00  0.7550E+00
    -27.954  0.0000E+00  0.7550E+00
    -27.946  0.0000E+00  0.7550E+00
    -27.937  0.0000E+00  0.7550E+00
    -27.929  0.0000E+00  0.7550E+00
    -27.921  0.1087E-11  0.7550E+00
    -27.913  0.3265E-08  0.7550E+00
    -27.904  0.2585E-05  0.7550E+00
    -27.896  0.5457E-03  0.7550E+00
    -27.888  0.3129E-01  0.7553E+00
    -27.879  0.4996E+00  0.7594E+00
    -27.871  0.2288E+01  0.7783E+00
    -27.863  0.3076E+01  0.8037E+00
    -27.855  0.1222E+01  0.8138E+00
    -27.846  0.1409E+00  0.8150E+00
    -27.838  0.4593E-02  0.8150E+00
    -27.830  0.4112E-04  0.8150E+00
    -27.822  0.9896E-07  0.8150E+00
    -27.813  0.6307E-10  0.8150E+00
    -27.805  0.1048E-13  0.8150E+00
    -27.797  0.0000E+00  0.8150E+00
    -27.789  0.0000E+00  0.8150E+00
    -27.780  0.0000E+00  0.8150E+00
    -27.772  0.0000E+00  0.8150E+00
    -27.764  0.0000E+00  0.8150E+00
    -27.756  0.0000E+00  0.8150E+00
    -27.747  0.0000E+00  0.8150E+00
    -27.739  0.0000E+00  0.8150E+00
    -27.731  0.0000E+00  0.8150E+00
    -27.723  0.0000E+00  0.8150E+00
    -27.714  0.0000E+00  0.8150E+00
    -27.706  0.0000E+00  0.8150E+00
    -27.698  0.0000E+00  0.8150E+00
    -27.689  0.0000E+00  0.8150E+00
    -27.681  0.0000E+00  0.8150E+00
    -27.673  0.0000E+00  0.8150E+00
    -27.665  0.0000E+00  0.8150E+00
    -27.656  0.0000E+00  0.8150E+00
    -27.648  0.0000E+00  0.8150E+00
    -27.640  0.0000E+00  0.8150E+00
    -27.632  0.0000E+00  0.8150E+00
    -27.623  0.0000E+00  0.8150E+00
    -27.615  0.0000E+00  0.8150E+00
    -27.607  0.0000E+00  0.8150E+00
    -27.599  0.0000E+00  0.8150E+00
    -27.590  0.0000E+00  0.8150E+00
    -27.582  0.4031E-15  0.8150E+00
    -27.574  0.2930E-11  0.8150E+00
    -27.566  0.6763E-08  0.8150E+00
    -27.557  0.4121E-05  0.8150E+00
    -27.549  0.6717E-03  0.8150E+00
    -27.541  0.2986E-01  0.8153E+00
    -27.532  0.3719E+00  0.8183E+00
    -27.524  0.1335E+01  0.8294E+00
    -27.516  0.1412E+01  0.8410E+00
    -27.508  0.4403E+00  0.8447E+00
    -27.499  0.3972E-01  0.8450E+00
    -27.491  0.3769E-02  0.8450E+00
    -27.483  0.8171E-01  0.8457E+00
    -27.475  0.7321E+00  0.8517E+00
    -27.466  0.2434E+01  0.8719E+00
    -27.458  0.3917E+01  0.9042E+00
    -27.450  0.2903E+01  0.9282E+00
    -27.442  0.7615E+00  0.9345E+00
    -27.433  0.6053E-01  0.9350E+00
    -27.425  0.1363E-02  0.9350E+00
    -27.417  0.8389E-05  0.9350E+00
    -27.409  0.1382E-07  0.9350E+00
    -27.400  0.6012E-11  0.9350E+00
    -27.392  0.8063E-15  0.9350E+00
    -27.384  0.0000E+00  0.9350E+00
    -27.375  0.0000E+00  0.9350E+00
    -27.367  0.0000E+00  0.9350E+00
    -27.359  0.0000E+00  0.9350E+00
    -27.351  0.0000E+00  0.9350E+00
    -27.342  0.0000E+00  0.9350E+00
    -27.334  0.0000E+00  0.9350E+00
    -27.326  0.0000E+00  0.9350E+00
    -27.318  0.9675E-13  0.9350E+00
    -27.309  0.4183E-09  0.9350E+00
    -27.301  0.4763E-06  0.9350E+00
    -27.293  0.1441E-03  0.9350E+00
    -27.285  0.1177E-01  0.9351E+00
    -27.276  0.2657E+00  0.9373E+00
    -27.268  0.1706E+01  0.9514E+00
    -27.260  0.3202E+01  0.9778E+00
    -27.252  0.1775E+01  0.9925E+00
    -27.243  0.2879E+00  0.9949E+00
    -27.235  0.1329E-01  0.9950E+00
    -27.227  0.1698E-03  0.9950E+00
    -27.219  0.5859E-06  0.9950E+00
    -27.210  0.5375E-09  0.9950E+00
    -27.202  0.1290E-12  0.9950E+00
    -27.194  0.0000E+00  0.9950E+00
    -27.185  0.0000E+00  0.9950E+00
    -27.177  0.0000E+00  0.9950E+00
    -27.169  0.0000E+00  0.9950E+00
    -27.161  0.0000E+00  0.9950E+00
    -27.152  0.0000E+00  0.9950E+00
    -27.144  0.0000E+00  0.9950E+00
    -27.136  0.0000E+00  0.9950E+00
    -27.128  0.0000E+00  0.9950E+00
    -27.119  0.0000E+00  0.9950E+00
    -27.111  0.0000E+00  0.9950E+00
    -27.103  0.0000E+00  0.9950E+00
    -27.095  0.0000E+00  0.9950E+00
    -27.086  0.0000E+00  0.9950E+00
    -27.078  0.0000E+00  0.9950E+00
    -27.070  0.0000E+00  0.9950E+00
    -27.062  0.0000E+00  0.9950E+00
    -27.053  0.0000E+00  0.9950E+00
    -27.045  0.0000E+00  0.9950E+00
    -27.037  0.0000E+00  0.9950E+00
    -27.028  0.0000E+00  0.9950E+00
    -27.020  0.0000E+00  0.9950E+00
    -27.012  0.0000E+00  0.9950E+00
    -27.004  0.0000E+00  0.9950E+00
    -26.995  0.1662E-11  0.9950E+00
    -26.987  0.4677E-08  0.9950E+00
    -26.979  0.3469E-05  0.9950E+00
    -26.971  0.6865E-03  0.9950E+00
    -26.962  0.3694E-01  0.9953E+00
    -26.954  0.5542E+00  0.9999E+00
    -26.946  0.2388E+01  0.1020E+01
    -26.938  0.3025E+01  0.1045E+01
    -26.929  0.1131E+01  0.1054E+01
    -26.921  0.1227E+00  0.1055E+01
    -26.913  0.3755E-02  0.1055E+01
    -26.905  0.3153E-04  0.1055E+01
    -26.896  0.7109E-07  0.1055E+01
    -26.888  0.4243E-10  0.1055E+01
    -26.880  0.6450E-14  0.1055E+01
    -26.872  0.0000E+00  0.1055E+01
    -26.863  0.0000E+00  0.1055E+01
    -26.855  0.0000E+00  0.1055E+01
    -26.847  0.0000E+00  0.1055E+01
    -26.838  0.0000E+00  0.1055E+01
    -26.830  0.0000E+00  0.1055E+01
    -26.822  0.0000E+00  0.1055E+01
    -26.814  0.0000E+00  0.1055E+01
    -26.805  0.0000E+00  0.1055E+01
    -26.797  0.0000E+00  0.1055E+01
    -26.789  0.0000E+00  0.1055E+01
    -26.781  0.0000E+00  0.1055E+01
    -26.772  0.0000E+00  0.1055E+01
    -26.764  0.0000E+00  0.1055E+01
    -26.756  0.0000E+00  0.1055E+01
    -26.748  0.0000E+00  0.1055E+01
    -26.739  0.0000E+00  0.1055E+01
    -26.731  0.0000E+00  0.1055E+01
    -26.723  0.0000E+00  0.1055E+01
    -26.715  0.2983E-13  0.1055E+01
    -26.706  0.1534E-09  0.1055E+01
    -26.698  0.2074E-06  0.1055E+01
    -26.690  0.7433E-04  0.1055E+01
    -26.681  0.7178E-02  0.1055E+01
    -26.673  0.1909E+00  0.1057E+01
    -26.665  0.1439E+01  0.1069E+01
    -26.657  0.3161E+01  0.1095E+01
    -26.648  0.2051E+01  0.1112E+01
    -26.640  0.3902E+00  0.1115E+01
    -26.632  0.2121E-01  0.1115E+01
    -26.624  0.3202E-03  0.1115E+01
    -26.615  0.1309E-05  0.1115E+01
    -26.607  0.1426E-08  0.1115E+01
    -26.599  0.4084E-12  0.1115E+01
    -26.591  0.2202E-11  0.1115E+01
    -26.582  0.5931E-08  0.1115E+01
    -26.574  0.4211E-05  0.1115E+01
    -26.566  0.7984E-03  0.1115E+01
    -26.558  0.4118E-01  0.1115E+01
    -26.549  0.5929E+00  0.1120E+01
    -26.541  0.2454E+01  0.1141E+01
    -26.533  0.2987E+01  0.1165E+01
    -26.524  0.1115E+01  0.1174E+01
    -26.516  0.5727E+00  0.1179E+01
    -26.508  0.1435E+01  0.1191E+01
    -26.500  0.1312E+01  0.1202E+01
    -26.491  0.3538E+00  0.1205E+01
    -26.483  0.2750E-01  0.1205E+01
    -26.475  0.5981E-03  0.1205E+01
    -26.467  0.3546E-05  0.1205E+01
    -26.458  0.5622E-08  0.1205E+01
    -26.450  0.2353E-11  0.1205E+01
    -26.442  0.0000E+00  0.1205E+01
    -26.434  0.0000E+00  0.1205E+01
    -26.425  0.0000E+00  0.1205E+01
    -26.417  0.0000E+00  0.1205E+01
    -26.409  0.0000E+00  0.1205E+01
    -26.401  0.0000E+00  0.1205E+01
    -26.392  0.0000E+00  0.1205E+01
    -26.384  0.0000E+00  0.1205E+01
    -26.376  0.0000E+00  0.1205E+01
    -26.368  0.0000E+00  0.1205E+01
    -26.359  0.1709E-12  0.1205E+01
    -26.351  0.6803E-09  0.1205E+01
    -26.343  0.7118E-06  0.1205E+01
    -26.334  0.1980E-03  0.1205E+01
    -26.326  0.1489E-01  0.1205E+01