    2    2    1    1
  0.5471262E+02  0.2294499E-09  0.2294499E-09  0.2400000E-08  0.5000000E-15
  1.000000000000000E-004
  CAR 
 unknown system                          
     10     44     16
 
  0.0000000E+00  0.0000000E+00  0.0000000E+00  0.2500000E-02
      1        -30.889146   1.000000
      2        -15.354009   1.000000
      3         -9.245128   1.000000
      4         -9.245126   1.000000
      5         -6.482723   1.000000
      6         -0.887282   0.000000
      7         -0.887277   0.000000
      8         -0.537209   0.000000
      9          1.186191   0.000000
     10          1.430288   0.000000
     11          1.864329   0.000000
     12          2.239036   0.000000
     13          3.002135   0.000000
     14          3.649828   0.000000
     15          4.754332   0.000000
     16          5.663788   0.000000
 
  0.5000000E-01  0.1387779E-16  0.0000000E+00  0.1500000E-01
      1        -30.816964   1.000000
      2        -15.287312   1.000000
      3         -9.647548   1.000000
      4         -9.371633   1.000000
      5         -6.447201   1.000000
      6         -0.931026   0.000000
      7         -0.747564   0.000000
      8         -0.269606   0.000000
      9          1.279761   0.000000
     10          1.521393   0.000000
     11          1.957466   0.000000
     12          2.333530   0.000000
     13          3.092904   0.000000
     14          3.743510   0.000000
     15          4.841871   0.000000
     16          5.756483   0.000000
 
  0.1000000E+00  0.2775558E-16  0.0000000E+00  0.1500000E-01
      1        -30.601069   1.000000
      2        -15.090497   1.000000
      3        -10.698190   1.000000
      4         -9.715795   1.000000
      5         -6.348903   1.000000
      6         -1.122542   0.000000
      7         -0.371000   0.000000
      8          0.440227   0.000000
      9          1.559789   0.000000
     10          1.794873   0.000000
     11          2.237110   0.000000
     12          2.616837   0.000000
     13          3.365203   0.000000
     14          4.024303   0.000000
     15          5.104164   0.000000
     16          6.034220   0.000000
 
  0.1500000E+00  0.2775558E-16  0.0000000E+00  0.1500000E-01
      1        -30.242909   1.000000
      2        -14.774665   1.000000
      3        -12.115315   1.000000
      4        -10.195642   1.000000
      5         -6.213236   1.000000
      6         -1.411248   0.000000
      7          0.144422   0.000000
      8          1.266746   0.000000
      9          2.022517   0.000000
     10          2.257082   0.000000
     11          2.705157   0.000000
     12          3.088471   0.000000
     13          3.820104   0.000000
     14          4.491565   0.000000
     15          5.541162   0.000000
     16          6.496050   0.000000
 
  0.2000000E+00  0.5551115E-16  0.0000000E+00  0.1500000E-01
      1        -29.744604   1.000000
      2        -14.450634   1.000000
      3        -13.598544   1.000000
      4        -10.728944   1.000000
      5         -6.089368   1.000000
      6         -1.723438   0.000000
      7          0.695821   0.000000
      8          1.927096   0.000000
      9          2.664514   0.000000
     10          2.918052   0.000000
     11          3.364402   0.000000
     12          3.748258   0.000000
     13          4.460281   0.000000
     14          5.144891   0.000000
     15          6.154343   0.000000
     16          7.140900   0.000000
 
  0.2500000E+00  0.4163336E-16  0.0000000E+00  0.1500000E-01
      1        -29.110287   1.000000
      2        -15.535756   1.000000
      3        -13.624986   1.000000
      4        -11.251748   1.000000
      5         -6.053681   1.000000
      6         -1.980885   0.000000
      7          1.204507   0.000000
      8          2.273552   0.000000
      9          3.494106   0.000000
     10          3.748930   0.000000
     11          4.210296   0.000000
     12          4.597336   0.000000
     13          5.284045   0.000000
     14          5.984956   0.000000
     15          6.944012   0.000000
     16          7.968372   0.000000
 
  0.3000000E+00  0.5551115E-16  0.0000000E+00  0.1500000E-01
      1        -28.347131   1.000000
      2        -17.183056   1.000000
      3        -12.985772   1.000000
      4        -11.721475   1.000000
      5         -6.193407   1.000000
      6         -2.115406   0.000000
      7          1.623846   0.000000
      8          2.306799   0.000000
      9          4.503888   0.000000
     10          4.726273   0.000000
     11          5.238068   0.000000
     12          5.636146   0.000000
     13          6.282519   0.000000
     14          7.012127   0.000000
     15          7.903362   0.000000
     16          8.977803   0.000000
 
  0.3500000E+00  0.1110223E-15  0.0000000E+00  0.1500000E-01
      1        -27.468755   1.000000
      2        -18.799545   1.000000
      3        -12.245397   1.000000
      4        -12.109800   1.000000
      5         -6.551600   1.000000
      6         -2.112133   0.000000
      7          1.936722   0.000000
      8          2.135037   0.000000
      9          5.666028   0.000000
     10          5.859381   0.000000
     11          6.451588   0.000000
     12          6.863324   0.000000
     13          7.449120   0.000000
     14          8.223958   0.000000
     15          9.019926   0.000000
     16         10.163250   0.000000
 
  0.4000000E+00  0.1110223E-15  0.0000000E+00  0.1500000E-01
      1        -26.508566   1.000000
      2        -20.305323   1.000000
      3        -12.398255   1.000000
      4        -11.473531   1.000000
      5         -7.084751   1.000000
      6         -2.027274   0.000000
      7          1.909408   0.000000
      8          2.146193   0.000000
      9          6.907886   0.000000
     10          7.188585   0.000000
     11          7.854778   0.000000
     12          8.276541   0.000000
     13          8.779867   0.000000
     14          9.612222   0.000000
     15         10.272075   0.000000
     16         11.484727   0.000000
 
  0.4500000E+00  0.1110223E-15  0.0000000E+00  0.1500000E-01
      1        -25.572250   1.000000
      2        -21.575157   1.000000
      3        -12.575217   1.000000
      4        -10.784985   1.000000
      5         -7.649372   1.000000
      6         -1.940633   0.000000
      7          1.742168   0.000000
      8          2.264323   0.000000
      9          8.145281   0.000000
     10          8.719403   0.000000
     11          9.445008   0.000000
     12          9.865746   0.000000
     13         10.229722   0.000000
     14         11.048443   0.000000
     15         11.387468   0.000000
     16         11.977199   0.000000
 
  0.5000000E+00  0.8326673E-16  0.0000000E+00  0.7500000E-02
      1        -25.078658   1.000000
      2        -22.181641   1.000000
      3        -12.635135   1.000000
      4        -10.465190   1.000000
      5         -7.931730   1.000000
      6         -1.906191   0.000000
      7          1.682904   0.000000
      8          2.302205   0.000000
      9          8.945864   0.000000
     10         10.276746   0.000000
     11         10.427553   0.000000
     12         10.523386   0.000000
     13         11.229163   0.000000
     14         11.279504   0.000000
     15         11.650094   0.000000
     16         11.663967   0.000000
 
  0.5000000E-01  0.5000000E-01  0.0000000E+00  0.1500000E-01
      1        -30.672955   1.000000
      2        -15.155575   1.000000
      3        -10.349389   1.000000
      4         -9.630906   1.000000
      5         -6.380329   1.000000
      6         -0.908897   0.000000
      7         -0.676994   0.000000
      8          0.267123   0.000000
      9          1.466623   0.000000
     10          1.703148   0.000000
     11          2.143715   0.000000
     12          2.522433   0.000000
     13          3.274321   0.000000
     14          3.930751   0.000000
     15          5.016704   0.000000
     16          5.941708   0.000000
 
  0.1000000E+00  0.5000000E-01  0.0000000E+00  0.3000000E-01
      1        -30.385902   1.000000
      2        -14.898243   1.000000
      3        -11.532577   1.000000
      4        -10.094713   1.000000
      5         -6.262647   1.000000
      6         -1.068288   0.000000
      7         -0.323975   0.000000
      8          1.054404   0.000000
      9          1.838435   0.000000
     10          2.066910   0.000000
     11          2.516662   0.000000
     12          2.899912   0.000000
     13          3.637139   0.000000
     14          4.304809   0.000000
     15          5.365769   0.000000
     16          6.311555   0.000000
 
  0.1500000E+00  0.5000000E-01  0.0000000E+00  0.3000000E-01
      1        -29.957568   1.000000
      2        -14.547385   1.000000
      3        -12.965559   1.000000
      4        -10.653167   1.000000
      5         -6.131006   1.000000
      6         -1.347901   0.000000
      7          0.227826   0.000000
      8          1.776787   0.000000
      9          2.389915   0.000000
     10          2.622406   0.000000
     11          3.078916   0.000000
     12          3.465612   0.000000
     13          4.183085   0.000000
     14          4.865172   0.000000
     15          5.889444   0.000000
     16          6.865068   0.000000
 
  0.2000000E+00  0.5000000E-01  0.0000000E+00  0.3000000E-01
      1        -29.391098   1.000000
      2        -14.814995   1.000000
      3        -13.798558   1.000000
      4        -11.222760   1.000000
      5         -6.047015   1.000000
      6         -1.621050   0.000000
      7          0.801911   0.000000
      8          2.235945   0.000000
      9          3.126397   0.000000
     10          3.367874   0.000000
     11          3.831370   0.000000
     12          4.220108   0.000000
     13          4.914184   0.000000
     14          5.612010   0.000000
     15          6.589479   0.000000
     16          7.601522   0.000000
 
  0.2500000E+00  0.5000000E-01  0.0000000E+00  0.3000000E-01
      1        -28.691768   1.000000
      2        -16.373973   1.000000
      3        -13.276970   1.000000
      4        -11.748615   1.000000
      5         -6.093793   1.000000
      6         -1.807081   0.000000
      7          1.309971   0.000000
      8          2.373164   0.000000
      9          4.049416   0.000000
     10          4.273117   0.000000
     11          4.768888   0.000000
     12          5.164249   0.000000
     13          5.826118   0.000000
     14          6.545898   0.000000
     15          7.464296   0.000000
     16          8.520428   0.000000
 
  0.3000000E+00  0.5000000E-01  0.0000000E+00  0.3000000E-01
      1        -27.869211   1.000000
      2        -17.997936   1.000000
      3        -12.592375   1.000000
      4        -12.184912   1.000000
      5         -6.341226   1.000000
      6         -1.857378   0.000000
      7          1.694890   0.000000
      8          2.268775   0.000000
      9          5.142002   0.000000
     10          5.329186   0.000000
     11          5.890558   0.000000
     12          6.297336   0.000000
     13          6.910587   0.000000
     14          7.665753   0.000000
     15          8.504895   0.000000
     16          9.618980   0.000000
 
  0.3500000E+00  0.5000000E-01  0.0000000E+00  0.3000000E-01
      1        -26.944261   1.000000
      2        -19.556076   1.000000
      3        -12.568577   1.000000
      4        -11.796638   1.000000
      5         -6.794345   1.000000
      6         -1.789730   0.000000
      7          1.798024   0.000000
      8          2.210631   0.000000
      9          6.355673   0.000000
     10          6.558179   0.000000
     11          7.199827   0.000000
     12          7.617691   0.000000
     13          8.162136   0.000000
     14          8.967042   0.000000
     15          9.696763   0.000000
     16         10.882675   0.000000
 
  0.4000000E+00  0.5000000E-01  0.0000000E+00  0.3000000E-01
      1        -25.973010   1.000000
      2        -20.961495   1.000000
      3        -12.804672   1.000000
      4        -11.048787   1.000000
      5         -7.367002   1.000000
      6         -1.677135   0.000000
      7          1.610584   0.000000
      8          2.350785   0.000000
      9          7.606544   0.000000
     10          7.995106   0.000000
     11          8.698420   0.000000
     12          9.121491   0.000000
     13          9.570281   0.000000
     14         10.429323   0.000000
     15         10.981358   0.000000
     16         12.057734   0.000000
 
  0.4500000E+00  0.5000000E-01  0.0000000E+00  0.3000000E-01
      1        -25.168222   1.000000
      2        -21.986558   1.000000
      3        -12.926445   1.000000
      4        -10.491968   1.000000
      5         -7.844765   1.000000
      6         -1.597765   0.000000
      7          1.471391   0.000000
      8          2.445722   0.000000
      9          8.758202   0.000000
     10          9.606144   0.000000
     11         10.348697   0.000000
     12         10.634080   0.000000
     13         10.869230   0.000000
     14         11.273751   0.000000
     15         11.462392   0.000000
     16         12.130686   0.000000
 
  0.1000000E+00  0.1000000E+00  0.0000000E+00  0.1500000E-01
      1        -30.028678   1.000000
      2        -14.598287   1.000000
      3        -12.656774   1.000000
      4        -10.721902   1.000000
      5         -6.147750   1.000000
      6         -0.850566   0.000000
      7         -0.305713   0.000000
      8          1.758325   0.000000
      9          2.298958   0.000000
     10          2.515468   0.000000
     11          2.982285   0.000000
     12          3.371456   0.000000
     13          4.089475   0.000000
     14          4.772024   0.000000
     15          5.800271   0.000000
     16          6.773225   0.000000
 
  0.1500000E+00  0.1000000E+00  0.0000000E+00  0.3000000E-01
      1        -29.531917   1.000000
      2        -14.461136   1.000000
      3        -13.717250   1.000000
      4        -11.423325   1.000000
      5         -6.051003   1.000000
      6         -0.933567   0.000000
      7          0.145231   0.000000
      8          2.271903   0.000000
      9          2.943527   0.000000
     10          3.149274   0.000000
     11          3.636777   0.000000
     12          4.031857   0.000000
     13          4.724102   0.000000
     14          5.426042   0.000000
     15          6.408246   0.000000
     16          7.418706   0.000000
 
  0.2000000E+00  0.1000000E+00  0.0000000E+00  0.3000000E-01
      1        -28.899740   1.000000
      2        -15.691008   1.000000
      3        -13.436261   1.000000
      4        -12.082879   1.000000
      5         -6.040556   1.000000
      6         -1.096355   0.000000
      7          0.735494   0.000000
      8          2.478608   0.000000
      9          3.778096   0.000000
     10          3.967332   0.000000
     11          4.481170   0.000000
     12          4.881668   0.000000
     13          5.542961   0.000000
     14          6.267065   0.000000
     15          7.191854   0.000000
     16          8.247252   0.000000
 
  0.2500000E+00  0.1000000E+00  0.0000000E+00  0.3000000E-01
      1        -28.139127   1.000000
      2        -17.231275   1.000000
      3        -12.849397   1.000000
      4        -12.599605   1.000000
      5         -6.189959   1.000000
      6         -1.173553   0.000000
      7          1.248516   0.000000
      8          2.420665   0.000000
      9          4.791133   0.000000
     10          4.950843   0.000000
     11          5.512971   0.000000
     12          5.920391   0.000000
     13          6.542478   0.000000
     14          7.294242   0.000000
     15          8.149673   0.000000
     16          9.256603   0.000000
 
  0.3000000E+00  0.1000000E+00  0.0000000E+00  0.3000000E-01
      1        -27.263820   1.000000
      2        -18.775000   1.000000
      3        -13.131741   1.000000
      4        -12.037014   1.000000
      5         -6.539213   1.000000
      6         -1.125565   0.000000
      7          1.514172   0.000000
      8          2.317555   0.000000
      9          5.955095   0.000000
     10          6.096578   0.000000
     11          6.731413   0.000000
     12          7.146867   0.000000
     13          7.715363   0.000000
     14          8.504704   0.000000
     15          9.272583   0.000000
     16         10.439020   0.000000
 
  0.3500000E+00  0.1000000E+00  0.0000000E+00  0.3000000E-01
      1        -26.305939   1.000000
      2        -20.236126   1.000000
      3        -13.459006   1.000000
      4        -11.269876   1.000000
      5         -7.058205   1.000000
      6         -0.981475   0.000000
      7          1.371142   0.000000
      8          2.448876   0.000000
      9          7.193487   0.000000
     10          7.439947   0.000000
     11          8.137761   0.000000
     12          8.558955   0.000000
     13          9.053822   0.000000
     14          9.889733   0.000000
     15         10.538630   0.000000
     16         11.747161   0.000000
 
  0.4000000E+00  0.1000000E+00  0.0000000E+00  0.3000000E-01
      1        -25.368582   1.000000
      2        -21.484669   1.000000
      3        -13.659256   1.000000
      4        -10.575433   1.000000
      5         -7.618972   1.000000
      6         -0.819488   0.000000
      7          1.113887   0.000000
      8          2.631473   0.000000
      9          8.431812   0.000000
     10          8.973209   0.000000
     11          9.730120   0.000000
     12         10.145061   0.000000
     13         10.515548   0.000000
     14         11.296288   0.000000
     15         11.674869   0.000000
     16         12.144909   0.000000
 
  0.4500000E+00  0.1000000E+00  0.0000000E+00  0.1500000E-01
      1        -24.869494   1.000000
      2        -22.089532   1.000000
      3        -13.726391   1.000000
      4        -10.246254   1.000000
      5         -7.906833   1.000000
      6         -0.744930   0.000000
      7          0.999180   0.000000
      8          2.704239   0.000000
      9          9.247277   0.000000
     10         10.457346   0.000000
     11         10.701159   0.000000
     12         10.792376   0.000000
     13         11.515375   0.000000
     14         11.558088   0.000000
     15         11.930784   0.000000
     16         11.942593   0.000000
 
  0.1500000E+00  0.1500000E+00  0.0000000E+00  0.1500000E-01
      1        -28.969266   1.000000
      2        -15.396228   1.000000
      3        -13.475226   1.000000
      4        -12.297267   1.000000
      5         -6.024734   1.000000
      6         -0.475667   0.000000
      7          0.187733   0.000000
      8          2.537624   0.000000
      9          3.687966   0.000000
     10          3.850699   0.000000
     11          4.383155   0.000000
     12          4.787620   0.000000
     13          5.445718   0.000000
     14          6.174354   0.000000
     15          7.098559   0.000000
     16          8.156528   0.000000
 
  0.2000000E+00  0.1500000E+00  0.0000000E+00  0.3000000E-01
      1        -28.274882   1.000000
      2        -16.692850   1.000000
      3        -13.111086   1.000000
      4        -12.883245   1.000000
      5         -6.113427   1.000000
      6         -0.350978   0.000000
      7          0.622828   0.000000
      8          2.551843   0.000000
      9          4.616071   0.000000
     10          4.735322   0.000000
     11          5.320530   0.000000
     12          5.732226   0.000000
     13          6.351201   0.000000
     14          7.109036   0.000000
     15          7.963991   0.000000
     16          9.076291   0.000000
 
  0.2500000E+00  0.1500000E+00  0.0000000E+00  0.3000000E-01
      1        -27.458469   1.000000
      2        -18.095214   1.000000
      3        -13.758137   1.000000
      4        -12.195256   1.000000
      5         -6.367458   1.000000
      6         -0.309669   0.000000
      7          1.070059   0.000000
      8          2.449292   0.000000
      9          5.712357   0.000000
     10          5.794509   0.000000
     11          6.447626   0.000000
     12          6.864613   0.000000
     13          7.438722   0.000000
     14          8.227603   0.000000
     15          9.004902   0.000000
     16         10.172099   0.000000
 
  0.3000000E+00  0.1500000E+00  0.0000000E+00  0.3000000E-01
      1        -26.539688   1.000000
      2        -19.509366   1.000000
      3        -14.243770   1.000000
      4        -11.437054   1.000000
      5         -6.796868   1.000000
      6         -0.196332   0.000000
      7          1.172281   0.000000
      8          2.497180   0.000000
      9          6.914251   0.000000
     10          7.051577   0.000000
     11          7.763018   0.000000
     12          8.183351   0.000000
     13          8.701162   0.000000
     14          9.524752   0.000000
     15         10.211812   0.000000
     16         11.423722   0.000000
 
  0.3500000E+00  0.1500000E+00  0.0000000E+00  0.3000000E-01
      1        -25.571040   1.000000
      2        -20.833336   1.000000
      3        -14.563693   1.000000
      4        -10.683727   1.000000
      5         -7.343665   1.000000
      6          0.000427   0.000000
      7          0.933696   0.000000
      8          2.726659   0.000000
      9          8.161655   0.000000
     10          8.503758   0.000000
     11          9.266013   0.000000
     12          9.683973   0.000000
     13         10.124820   0.000000
     14         10.973710   0.000000
     15         11.536293   0.000000
     16         12.440262   0.000000
 
  0.4000000E+00  0.1500000E+00  0.0000000E+00  0.3000000E-01
      1        -24.755728   1.000000
      2        -21.833147   1.000000
      3        -14.722780   1.000000
      4        -10.110718   1.000000
      5         -7.820156   1.000000
      6          0.263523   0.000000
      7          0.601604   0.000000
      8          2.902598   0.000000
      9          9.334378   0.000000
     10         10.091066   0.000000
     11         10.918123   0.000000
     12         11.120889   0.000000
     13         11.438180   0.000000
     14         11.699313   0.000000
     15         12.011147   0.000000
     16         12.676052   0.000000
 
  0.2000000E+00  0.2000000E+00  0.0000000E+00  0.1500000E-01
      1        -27.523832   1.000000
      2        -17.794907   1.000000
      3        -14.052278   1.000000
      4        -12.250185   1.000000
      5         -6.307258   1.000000
      6          0.400080   0.000000
      7          0.505214   0.000000
      8          2.522383   0.000000
      9          5.635349   0.000000
     10          5.678340   0.000000
     11          6.351832   0.000000
     12          6.770631   0.000000
     13          7.343301   0.000000
     14          8.135426   0.000000
     15          8.911320   0.000000
     16         10.083442   0.000000
 
  0.2500000E+00  0.2000000E+00  0.0000000E+00  0.3000000E-01
      1        -26.659622   1.000000
      2        -18.991220   1.000000
      3        -14.819755   1.000000
      4        -11.526995   1.000000
      5         -6.646889   1.000000
      6          0.324752   0.000000
      7          1.042095   0.000000
      8          2.540120   0.000000
      9          6.775371   0.000000
     10          6.837016   0.000000
     11          7.574218   0.000000
     12          7.995608   0.000000
     13          8.518760   0.000000
     14          9.341945   0.000000
     15         10.035594   0.000000
     16         11.255507   0.000000
 
  0.3000000E+00  0.2000000E+00  0.0000000E+00  0.3000000E-01
      1        -25.711144   1.000000
      2        -20.225017   1.000000
      3        -15.357569   1.000000
      4        -10.768756   1.000000
      5         -7.122445   1.000000
      6          0.156578   0.000000
      7          1.387218   0.000000
      8          2.730149   0.000000
      9          7.991469   0.000000
     10          8.206760   0.000000
     11          8.985888   0.000000
     12          9.404476   0.000000
     13          9.870037   0.000000
     14         10.716024   0.000000
     15         11.323755   0.000000
     16         12.502174   0.000000
 
  0.3500000E+00  0.2000000E+00  0.0000000E+00  0.3000000E-01
      1        -24.768670   1.000000
      2        -21.361477   1.000000
      3        -15.671327   1.000000
      4        -10.070267   1.000000
      5         -7.652245   1.000000
      6          0.024318   0.000000
      7          1.506140   0.000000
      8          2.991900   0.000000
      9          9.241873   0.000000
     10          9.723964   0.000000
     11         10.583624   0.000000
     12         10.978613   0.000000
     13         11.363354   0.000000
     14         11.954840   0.000000
     15         12.484928   0.000000
     16         12.620774   0.000000
 
  0.4000000E+00  0.2000000E+00  0.0000000E+00  0.1500000E-01
      1        -24.243693   1.000000
      2        -21.955078   1.000000
      3        -15.774140   1.000000
      4         -9.720474   1.000000
      5         -7.945985   1.000000
      6         -0.025652   0.000000
      7          1.530894   0.000000
      8          3.108371   0.000000
      9         10.118157   0.000000
     10         10.917374   0.000000
     11         11.519730   0.000000
     12         11.549836   0.000000
     13         12.372667   0.000000
     14         12.394309   0.000000
     15         12.754298   0.000000
     16         12.773059   0.000000
 
  0.2500000E+00  0.2500000E+00  0.0000000E+00  0.1500000E-01
      1        -25.760429   1.000000
      2        -19.953020   1.000000
      3        -15.695994   1.000000
      4        -10.800455   1.000000
      5         -7.037849   1.000000
      6          0.106907   0.000000
      7          1.711062   0.000000
      8          2.701783   0.000000
      9          7.932629   0.000000
     10          8.102460   0.000000
     11          8.892064   0.000000
     12          9.311160   0.000000
     13          9.781961   0.000000
     14         10.628086   0.000000
     15         11.239578   0.000000
     16         12.464459   0.000000
 
  0.3000000E+00  0.2500000E+00  0.0000000E+00  0.3000000E-01
      1        -24.802333   1.000000
      2        -20.967876   1.000000
      3        -16.294773   1.000000
      4        -10.068479   1.000000
      5         -7.523748   1.000000
      6         -0.218144   0.000000
      7          2.268437   0.000000
      8          2.945478   0.000000
      9          9.174109   0.000000
     10          9.528603   0.000000
     11         10.398979   0.000000
     12         10.803426   0.000000
     13         11.217469   0.000000
     14         12.028102   0.000000
     15         12.493869   0.000000
     16         12.748469   0.000000
 
  0.3500000E+00  0.2500000E+00  0.0000000E+00  0.3000000E-01
      1        -23.948065   1.000000
      2        -21.861028   1.000000
      3        -16.590685   1.000000
      4         -9.470519   1.000000
      5         -7.992346   1.000000
      6         -0.410856   0.000000
      7          2.485405   0.000000
      8          3.192895   0.000000
      9         10.364167   0.000000
     10         10.980950   0.000000
     11         11.840230   0.000000
     12         12.087323   0.000000
     13         12.443819   0.000000
     14         12.592462   0.000000
     15         12.932602   0.000000
     16         13.383240   0.000000
 
  0.3000000E+00  0.3000000E+00  0.0000000E+00  0.1500000E-01
      1        -23.864239   1.000000
      2        -21.769418   1.000000
      3        -16.912783   1.000000
      4         -9.387797   1.000000
      5         -7.996904   1.000000
      6         -0.553687   0.000000
      7          2.965914   0.000000
      8          3.109304   0.000000
      9         10.374151   0.000000
     10         10.935160   0.000000
     11         11.998194   0.000000
     12         12.140624   0.000000
     13         12.302048   0.000000
     14         12.720259   0.000000
     15         12.853714   0.000000
     16         13.816508   0.000000
 
  0.3500000E+00  0.3000000E+00  0.0000000E+00  0.1500000E-01
      1        -23.206822   1.000000
      2        -22.376342   1.000000
      3        -17.127091   1.000000
      4         -8.944539   1.000000
      5         -8.365790   1.000000
      6         -0.678901   0.000000
      7          3.117897   0.000000
      8          3.280817   0.000000
      9         11.235746   0.000000
     10         11.535981   0.000000
     11         11.945746   0.000000
     12         12.824288   0.000000
     13         13.299413   0.000000
     14         13.776134   0.000000
     15         13.788002   0.000000
     16         14.176940   0.000000
