       N       E                     dE             d eps       ncg     rms          rms(c)
DAV:   1     0.684927383335E+02    0.68493E+02   -0.43738E+03  1456   0.432E+02
DAV:   2    -0.120233047010E+02   -0.80516E+02   -0.68078E+02  2144   0.115E+02
DAV:   3    -0.140394440505E+02   -0.20161E+01   -0.20161E+01  1584   0.250E+01
DAV:   4    -0.140444271934E+02   -0.49831E-02   -0.49831E-02  1904   0.158E+00
DAV:   5    -0.140444415524E+02   -0.14359E-04   -0.14359E-04  1696   0.641E-02
DAV:   6    -0.140444417622E+02   -0.20984E-06   -0.20984E-06  2240   0.638E-03
DAV:   7    -0.140444417651E+02   -0.28949E-08   -0.28952E-08  1616   0.373E-04
DAV:   8    -0.140444417653E+02   -0.14370E-09   -0.14426E-09  1440   0.779E-05
DAV:   9    -0.140444417653E+02   -0.33651E-10   -0.34099E-10  1232   0.361E-05
DAV:  10    -0.140444417653E+02   -0.13642E-10   -0.13735E-10  1024   0.220E-05
DAV:  11    -0.140444417653E+02   -0.59117E-11   -0.58527E-11   928   0.135E-05
DAV:  12    -0.140444417653E+02   -0.22737E-11   -0.22734E-11   848   0.844E-06    0.607E+00
DAV:  13    -0.138545373605E+02    0.18990E+00   -0.30357E-02  2320   0.113E+00    0.531E+00
DAV:  14    -0.134172902821E+02    0.43725E+00   -0.14671E+00  1712   0.733E+00    0.713E-01
DAV:  15    -0.134179253782E+02   -0.63510E-03   -0.53071E-02  1584   0.157E+00    0.465E-01
DAV:  16    -0.134200741605E+02   -0.21488E-02   -0.78406E-03  2176   0.624E-01    0.104E-01
DAV:  17    -0.134198054033E+02    0.26876E-03   -0.13397E-03  2272   0.233E-01    0.489E-02
DAV:  18    -0.134198149985E+02   -0.95953E-05   -0.14161E-04  2288   0.721E-02    0.135E-02
DAV:  19    -0.134198179530E+02   -0.29544E-05   -0.29213E-06  1456   0.939E-03    0.942E-03
DAV:  20    -0.134198198260E+02   -0.18731E-05   -0.12369E-05  1760   0.197E-02    0.148E-03
DAV:  21    -0.134198197856E+02    0.40401E-07   -0.16189E-07  1776   0.282E-03
   1 F= -.13419820E+02 E0= -.13419820E+02  d E =-.697655E-14
 Linear response reoptimize wavefunctions
DAV:   1    -0.134198197858E+02   -0.13233E-09   -0.13266E-09  1808   0.246E-04
DAV:   2    -0.134198197858E+02   -0.13642E-11   -0.11902E-11  1824   0.161E-05
 Linear response G [H, r] |phi>, progress :
  Direction:   1
       N       E                     dE             d eps       ncg     rms
RMM:   1    -0.334738334375E+02   -0.33474E+02   -0.16272E+01  3254   0.993E+01
RMM:   2    -0.339309327488E+02   -0.45710E+00   -0.37669E+00  2736   0.167E+01
RMM:   3    -0.340201189461E+02   -0.89186E-01   -0.29034E-01  2948   0.305E+00
RMM:   4    -0.340224562948E+02   -0.23373E-02   -0.48274E-03  2946   0.384E-01
RMM:   5    -0.340225176726E+02   -0.61378E-04   -0.14505E-04  3027   0.679E-02
RMM:   6    -0.340225195310E+02   -0.18584E-05   -0.62069E-06  3017   0.106E-02
RMM:   7    -0.340225195960E+02   -0.65025E-07   -0.22223E-07  2899   0.201E-03
 Linear response G [H, r] |phi>, progress :
  Direction:   2
       N       E                     dE             d eps       ncg     rms
RMM:   1    -0.362525247988E+02   -0.36253E+02   -0.67815E+01  3213   0.977E+01
RMM:   2    -0.382968956140E+02   -0.20444E+01   -0.26375E+00  2619   0.146E+01
RMM:   3    -0.383702180469E+02   -0.73322E-01   -0.22976E-01  2892   0.263E+00
RMM:   4    -0.383744408534E+02   -0.42228E-02   -0.53030E-03  2939   0.367E-01
RMM:   5    -0.383745368617E+02   -0.96008E-04   -0.14452E-04  3031   0.634E-02
RMM:   6    -0.383745394738E+02   -0.26121E-05   -0.55249E-06  3035   0.101E-02
RMM:   7    -0.383745395654E+02   -0.91552E-07   -0.24887E-07  2862   0.201E-03
 Linear response G [H, r] |phi>, progress :
  Direction:   3
       N       E                     dE             d eps       ncg     rms
RMM:   1    -0.338675265228E+02   -0.33868E+02    0.68866E+01  2664   0.107E+02
RMM:   2    -0.376029082003E+02   -0.37354E+01   -0.56075E+00  2734   0.166E+01
RMM:   3    -0.376817479446E+02   -0.78840E-01   -0.25410E-01  2883   0.298E+00
RMM:   4    -0.376837604380E+02   -0.20125E-02   -0.41506E-03  3005   0.399E-01
RMM:   5    -0.376838093802E+02   -0.48942E-04   -0.18893E-04  3051   0.665E-02
RMM:   6    -0.376838116086E+02   -0.22285E-05   -0.64814E-06  3044   0.118E-02
RMM:   7    -0.376838116929E+02   -0.84252E-07   -0.42860E-07  2987   0.234E-03
 Linear response to external field (no local field effect), progress :
  Direction:   1
       N       E                     dE             d eps       ncg     rms          rms(c)
RMM:   1    -0.202147182367E+00   -0.20215E+00   -0.10108E+00  3523   0.276E+00
RMM:   2    -0.212809894573E+00   -0.10663E-01   -0.30011E-03  2649   0.432E-01
RMM:   3    -0.213056703780E+00   -0.24681E-03   -0.26590E-04  2899   0.745E-02
RMM:   4    -0.213065199417E+00   -0.84956E-05   -0.12499E-05  2945   0.141E-02
RMM:   5    -0.213065383627E+00   -0.18421E-06   -0.29950E-07  2980   0.225E-03
RMM:   6    -0.213065391664E+00   -0.80373E-08   -0.10184E-08  2573   0.370E-04
 Linear response to external field (no local field effect), progress :
  Direction:   2
       N       E                     dE             d eps       ncg     rms          rms(c)
RMM:   1    -0.211724283902E+00   -0.21172E+00   -0.99257E-01  3488   0.278E+00
RMM:   2    -0.218795432044E+00   -0.70711E-02   -0.20392E-03  2613   0.412E-01
RMM:   3    -0.219110903069E+00   -0.31547E-03   -0.30892E-04  2890   0.802E-02
RMM:   4    -0.219120489066E+00   -0.95860E-05   -0.11728E-05  2865   0.134E-02
RMM:   5    -0.219120695306E+00   -0.20624E-06   -0.39933E-07  2949   0.240E-03
RMM:   6    -0.219120707457E+00   -0.12151E-07   -0.10181E-08  2549   0.386E-04
 Linear response to external field (no local field effect), progress :
  Direction:   3
       N       E                     dE             d eps       ncg     rms          rms(c)
RMM:   1    -0.888902833352E-01   -0.88890E-01   -0.21426E-01  3400   0.227E+00
RMM:   2    -0.953965052666E-01   -0.65062E-02   -0.22103E-03  2494   0.406E-01
RMM:   3    -0.955410747958E-01   -0.14457E-03   -0.20182E-04  2845   0.844E-02
RMM:   4    -0.955471065759E-01   -0.60318E-05   -0.82799E-06  2984   0.142E-02
RMM:   5    -0.955472330155E-01   -0.12644E-06   -0.23038E-07  2963   0.249E-03
RMM:   6    -0.955472373683E-01   -0.43527E-08   -0.63423E-09  2593   0.389E-04
 Linear response to external field, progress :
  Direction:   1
       N       E                     dE             d eps       ncg     rms          rms(c)
RMM:   1    -0.206731283154E+00   -0.20673E+00   -0.99966E-01  8775   0.275E+00
RMM:   2    -0.215905272004E+00   -0.91740E-02   -0.31622E-03  6594   0.406E-01    0.141E+00
RMM:   3    -0.214083455590E+00    0.18218E-02   -0.58039E-04  5780   0.184E-01    0.124E+00
RMM:   4    -0.230430769262E+00   -0.16347E-01   -0.10036E-02  5454   0.630E-01    0.148E-01
RMM:   5    -0.226454481488E+00    0.39763E-02   -0.30746E-04  6526   0.107E-01    0.123E-01
RMM:   6    -0.230331374440E+00   -0.38769E-02   -0.68483E-05  6797   0.580E-02    0.860E-03
RMM:   7    -0.230288976339E+00    0.42398E-04   -0.74838E-07  6634   0.638E-03    0.652E-03
RMM:   8    -0.230261797849E+00    0.27178E-04   -0.59061E-07  6449   0.496E-03    0.115E-03
RMM:   9    -0.230265526192E+00   -0.37283E-05   -0.24609E-08  6857   0.101E-03    0.483E-04
RMM:  10    -0.230268010648E+00   -0.24845E-05   -0.45607E-10  6441   0.467E-04    0.100E-04
RMM:  11    -0.230267309583E+00    0.70107E-06   -0.21898E-12  5106   0.154E-04    0.245E-05
 Linear response to external field, progress :
  Direction:   2
       N       E                     dE             d eps       ncg     rms          rms(c)
RMM:   1    -0.206852894197E+00   -0.20685E+00   -0.10009E+00  8832   0.273E+00
RMM:   2    -0.215891339109E+00   -0.90384E-02   -0.30974E-03  6683   0.410E-01    0.141E+00
RMM:   3    -0.214092333863E+00    0.17990E-02   -0.57991E-04  5839   0.185E-01    0.124E+00
RMM:   4    -0.230432692645E+00   -0.16340E-01   -0.10092E-02  5521   0.629E-01    0.148E-01
RMM:   5    -0.226520476335E+00    0.39122E-02   -0.29902E-04  6685   0.107E-01    0.123E-01
RMM:   6    -0.230263530444E+00   -0.37431E-02   -0.70621E-05  6750   0.580E-02    0.775E-03
RMM:   7    -0.230257673070E+00    0.58574E-05   -0.95175E-07  6750   0.680E-03    0.597E-03
RMM:   8    -0.230290840661E+00   -0.33168E-04   -0.30445E-07  6511   0.362E-03    0.366E-03
RMM:   9    -0.230275838297E+00    0.15002E-04   -0.13335E-07  6681   0.244E-03    0.109E-03
RMM:  10    -0.230266409062E+00    0.94292E-05   -0.11610E-08  6373   0.709E-04    0.387E-04
RMM:  11    -0.230266293866E+00    0.11520E-06   -0.30719E-09  6412   0.363E-04    0.861E-05
 Linear response to external field, progress :
  Direction:   3
       N       E                     dE             d eps       ncg     rms          rms(c)
RMM:   1    -0.888902833352E-01   -0.88890E-01   -0.21426E-01  3400   0.227E+00
RMM:   2    -0.953965052666E-01   -0.65062E-02   -0.22103E-03  2494   0.406E-01    0.942E-01
RMM:   3    -0.558392873182E-01    0.39557E-01   -0.13256E-02  2203   0.531E-01    0.420E-01
RMM:   4    -0.379237124138E-01    0.17916E-01   -0.21024E-02  2622   0.572E-01    0.196E-01
RMM:   5    -0.341803603554E-01    0.37434E-02   -0.57228E-03  2196   0.479E-01    0.499E-02
RMM:   6    -0.346451976117E-01   -0.46484E-03   -0.18359E-03  2323   0.186E-01    0.401E-02
RMM:   7    -0.345710405573E-01    0.74157E-04   -0.13456E-04  2137   0.830E-02    0.327E-02
RMM:   8    -0.347621924880E-01   -0.19115E-03   -0.61015E-05  2207   0.623E-02    0.403E-03
RMM:   9    -0.347647454239E-01   -0.25529E-05   -0.99590E-06  2533   0.158E-02    0.506E-03
RMM:  10    -0.347625480355E-01    0.21974E-05   -0.89466E-08  2550   0.196E-03    0.488E-03
RMM:  11    -0.347665159902E-01   -0.39680E-05   -0.20007E-08  2510   0.929E-04    0.538E-03
RMM:  12    -0.346202086545E-01    0.14631E-03   -0.36771E-05  2825   0.460E-02    0.329E-02
RMM:  13    -0.346452485004E-01   -0.25040E-04   -0.14110E-06  2146   0.115E-02    0.270E-02
RMM:  14    -0.347094747239E-01   -0.64226E-04   -0.34945E-06  2447   0.191E-02    0.119E-02
RMM:  15    -0.347394403521E-01   -0.29966E-04   -0.44372E-06  2469   0.934E-03    0.551E-03
RMM:  16    -0.347422369034E-01   -0.27966E-05   -0.35810E-07  2396   0.221E-03    0.472E-03
RMM:  17    -0.347444525795E-01   -0.22157E-05   -0.14740E-08  2262   0.677E-04    0.415E-03
RMM:  18    -0.347573588216E-01   -0.12906E-04   -0.32435E-07  2261   0.323E-03    0.166E-03
RMM:  19    -0.347595860885E-01   -0.22273E-05   -0.82495E-08  2361   0.117E-03    0.115E-03
RMM:  20    -0.347596279060E-01   -0.41818E-07   -0.35747E-10  1738   0.223E-04    0.109E-03
