 vasp.6.4.2 20Jul23 (build Nov 14 2023 12:59:38) complex                        
  
 executed on             LinuxIFC date 2023.12.18  09:39:38
 running   16 mpi-ranks, on    1 nodes
 distrk:  each k-point on   16 cores,    1 groups
 distr:  one band on NCORE=   1 cores,   16 groups


--------------------------------------------------------------------------------------------------------


 INCAR:
   ENCUT = 473.514750
   ALGO = Normal
   NELM = 200
   NELMIN = 6
   NELMDL = -12
   EDIFF = 1.0E-6
   AMIX = 0.1
   BMIX = 0.0001
   PREC = Accurate
   IVDW = 0
   ISPIN = 1
   ADDGRID = .TRUE.
   LASPH = .TRUE.
   LEPSILON = .TRUE.
   NSW = 0
   EDIFFG = -0.010
   IBRION = 2
   ISIF = -1
   POTIM = 0.5
   STRESSTYPE = 2
   ISMEAR = 0
   SIGMA = 0.01
   LORBIT = 10
   NEDOS = 6001
   NWRITE = 1
   LWAVE = .FALSE.
   LCHARG = .FALSE.
   LPLANE = .TRUE.

 POTCAR:    PAW_PBE N_GW 10Apr2007                
 -----------------------------------------------------------------------------
|                                                                             |
|           W    W    AA    RRRRR   N    N  II  N    N   GGGG   !!!           |
|           W    W   A  A   R    R  NN   N  II  NN   N  G    G  !!!           |
|           W    W  A    A  R    R  N N  N  II  N N  N  G       !!!           |
|           W WW W  AAAAAA  RRRRR   N  N N  II  N  N N  G  GGG   !            |
|           WW  WW  A    A  R   R   N   NN  II  N   NN  G    G                |
|           W    W  A    A  R    R  N    N  II  N    N   GGGG   !!!           |
|                                                                             |
|     For optimal performance we recommend to set                             |
|       NCORE = 2 up to number-of-cores-per-socket                            |
|     NCORE specifies how many cores store one orbital (NPAR=cpu/NCORE).      |
|     This setting can greatly improve the performance of VASP for DFT.       |
|     The default, NCORE=1 might be grossly inefficient on modern             |
|     multi-core architectures or massively parallel machines. Do your        |
|     own testing! More info at https://www.vasp.at/wiki/index.php/NCORE      |
|     Unfortunately you need to use the default for GW and RPA                |
|     calculations (for HF NCORE is supported but not extensively tested      |
|     yet).                                                                   |
|                                                                             |
 -----------------------------------------------------------------------------

 POTCAR:    PAW_PBE N_GW 10Apr2007                
  local pseudopotential read in
  kinetic energy density of atom read in
  atomic valenz-charges read in
  non local Contribution for L=           0  read in
    real space projection operators read in
  non local Contribution for L=           0  read in
    real space projection operators read in
  non local Contribution for L=           1  read in
    real space projection operators read in
  non local Contribution for L=           1  read in
    real space projection operators read in
    PAW grid and wavefunctions read in
 
   number of l-projection  operators is LMAX  =           4
   number of lm-projection operators is LMMAX =           8
 
  PAW_PBE N_GW 10Apr2007                :
 energy of atom  1       EATOM= -264.5486
 kinetic energy error for atom=    0.0147 (will be added to EATOM!!)
 
 
 POSCAR: pnictogen honeycomb monolayer
  positions in cartesian coordinates
  No initial velocities read in
 exchange correlation table for  LEXCH =        8
   RHO(1)=    0.500       N(1)  =     2000
   RHO(2)=  100.500       N(2)  =     4000
 


--------------------------------------------------------------------------------------------------------


 ion  position               nearest neighbor table
   1  0.667  0.333  0.319-   2 1.50   2 1.50   2 1.50
   2  0.333  0.667  0.348-   1 1.50   1 1.50   1 1.50
 
  LATTYP: Found a hexagonal cell.
 ALAT       =     2.2944986820
 C/A-ratio  =    10.4598011706
  
  Lattice vectors:
  
 A1 = (   2.2944986820,   0.0000000000,   0.0000000000)
 A2 = (  -1.1472493410,   1.9870941476,   0.0000000000)
 A3 = (   0.0000000000,   0.0000000000,  24.0000000000)


Analysis of symmetry for initial positions (statically):
=====================================================================
 Subroutine PRICEL returns:
 Original cell was already a primitive cell.
 

 Routine SETGRP: Setting up the symmetry group for a 
 hexagonal supercell.


 Subroutine GETGRP returns: Found 12 space group operations
 (whereof  6 operations were pure point group operations)
 out of a pool of 24 trial point group operations.


The static configuration has the point symmetry C_3v.
 The point group associated with its full space group is D_3d.


Analysis of symmetry for dynamics (positions and initial velocities):
=====================================================================
 Subroutine PRICEL returns:
 Original cell was already a primitive cell.
 

 Routine SETGRP: Setting up the symmetry group for a 
 hexagonal supercell.


 Subroutine GETGRP returns: Found 12 space group operations
 (whereof  6 operations were pure point group operations)
 out of a pool of 24 trial point group operations.


The dynamic configuration has the point symmetry C_3v.
 The point group associated with its full space group is D_3d.


 Subroutine INISYM returns: Found 12 space group operations
 (whereof  6 operations are pure point group operations),
 and found     1 'primitive' translations


----------------------------------------------------------------------------------------

                                     Primitive cell                                     

  volume of cell :     109.4252

  direct lattice vectors                    reciprocal lattice vectors
     2.294498682  0.000000000  0.000000000     0.435825049  0.251623709  0.000000000
    -1.147249341  1.987094148  0.000000000     0.000000000  0.503247418  0.000000000
     0.000000000  0.000000000 24.000000000     0.000000000  0.000000000  0.041666667

  length of vectors
     2.294498682  2.294498682 24.000000000     0.503247418  0.503247418  0.041666667

  position of ions in fractional coordinates (direct lattice)
     0.666666687  0.333333343  0.318814576
     0.333333343  0.666666686  0.347852111

  ion indices of the primitive-cell ions
   primitive index   ion index
                 1           1
                 2           2

----------------------------------------------------------------------------------------

 
 
 KPOINTS: kpoints                                 

Automatic generation of k-mesh.
 Grid dimensions read from file:
 generate k-points for:   20   20    1

 Generating k-lattice:

  Cartesian coordinates                     Fractional coordinates (reciprocal lattice)
     0.021791252  0.012581185  0.000000000     0.050000000 -0.000000000  0.000000000
     0.000000000  0.025162371  0.000000000     0.000000000  0.050000000  0.000000000
     0.000000000  0.000000000  0.041666667     0.000000000  0.000000000  1.000000000

  Length of vectors
     0.025162371  0.025162371  0.041666667

  Shift w.r.t. Gamma in fractional coordinates (k-lattice)
     0.000000000  0.000000000  0.000000000

 
 Subroutine IBZKPT returns following result:
 ===========================================
 
 Found     44 irreducible k-points:
 
 Following reciprocal coordinates:
            Coordinates               Weight
  0.000000  0.000000  0.000000      1.000000
  0.050000  0.000000  0.000000      6.000000
  0.100000  0.000000  0.000000      6.000000
  0.150000  0.000000  0.000000      6.000000
  0.200000  0.000000  0.000000      6.000000
  0.250000  0.000000  0.000000      6.000000
  0.300000  0.000000  0.000000      6.000000
  0.350000  0.000000  0.000000      6.000000
  0.400000  0.000000  0.000000      6.000000
  0.450000  0.000000  0.000000      6.000000
  0.500000  0.000000  0.000000      3.000000
  0.050000  0.050000  0.000000      6.000000
  0.100000  0.050000  0.000000     12.000000
  0.150000  0.050000  0.000000     12.000000
  0.200000  0.050000  0.000000     12.000000
  0.250000  0.050000  0.000000     12.000000
  0.300000  0.050000  0.000000     12.000000
  0.350000  0.050000  0.000000     12.000000
  0.400000  0.050000  0.000000     12.000000
  0.450000  0.050000  0.000000     12.000000
  0.100000  0.100000  0.000000      6.000000
  0.150000  0.100000  0.000000     12.000000
  0.200000  0.100000  0.000000     12.000000
  0.250000  0.100000  0.000000     12.000000
  0.300000  0.100000  0.000000     12.000000
  0.350000  0.100000  0.000000     12.000000
  0.400000  0.100000  0.000000     12.000000
  0.450000  0.100000  0.000000      6.000000
  0.150000  0.150000  0.000000      6.000000
  0.200000  0.150000  0.000000     12.000000
  0.250000  0.150000  0.000000     12.000000
  0.300000  0.150000  0.000000     12.000000
  0.350000  0.150000  0.000000     12.000000
  0.400000  0.150000  0.000000     12.000000
  0.200000  0.200000  0.000000      6.000000
  0.250000  0.200000  0.000000     12.000000
  0.300000  0.200000  0.000000     12.000000
  0.350000  0.200000  0.000000     12.000000
  0.400000  0.200000  0.000000      6.000000
  0.250000  0.250000  0.000000      6.000000
  0.300000  0.250000  0.000000     12.000000
  0.350000  0.250000  0.000000     12.000000
  0.300000  0.300000  0.000000      6.000000
  0.350000  0.300000  0.000000      6.000000
 
 Following cartesian coordinates:
            Coordinates               Weight
  0.000000  0.000000  0.000000      1.000000
  0.021791  0.012581  0.000000      6.000000
  0.043583  0.025162  0.000000      6.000000
  0.065374  0.037744  0.000000      6.000000
  0.087165  0.050325  0.000000      6.000000
  0.108956  0.062906  0.000000      6.000000
  0.130748  0.075487  0.000000      6.000000
  0.152539  0.088068  0.000000      6.000000
  0.174330  0.100649  0.000000      6.000000
  0.196121  0.113231  0.000000      6.000000
  0.217913  0.125812  0.000000      3.000000
  0.021791  0.037744  0.000000      6.000000
  0.043583  0.050325  0.000000     12.000000
  0.065374  0.062906  0.000000     12.000000
  0.087165  0.075487  0.000000     12.000000
  0.108956  0.088068  0.000000     12.000000
  0.130748  0.100649  0.000000     12.000000
  0.152539  0.113231  0.000000     12.000000
  0.174330  0.125812  0.000000     12.000000
  0.196121  0.138393  0.000000     12.000000
  0.043583  0.075487  0.000000      6.000000
  0.065374  0.088068  0.000000     12.000000
  0.087165  0.100649  0.000000     12.000000
  0.108956  0.113231  0.000000     12.000000
  0.130748  0.125812  0.000000     12.000000
  0.152539  0.138393  0.000000     12.000000
  0.174330  0.150974  0.000000     12.000000
  0.196121  0.163555  0.000000      6.000000
  0.065374  0.113231  0.000000      6.000000
  0.087165  0.125812  0.000000     12.000000
  0.108956  0.138393  0.000000     12.000000
  0.130748  0.150974  0.000000     12.000000
  0.152539  0.163555  0.000000     12.000000
  0.174330  0.176137  0.000000     12.000000
  0.087165  0.150974  0.000000      6.000000
  0.108956  0.163555  0.000000     12.000000
  0.130748  0.176137  0.000000     12.000000
  0.152539  0.188718  0.000000     12.000000
  0.174330  0.201299  0.000000      6.000000
  0.108956  0.188718  0.000000      6.000000
  0.130748  0.201299  0.000000     12.000000
  0.152539  0.213880  0.000000     12.000000
  0.130748  0.226461  0.000000      6.000000
  0.152539  0.239043  0.000000      6.000000
 
 
 Subroutine IBZKPT_HF returns following result:
 ==============================================
 
 Found    400 k-points in 1st BZ
 the following    400 k-points will be used (e.g. in the exchange kernel)
 Following reciprocal coordinates:   # in IRBZ
  0.000000  0.000000  0.000000    0.00250000   1 t-inv F
  0.050000  0.000000  0.000000    0.00250000   2 t-inv F
  0.100000  0.000000  0.000000    0.00250000   3 t-inv F
  0.150000  0.000000  0.000000    0.00250000   4 t-inv F
  0.200000  0.000000  0.000000    0.00250000   5 t-inv F
  0.250000  0.000000  0.000000    0.00250000   6 t-inv F
  0.300000  0.000000  0.000000    0.00250000   7 t-inv F
  0.350000  0.000000  0.000000    0.00250000   8 t-inv F
  0.400000  0.000000  0.000000    0.00250000   9 t-inv F
  0.450000  0.000000  0.000000    0.00250000  10 t-inv F
  0.500000  0.000000  0.000000    0.00250000  11 t-inv F
  0.050000  0.050000  0.000000    0.00250000  12 t-inv F
  0.100000  0.050000  0.000000    0.00250000  13 t-inv F
  0.150000  0.050000  0.000000    0.00250000  14 t-inv F
  0.200000  0.050000  0.000000    0.00250000  15 t-inv F
  0.250000  0.050000  0.000000    0.00250000  16 t-inv F
  0.300000  0.050000  0.000000    0.00250000  17 t-inv F
  0.350000  0.050000  0.000000    0.00250000  18 t-inv F
  0.400000  0.050000  0.000000    0.00250000  19 t-inv F
  0.450000  0.050000  0.000000    0.00250000  20 t-inv F
  0.100000  0.100000  0.000000    0.00250000  21 t-inv F
  0.150000  0.100000  0.000000    0.00250000  22 t-inv F
  0.200000  0.100000  0.000000    0.00250000  23 t-inv F
  0.250000  0.100000  0.000000    0.00250000  24 t-inv F
  0.300000  0.100000  0.000000    0.00250000  25 t-inv F
  0.350000  0.100000  0.000000    0.00250000  26 t-inv F
  0.400000  0.100000  0.000000    0.00250000  27 t-inv F
  0.450000  0.100000  0.000000    0.00250000  28 t-inv F
  0.150000  0.150000  0.000000    0.00250000  29 t-inv F
  0.200000  0.150000  0.000000    0.00250000  30 t-inv F
  0.250000  0.150000  0.000000    0.00250000  31 t-inv F
  0.300000  0.150000  0.000000    0.00250000  32 t-inv F
  0.350000  0.150000  0.000000    0.00250000  33 t-inv F
  0.400000  0.150000  0.000000    0.00250000  34 t-inv F
  0.200000  0.200000  0.000000    0.00250000  35 t-inv F
  0.250000  0.200000  0.000000    0.00250000  36 t-inv F
  0.300000  0.200000  0.000000    0.00250000  37 t-inv F
  0.350000  0.200000  0.000000    0.00250000  38 t-inv F
  0.400000  0.200000  0.000000    0.00250000  39 t-inv F
  0.250000  0.250000  0.000000    0.00250000  40 t-inv F
  0.300000  0.250000  0.000000    0.00250000  41 t-inv F
  0.350000  0.250000  0.000000    0.00250000  42 t-inv F
  0.300000  0.300000  0.000000    0.00250000  43 t-inv F
  0.350000  0.300000  0.000000    0.00250000  44 t-inv F
 -0.050000  0.050000  0.000000    0.00250000   2 t-inv F
  0.000000 -0.050000  0.000000    0.00250000   2 t-inv F
 -0.050000 -0.000000  0.000000    0.00250000   2 t-inv F
  0.050000 -0.050000  0.000000    0.00250000   2 t-inv F
 -0.000000  0.050000  0.000000    0.00250000   2 t-inv F
 -0.100000  0.100000  0.000000    0.00250000   3 t-inv F
  0.000000 -0.100000  0.000000    0.00250000   3 t-inv F
 -0.100000 -0.000000  0.000000    0.00250000   3 t-inv F
  0.100000 -0.100000  0.000000    0.00250000   3 t-inv F
 -0.000000  0.100000  0.000000    0.00250000   3 t-inv F
 -0.150000  0.150000  0.000000    0.00250000   4 t-inv F
  0.000000 -0.150000  0.000000    0.00250000   4 t-inv F
 -0.150000 -0.000000  0.000000    0.00250000   4 t-inv F
  0.150000 -0.150000  0.000000    0.00250000   4 t-inv F
 -0.000000  0.150000  0.000000    0.00250000   4 t-inv F
 -0.200000  0.200000  0.000000    0.00250000   5 t-inv F
  0.000000 -0.200000  0.000000    0.00250000   5 t-inv F
 -0.200000 -0.000000  0.000000    0.00250000   5 t-inv F
  0.200000 -0.200000  0.000000    0.00250000   5 t-inv F
 -0.000000  0.200000  0.000000    0.00250000   5 t-inv F
 -0.250000  0.250000  0.000000    0.00250000   6 t-inv F
  0.000000 -0.250000  0.000000    0.00250000   6 t-inv F
 -0.250000 -0.000000  0.000000    0.00250000   6 t-inv F
  0.250000 -0.250000  0.000000    0.00250000   6 t-inv F
 -0.000000  0.250000  0.000000    0.00250000   6 t-inv F
 -0.300000  0.300000  0.000000    0.00250000   7 t-inv F
  0.000000 -0.300000  0.000000    0.00250000   7 t-inv F
 -0.300000 -0.000000  0.000000    0.00250000   7 t-inv F
  0.300000 -0.300000  0.000000    0.00250000   7 t-inv F
 -0.000000  0.300000  0.000000    0.00250000   7 t-inv F
 -0.350000  0.350000  0.000000    0.00250000   8 t-inv F
  0.000000 -0.350000  0.000000    0.00250000   8 t-inv F
 -0.350000 -0.000000  0.000000    0.00250000   8 t-inv F
  0.350000 -0.350000  0.000000    0.00250000   8 t-inv F
 -0.000000  0.350000  0.000000    0.00250000   8 t-inv F
 -0.400000  0.400000  0.000000    0.00250000   9 t-inv F
  0.000000 -0.400000  0.000000    0.00250000   9 t-inv F
 -0.400000 -0.000000  0.000000    0.00250000   9 t-inv F
  0.400000 -0.400000  0.000000    0.00250000   9 t-inv F
 -0.000000  0.400000  0.000000    0.00250000   9 t-inv F
 -0.450000  0.450000  0.000000    0.00250000  10 t-inv F
  0.000000 -0.450000  0.000000    0.00250000  10 t-inv F
 -0.450000 -0.000000  0.000000    0.00250000  10 t-inv F
  0.450000 -0.450000  0.000000    0.00250000  10 t-inv F
 -0.000000  0.450000  0.000000    0.00250000  10 t-inv F
 -0.500000  0.500000  0.000000    0.00250000  11 t-inv F
  0.000000 -0.500000  0.000000    0.00250000  11 t-inv F
 -0.100000  0.050000  0.000000    0.00250000  12 t-inv F
  0.050000 -0.100000  0.000000    0.00250000  12 t-inv F
 -0.050000  0.100000  0.000000    0.00250000  12 t-inv F
  0.100000 -0.050000  0.000000    0.00250000  12 t-inv F
 -0.050000 -0.050000  0.000000    0.00250000  12 t-inv F
 -0.150000  0.100000  0.000000    0.00250000  13 t-inv F
  0.050000 -0.150000  0.000000    0.00250000  13 t-inv F
 -0.100000  0.150000  0.000000    0.00250000  13 t-inv F
  0.150000 -0.050000  0.000000    0.00250000  13 t-inv F
 -0.050000 -0.100000  0.000000    0.00250000  13 t-inv F
 -0.100000 -0.050000  0.000000    0.00250000  13 t-inv F
  0.150000 -0.100000  0.000000    0.00250000  13 t-inv F
 -0.050000  0.150000  0.000000    0.00250000  13 t-inv F
  0.100000 -0.150000  0.000000    0.00250000  13 t-inv F
 -0.150000  0.050000  0.000000    0.00250000  13 t-inv F
  0.050000  0.100000  0.000000    0.00250000  13 t-inv F
 -0.200000  0.150000  0.000000    0.00250000  14 t-inv F
  0.050000 -0.200000  0.000000    0.00250000  14 t-inv F
 -0.150000  0.200000  0.000000    0.00250000  14 t-inv F
  0.200000 -0.050000  0.000000    0.00250000  14 t-inv F
 -0.050000 -0.150000  0.000000    0.00250000  14 t-inv F
 -0.150000 -0.050000  0.000000    0.00250000  14 t-inv F
  0.200000 -0.150000  0.000000    0.00250000  14 t-inv F
 -0.050000  0.200000  0.000000    0.00250000  14 t-inv F
  0.150000 -0.200000  0.000000    0.00250000  14 t-inv F
 -0.200000  0.050000  0.000000    0.00250000  14 t-inv F
  0.050000  0.150000  0.000000    0.00250000  14 t-inv F
 -0.250000  0.200000  0.000000    0.00250000  15 t-inv F
  0.050000 -0.250000  0.000000    0.00250000  15 t-inv F
 -0.200000  0.250000  0.000000    0.00250000  15 t-inv F
  0.250000 -0.050000  0.000000    0.00250000  15 t-inv F
 -0.050000 -0.200000  0.000000    0.00250000  15 t-inv F
 -0.200000 -0.050000  0.000000    0.00250000  15 t-inv F
  0.250000 -0.200000  0.000000    0.00250000  15 t-inv F
 -0.050000  0.250000  0.000000    0.00250000  15 t-inv F
  0.200000 -0.250000  0.000000    0.00250000  15 t-inv F
 -0.250000  0.050000  0.000000    0.00250000  15 t-inv F
  0.050000  0.200000  0.000000    0.00250000  15 t-inv F
 -0.300000  0.250000  0.000000    0.00250000  16 t-inv F
  0.050000 -0.300000  0.000000    0.00250000  16 t-inv F
 -0.250000  0.300000  0.000000    0.00250000  16 t-inv F
  0.300000 -0.050000  0.000000    0.00250000  16 t-inv F
 -0.050000 -0.250000  0.000000    0.00250000  16 t-inv F
 -0.250000 -0.050000  0.000000    0.00250000  16 t-inv F
  0.300000 -0.250000  0.000000    0.00250000  16 t-inv F
 -0.050000  0.300000  0.000000    0.00250000  16 t-inv F
  0.250000 -0.300000  0.000000    0.00250000  16 t-inv F
 -0.300000  0.050000  0.000000    0.00250000  16 t-inv F
  0.050000  0.250000  0.000000    0.00250000  16 t-inv F
 -0.350000  0.300000  0.000000    0.00250000  17 t-inv F
  0.050000 -0.350000  0.000000    0.00250000  17 t-inv F
 -0.300000  0.350000  0.000000    0.00250000  17 t-inv F
  0.350000 -0.050000  0.000000    0.00250000  17 t-inv F
 -0.050000 -0.300000  0.000000    0.00250000  17 t-inv F
 -0.300000 -0.050000  0.000000    0.00250000  17 t-inv F
  0.350000 -0.300000  0.000000    0.00250000  17 t-inv F
 -0.050000  0.350000  0.000000    0.00250000  17 t-inv F
  0.300000 -0.350000  0.000000    0.00250000  17 t-inv F
 -0.350000  0.050000  0.000000    0.00250000  17 t-inv F
  0.050000  0.300000  0.000000    0.00250000  17 t-inv F
 -0.400000  0.350000  0.000000    0.00250000  18 t-inv F
  0.050000 -0.400000  0.000000    0.00250000  18 t-inv F
 -0.350000  0.400000  0.000000    0.00250000  18 t-inv F
  0.400000 -0.050000  0.000000    0.00250000  18 t-inv F
 -0.050000 -0.350000  0.000000    0.00250000  18 t-inv F
 -0.350000 -0.050000  0.000000    0.00250000  18 t-inv F
  0.400000 -0.350000  0.000000    0.00250000  18 t-inv F
 -0.050000  0.400000  0.000000    0.00250000  18 t-inv F
  0.350000 -0.400000  0.000000    0.00250000  18 t-inv F
 -0.400000  0.050000  0.000000    0.00250000  18 t-inv F
  0.050000  0.350000  0.000000    0.00250000  18 t-inv F
 -0.450000  0.400000  0.000000    0.00250000  19 t-inv F
  0.050000 -0.450000  0.000000    0.00250000  19 t-inv F
 -0.400000  0.450000  0.000000    0.00250000  19 t-inv F
  0.450000 -0.050000  0.000000    0.00250000  19 t-inv F
 -0.050000 -0.400000  0.000000    0.00250000  19 t-inv F
 -0.400000 -0.050000  0.000000    0.00250000  19 t-inv F
  0.450000 -0.400000  0.000000    0.00250000  19 t-inv F
 -0.050000  0.450000  0.000000    0.00250000  19 t-inv F
  0.400000 -0.450000  0.000000    0.00250000  19 t-inv F
 -0.450000  0.050000  0.000000    0.00250000  19 t-inv F
  0.050000  0.400000  0.000000    0.00250000  19 t-inv F
 -0.500000  0.450000  0.000000    0.00250000  20 t-inv F
  0.050000 -0.500000  0.000000    0.00250000  20 t-inv F
 -0.450000  0.500000  0.000000    0.00250000  20 t-inv F
  0.500000 -0.050000  0.000000    0.00250000  20 t-inv F
 -0.050000 -0.450000  0.000000    0.00250000  20 t-inv F
 -0.450000 -0.050000  0.000000    0.00250000  20 t-inv F
  0.500000 -0.450000  0.000000    0.00250000  20 t-inv F
 -0.050000  0.500000  0.000000    0.00250000  20 t-inv F
  0.450000 -0.500000  0.000000    0.00250000  20 t-inv F
 -0.500000  0.050000  0.000000    0.00250000  20 t-inv F
  0.050000  0.450000  0.000000    0.00250000  20 t-inv F
 -0.200000  0.100000  0.000000    0.00250000  21 t-inv F
  0.100000 -0.200000  0.000000    0.00250000  21 t-inv F
 -0.100000  0.200000  0.000000    0.00250000  21 t-inv F
  0.200000 -0.100000  0.000000    0.00250000  21 t-inv F
 -0.100000 -0.100000  0.000000    0.00250000  21 t-inv F
 -0.250000  0.150000  0.000000    0.00250000  22 t-inv F
  0.100000 -0.250000  0.000000    0.00250000  22 t-inv F
 -0.150000  0.250000  0.000000    0.00250000  22 t-inv F
  0.250000 -0.100000  0.000000    0.00250000  22 t-inv F
 -0.100000 -0.150000  0.000000    0.00250000  22 t-inv F
 -0.150000 -0.100000  0.000000    0.00250000  22 t-inv F
  0.250000 -0.150000  0.000000    0.00250000  22 t-inv F
 -0.100000  0.250000  0.000000    0.00250000  22 t-inv F
  0.150000 -0.250000  0.000000    0.00250000  22 t-inv F
 -0.250000  0.100000  0.000000    0.00250000  22 t-inv F
  0.100000  0.150000  0.000000    0.00250000  22 t-inv F
 -0.300000  0.200000  0.000000    0.00250000  23 t-inv F
  0.100000 -0.300000  0.000000    0.00250000  23 t-inv F
 -0.200000  0.300000  0.000000    0.00250000  23 t-inv F
  0.300000 -0.100000  0.000000    0.00250000  23 t-inv F
 -0.100000 -0.200000  0.000000    0.00250000  23 t-inv F
 -0.200000 -0.100000  0.000000    0.00250000  23 t-inv F
  0.300000 -0.200000  0.000000    0.00250000  23 t-inv F
 -0.100000  0.300000  0.000000    0.00250000  23 t-inv F
  0.200000 -0.300000  0.000000    0.00250000  23 t-inv F
 -0.300000  0.100000  0.000000    0.00250000  23 t-inv F
  0.100000  0.200000  0.000000    0.00250000  23 t-inv F
 -0.350000  0.250000  0.000000    0.00250000  24 t-inv F
  0.100000 -0.350000  0.000000    0.00250000  24 t-inv F
 -0.250000  0.350000  0.000000    0.00250000  24 t-inv F
  0.350000 -0.100000  0.000000    0.00250000  24 t-inv F
 -0.100000 -0.250000  0.000000    0.00250000  24 t-inv F
 -0.250000 -0.100000  0.000000    0.00250000  24 t-inv F
  0.350000 -0.250000  0.000000    0.00250000  24 t-inv F
 -0.100000  0.350000  0.000000    0.00250000  24 t-inv F
  0.250000 -0.350000  0.000000    0.00250000  24 t-inv F
 -0.350000  0.100000  0.000000    0.00250000  24 t-inv F
  0.100000  0.250000  0.000000    0.00250000  24 t-inv F
 -0.400000  0.300000  0.000000    0.00250000  25 t-inv F
  0.100000 -0.400000  0.000000    0.00250000  25 t-inv F
 -0.300000  0.400000  0.000000    0.00250000  25 t-inv F
  0.400000 -0.100000  0.000000    0.00250000  25 t-inv F
 -0.100000 -0.300000  0.000000    0.00250000  25 t-inv F
 -0.300000 -0.100000  0.000000    0.00250000  25 t-inv F
  0.400000 -0.300000  0.000000    0.00250000  25 t-inv F
 -0.100000  0.400000  0.000000    0.00250000  25 t-inv F
  0.300000 -0.400000  0.000000    0.00250000  25 t-inv F
 -0.400000  0.100000  0.000000    0.00250000  25 t-inv F
  0.100000  0.300000  0.000000    0.00250000  25 t-inv F
 -0.450000  0.350000  0.000000    0.00250000  26 t-inv F
  0.100000 -0.450000  0.000000    0.00250000  26 t-inv F
 -0.350000  0.450000  0.000000    0.00250000  26 t-inv F
  0.450000 -0.100000  0.000000    0.00250000  26 t-inv F
 -0.100000 -0.350000  0.000000    0.00250000  26 t-inv F
 -0.350000 -0.100000  0.000000    0.00250000  26 t-inv F
  0.450000 -0.350000  0.000000    0.00250000  26 t-inv F
 -0.100000  0.450000  0.000000    0.00250000  26 t-inv F
  0.350000 -0.450000  0.000000    0.00250000  26 t-inv F
 -0.450000  0.100000  0.000000    0.00250000  26 t-inv F
  0.100000  0.350000  0.000000    0.00250000  26 t-inv F
 -0.500000  0.400000  0.000000    0.00250000  27 t-inv F
  0.100000 -0.500000  0.000000    0.00250000  27 t-inv F
 -0.400000  0.500000  0.000000    0.00250000  27 t-inv F
  0.500000 -0.100000  0.000000    0.00250000  27 t-inv F
 -0.100000 -0.400000  0.000000    0.00250000  27 t-inv F
 -0.400000 -0.100000  0.000000    0.00250000  27 t-inv F
  0.500000 -0.400000  0.000000    0.00250000  27 t-inv F
 -0.100000  0.500000  0.000000    0.00250000  27 t-inv F
  0.400000 -0.500000  0.000000    0.00250000  27 t-inv F
 -0.500000  0.100000  0.000000    0.00250000  27 t-inv F
  0.100000  0.400000  0.000000    0.00250000  27 t-inv F
 -0.550000  0.450000  0.000000    0.00250000  28 t-inv F
  0.100000 -0.550000  0.000000    0.00250000  28 t-inv F
 -0.450000  0.550000  0.000000    0.00250000  28 t-inv F
  0.550000 -0.100000  0.000000    0.00250000  28 t-inv F
 -0.100000 -0.450000  0.000000    0.00250000  28 t-inv F
 -0.300000  0.150000  0.000000    0.00250000  29 t-inv F
  0.150000 -0.300000  0.000000    0.00250000  29 t-inv F
 -0.150000  0.300000  0.000000    0.00250000  29 t-inv F
  0.300000 -0.150000  0.000000    0.00250000  29 t-inv F
 -0.150000 -0.150000  0.000000    0.00250000  29 t-inv F
 -0.350000  0.200000  0.000000    0.00250000  30 t-inv F
  0.150000 -0.350000  0.000000    0.00250000  30 t-inv F
 -0.200000  0.350000  0.000000    0.00250000  30 t-inv F
  0.350000 -0.150000  0.000000    0.00250000  30 t-inv F
 -0.150000 -0.200000  0.000000    0.00250000  30 t-inv F
 -0.200000 -0.150000  0.000000    0.00250000  30 t-inv F
  0.350000 -0.200000  0.000000    0.00250000  30 t-inv F
 -0.150000  0.350000  0.000000    0.00250000  30 t-inv F
  0.200000 -0.350000  0.000000    0.00250000  30 t-inv F
 -0.350000  0.150000  0.000000    0.00250000  30 t-inv F
  0.150000  0.200000  0.000000    0.00250000  30 t-inv F
 -0.400000  0.250000  0.000000    0.00250000  31 t-inv F
  0.150000 -0.400000  0.000000    0.00250000  31 t-inv F
 -0.250000  0.400000  0.000000    0.00250000  31 t-inv F
  0.400000 -0.150000  0.000000    0.00250000  31 t-inv F
 -0.150000 -0.250000  0.000000    0.00250000  31 t-inv F
 -0.250000 -0.150000  0.000000    0.00250000  31 t-inv F
  0.400000 -0.250000  0.000000    0.00250000  31 t-inv F
 -0.150000  0.400000  0.000000    0.00250000  31 t-inv F
  0.250000 -0.400000  0.000000    0.00250000  31 t-inv F
 -0.400000  0.150000  0.000000    0.00250000  31 t-inv F
  0.150000  0.250000  0.000000    0.00250000  31 t-inv F
 -0.450000  0.300000  0.000000    0.00250000  32 t-inv F
  0.150000 -0.450000  0.000000    0.00250000  32 t-inv F
 -0.300000  0.450000  0.000000    0.00250000  32 t-inv F
  0.450000 -0.150000  0.000000    0.00250000  32 t-inv F
 -0.150000 -0.300000  0.000000    0.00250000  32 t-inv F
 -0.300000 -0.150000  0.000000    0.00250000  32 t-inv F
  0.450000 -0.300000  0.000000    0.00250000  32 t-inv F
 -0.150000  0.450000  0.000000    0.00250000  32 t-inv F
  0.300000 -0.450000  0.000000    0.00250000  32 t-inv F
 -0.450000  0.150000  0.000000    0.00250000  32 t-inv F
  0.150000  0.300000  0.000000    0.00250000  32 t-inv F
 -0.500000  0.350000  0.000000    0.00250000  33 t-inv F
  0.150000 -0.500000  0.000000    0.00250000  33 t-inv F
 -0.350000  0.500000  0.000000    0.00250000  33 t-inv F
  0.500000 -0.150000  0.000000    0.00250000  33 t-inv F
 -0.150000 -0.350000  0.000000    0.00250000  33 t-inv F
 -0.350000 -0.150000  0.000000    0.00250000  33 t-inv F
  0.500000 -0.350000  0.000000    0.00250000  33 t-inv F
 -0.150000  0.500000  0.000000    0.00250000  33 t-inv F
  0.350000 -0.500000  0.000000    0.00250000  33 t-inv F
 -0.500000  0.150000  0.000000    0.00250000  33 t-inv F
  0.150000  0.350000  0.000000    0.00250000  33 t-inv F
 -0.550000  0.400000  0.000000    0.00250000  34 t-inv F
  0.150000 -0.550000  0.000000    0.00250000  34 t-inv F
 -0.400000  0.550000  0.000000    0.00250000  34 t-inv F
  0.550000 -0.150000  0.000000    0.00250000  34 t-inv F
 -0.150000 -0.400000  0.000000    0.00250000  34 t-inv F
 -0.400000 -0.150000  0.000000    0.00250000  34 t-inv F
  0.550000 -0.400000  0.000000    0.00250000  34 t-inv F
 -0.150000  0.550000  0.000000    0.00250000  34 t-inv F
  0.400000 -0.550000  0.000000    0.00250000  34 t-inv F
 -0.550000  0.150000  0.000000    0.00250000  34 t-inv F
  0.150000  0.400000  0.000000    0.00250000  34 t-inv F
 -0.400000  0.200000  0.000000    0.00250000  35 t-inv F
  0.200000 -0.400000  0.000000    0.00250000  35 t-inv F
 -0.200000  0.400000  0.000000    0.00250000  35 t-inv F
  0.400000 -0.200000  0.000000    0.00250000  35 t-inv F
 -0.200000 -0.200000  0.000000    0.00250000  35 t-inv F
 -0.450000  0.250000  0.000000    0.00250000  36 t-inv F
  0.200000 -0.450000  0.000000    0.00250000  36 t-inv F
 -0.250000  0.450000  0.000000    0.00250000  36 t-inv F
  0.450000 -0.200000  0.000000    0.00250000  36 t-inv F
 -0.200000 -0.250000  0.000000    0.00250000  36 t-inv F
 -0.250000 -0.200000  0.000000    0.00250000  36 t-inv F
  0.450000 -0.250000  0.000000    0.00250000  36 t-inv F
 -0.200000  0.450000  0.000000    0.00250000  36 t-inv F
  0.250000 -0.450000  0.000000    0.00250000  36 t-inv F
 -0.450000  0.200000  0.000000    0.00250000  36 t-inv F
  0.200000  0.250000  0.000000    0.00250000  36 t-inv F
 -0.500000  0.300000  0.000000    0.00250000  37 t-inv F
  0.200000 -0.500000  0.000000    0.00250000  37 t-inv F
 -0.300000  0.500000  0.000000    0.00250000  37 t-inv F
  0.500000 -0.200000  0.000000    0.00250000  37 t-inv F
 -0.200000 -0.300000  0.000000    0.00250000  37 t-inv F
 -0.300000 -0.200000  0.000000    0.00250000  37 t-inv F
  0.500000 -0.300000  0.000000    0.00250000  37 t-inv F
 -0.200000  0.500000  0.000000    0.00250000  37 t-inv F
  0.300000 -0.500000  0.000000    0.00250000  37 t-inv F
 -0.500000  0.200000  0.000000    0.00250000  37 t-inv F
  0.200000  0.300000  0.000000    0.00250000  37 t-inv F
 -0.550000  0.350000  0.000000    0.00250000  38 t-inv F
  0.200000 -0.550000  0.000000    0.00250000  38 t-inv F
 -0.350000  0.550000  0.000000    0.00250000  38 t-inv F
  0.550000 -0.200000  0.000000    0.00250000  38 t-inv F
 -0.200000 -0.350000  0.000000    0.00250000  38 t-inv F
 -0.350000 -0.200000  0.000000    0.00250000  38 t-inv F
  0.550000 -0.350000  0.000000    0.00250000  38 t-inv F
 -0.200000  0.550000  0.000000    0.00250000  38 t-inv F
  0.350000 -0.550000  0.000000    0.00250000  38 t-inv F
 -0.550000  0.200000  0.000000    0.00250000  38 t-inv F
  0.200000  0.350000  0.000000    0.00250000  38 t-inv F
 -0.600000  0.400000  0.000000    0.00250000  39 t-inv F
  0.200000 -0.600000  0.000000    0.00250000  39 t-inv F
 -0.400000  0.600000  0.000000    0.00250000  39 t-inv F
  0.600000 -0.200000  0.000000    0.00250000  39 t-inv F
 -0.200000 -0.400000  0.000000    0.00250000  39 t-inv F
 -0.500000  0.250000  0.000000    0.00250000  40 t-inv F
  0.250000 -0.500000  0.000000    0.00250000  40 t-inv F
 -0.250000  0.500000  0.000000    0.00250000  40 t-inv F
  0.500000 -0.250000  0.000000    0.00250000  40 t-inv F
 -0.250000 -0.250000  0.000000    0.00250000  40 t-inv F
 -0.550000  0.300000  0.000000    0.00250000  41 t-inv F
  0.250000 -0.550000  0.000000    0.00250000  41 t-inv F
 -0.300000  0.550000  0.000000    0.00250000  41 t-inv F
  0.550000 -0.250000  0.000000    0.00250000  41 t-inv F
 -0.250000 -0.300000  0.000000    0.00250000  41 t-inv F
 -0.300000 -0.250000  0.000000    0.00250000  41 t-inv F
  0.550000 -0.300000  0.000000    0.00250000  41 t-inv F
 -0.250000  0.550000  0.000000    0.00250000  41 t-inv F
  0.300000 -0.550000  0.000000    0.00250000  41 t-inv F
 -0.550000  0.250000  0.000000    0.00250000  41 t-inv F
  0.250000  0.300000  0.000000    0.00250000  41 t-inv F
 -0.600000  0.350000  0.000000    0.00250000  42 t-inv F
  0.250000 -0.600000  0.000000    0.00250000  42 t-inv F
 -0.350000  0.600000  0.000000    0.00250000  42 t-inv F
  0.600000 -0.250000  0.000000    0.00250000  42 t-inv F
 -0.250000 -0.350000  0.000000    0.00250000  42 t-inv F
 -0.350000 -0.250000  0.000000    0.00250000  42 t-inv F
  0.600000 -0.350000  0.000000    0.00250000  42 t-inv F
 -0.250000  0.600000  0.000000    0.00250000  42 t-inv F
  0.350000 -0.600000  0.000000    0.00250000  42 t-inv F
 -0.600000  0.250000  0.000000    0.00250000  42 t-inv F
  0.250000  0.350000  0.000000    0.00250000  42 t-inv F
 -0.600000  0.300000  0.000000    0.00250000  43 t-inv F
  0.300000 -0.600000  0.000000    0.00250000  43 t-inv F
 -0.300000  0.600000  0.000000    0.00250000  43 t-inv F
  0.600000 -0.300000  0.000000    0.00250000  43 t-inv F
 -0.300000 -0.300000  0.000000    0.00250000  43 t-inv F
 -0.650000  0.350000  0.000000    0.00250000  44 t-inv F
  0.300000 -0.650000  0.000000    0.00250000  44 t-inv F
 -0.350000  0.650000  0.000000    0.00250000  44 t-inv F
  0.650000 -0.300000  0.000000    0.00250000  44 t-inv F
 -0.300000 -0.350000  0.000000    0.00250000  44 t-inv F


--------------------------------------------------------------------------------------------------------




 Dimension of arrays:
   k-points           NKPTS =     44   k-points in BZ     NKDIM =     44   number of bands    NBANDS=     16
   number of dos      NEDOS =   6001   number of ions     NIONS =      2
   non local maximal  LDIM  =      4   non local SUM 2l+1 LMDIM =      8
   total plane-waves  NPLWV =  46080
   max r-space proj   IRMAX =      1   max aug-charges    IRDMAX=  24124
   dimension x,y,z NGX =    16 NGY =   16 NGZ =  180
   dimension x,y,z NGXF=    32 NGYF=   32 NGZF=  360
   support grid    NGXF=    64 NGYF=   64 NGZF=  720
   ions per type =               2
   NGX,Y,Z   is equivalent  to a cutoff of  11.59, 11.59, 12.47 a.u.
   NGXF,Y,Z  is equivalent  to a cutoff of  23.19, 23.19, 24.94 a.u.

 SYSTEM =  unknown system                          
 POSCAR =  pnictogen honeycomb monolayer           

 Startparameter for this run:
   NWRITE =      1    write-flag & timer
   PREC   = accura    normal or accurate (medium, high low for compatibility)
   ISTART =      0    job   : 0-new  1-cont  2-samecut
   ICHARG =      2    charge: 1-file 2-atom 10-const
   ISPIN  =      1    spin polarized calculation?
   LNONCOLLINEAR =      F non collinear calculations
   LSORBIT =      F    spin-orbit coupling
   INIWAV =      1    electr: 0-lowe 1-rand  2-diag
   LASPH  =      T    aspherical Exc in radial PAW
 Electronic Relaxation 1
   ENCUT  =  473.5 eV  34.80 Ry    5.90 a.u.   4.07  4.07 42.58*2*pi/ulx,y,z
   ENINI  =  473.5     initial cutoff
   ENAUG  =  904.6 eV  augmentation charge cutoff
   NELM   =    200;   NELMIN=  6; NELMDL=-12     # of ELM steps 
   EDIFF  = 0.1E-05   stopping-criterion for ELM
   LREAL  =      F    real-space projection
   NLSPLINE    = F    spline interpolate recip. space projectors
   LCOMPAT=      F    compatible to vasp.4.4
   GGA_COMPAT  = T    GGA compatible to vasp.4.4-vasp.4.6
   LMAXPAW     = -100 max onsite density
   LMAXMIX     =    2 max onsite mixed and CHGCAR
   VOSKOWN=      0    Vosko Wilk Nusair interpolation
   ROPT   =    0.00000
 Ionic relaxation
   EDIFFG = -.1E-01   stopping-criterion for IOM
   NSW    =      0    number of steps for IOM
   NBLOCK =      1;   KBLOCK =      1    inner block; outer block 
   IBRION =     -1    ionic relax: 0-MD 1-quasi-New 2-CG
   NFREE  =      1    steps in history (QN), initial steepest desc. (CG)
   ISIF   =     -1    stress and relaxation
   IWAVPR =     10    prediction:  0-non 1-charg 2-wave 3-comb
   ISYM   =      2    0-nonsym 1-usesym 2-fastsym
   LCORR  =      T    Harris-Foulkes like correction to forces

   POTIM  = 0.5000    time-step for ionic-motion
   TEIN   =    0.0    initial temperature
   TEBEG  =    0.0;   TEEND  =   0.0 temperature during run
   SMASS  =  -3.00    Nose mass-parameter (am)
   estimated Nose-frequenzy (Omega)   =  0.10E-29 period in steps = 0.13E+47 mass=  -0.120E-27a.u.
   SCALEE = 1.0000    scale energy and forces
   NPACO  =    256;   APACO  = 10.0  distance and # of slots for P.C.
   PSTRESS=    0.0 pullay stress

  Mass of Ions in am
   POMASS =  14.00
  Ionic Valenz
   ZVAL   =   5.00
  Atomic Wigner-Seitz radii
   RWIGS  =  -1.00
  virtual crystal weights 
   VCA    =   1.00
   NELECT =      10.0000    total number of electrons
   NUPDOWN=      -1.0000    fix difference up-down

 DOS related values:
   EMIN   =  10.00;   EMAX   =-10.00  energy-range for DOS
   EFERMI =   0.00;   METHOD = LEGACY      
   ISMEAR =     0;   SIGMA  =   0.01  broadening in eV -4-tet -1-fermi 0-gaus

 Electronic relaxation 2 (details)
   IALGO  =     38    algorithm
   LDIAG  =      T    sub-space diagonalisation (order eigenvalues)
   LSUBROT=      F    optimize rotation matrix (better conditioning)
   TURBO    =      0    0=normal 1=particle mesh
   IRESTART =      0    0=no restart 2=restart with 2 vectors
   NREBOOT  =      0    no. of reboots
   NMIN     =      0    reboot dimension
   EREF     =   0.00    reference energy to select bands
   IMIX   =      4    mixing-type and parameters
     AMIX     =   0.10;   BMIX     =  0.00
     AMIX_MAG =   0.40;   BMIX_MAG =  0.00
     AMIN     =   0.10
     WC   =   100.;   INIMIX=   1;  MIXPRE=   1;  MAXMIX= -45

 Intra band minimization:
   WEIMIN = 0.0000     energy-eigenvalue tresh-hold
   EBREAK =  0.16E-07  absolut break condition
   DEPER  =   0.30     relativ break condition  

   TIME   =   0.40     timestep for ELM

  volume/ion in A,a.u.               =      54.71       369.22
  Fermi-wavevector in a.u.,A,eV,Ry     =   0.737399  1.393481  7.398260  0.543757
  Thomas-Fermi vector in A             =   1.831070
 
 Write flags
   LWAVE        =      F    write WAVECAR
   LDOWNSAMPLE  =      F    k-point downsampling of WAVECAR
   LCHARG       =      F    write CHGCAR
   LVTOT        =      F    write LOCPOT, total local potential
   LVHAR        =      F    write LOCPOT, Hartree potential only
   LELF         =      F    write electronic localiz. function (ELF)
   LORBIT       =     10    0 simple, 1 ext, 2 COOP (PROOUT), +10 PAW based schemes


 Dipole corrections
   LMONO  =      F    monopole corrections only (constant potential shift)
   LDIPOL =      F    correct potential (dipole corrections)
   IDIPOL =      0    1-x, 2-y, 3-z, 4-all directions 
   EPSILON=  1.0000000 bulk dielectric constant

 Exchange correlation treatment:
   GGA     =    --    GGA type
   LEXCH   =     8    internal setting for exchange type
   LIBXC   =     F    Libxc                    
   VOSKOWN =     0    Vosko Wilk Nusair interpolation
   LHFCALC =     F    Hartree Fock is set to
   LHFONE  =     F    Hartree Fock one center treatment
   AEXX    =    0.0000 exact exchange contribution

 Linear response parameters
   LEPSILON=     T    determine dielectric tensor
   LRPA    =     F    only Hartree local field effects (RPA)
   LNABLA  =     F    use nabla operator in PAW spheres
   LVEL    =     F    velocity operator in full k-point grid
   CSHIFT  =0.1000    complex shift for real part using Kramers Kronig
   OMEGAMAX=  -1.0    maximum frequency
   DEG_THRESHOLD= 0.2000000E-02 threshold for treating states as degnerate
   RTIME   =   -0.100 relaxation time in fs
  (WPLASMAI=    0.000 imaginary part of plasma frequency in eV, 0.658/RTIME)
   DFIELD  = 0.0000000 0.0000000 0.0000000 field for delta impulse in time
 
  Optional k-point grid parameters
   LKPOINTS_OPT  =     F    use optional k-point grid
   KPOINTS_OPT_MODE=     1    mode for optional k-point grid
 
 Orbital magnetization related:
   ORBITALMAG=     F  switch on orbital magnetization
   LCHIMAG   =     F  perturbation theory with respect to B field
   DQ        =  0.001000  dq finite difference perturbation B field
   LLRAUG    =     F  two centre corrections for induced B field
   LBONE     =     F  B-component reconstruction in AE one-centre
   LVGVCALC  =     T  calculate vGv susceptibility
   LVGVAPPL  =     F  apply vGv susceptibility instead of pGv for G=0

 Random number generation:
   RANDOM_GENERATOR = DEFAULT
   PCG_SEED         = not used


--------------------------------------------------------------------------------------------------------


 Static calculation
 charge density and potential will be updated during run
 non-spin polarized calculation
 Variant of blocked Davidson
 Davidson routine will perform the subspace rotation
 perform sub-space diagonalisation
    after iterative eigenvector-optimisation
 modified Broyden-mixing scheme, WC =      100.0
 initial mixing is a Kerker type mixing with AMIX =  0.1000 and BMIX =      0.0001
 Hartree-type preconditioning will be used
 using additional bands           11
 reciprocal scheme for non local part
 calculate Harris-corrections to forces 
   (improved forces if not selfconsistent)
 use gradient corrections 
 use of overlap-Matrix (Vanderbilt PP)
 Gauss-broadening in eV      SIGMA  =   0.01


--------------------------------------------------------------------------------------------------------


  energy-cutoff  :      473.51
  volume of cell :      109.43
      direct lattice vectors                 reciprocal lattice vectors
     2.294498682  0.000000000  0.000000000     0.435825049  0.251623709  0.000000000
    -1.147249341  1.987094148  0.000000000     0.000000000  0.503247418  0.000000000
     0.000000000  0.000000000 24.000000000     0.000000000  0.000000000  0.041666667

  length of vectors
     2.294498682  2.294498682 24.000000000     0.503247418  0.503247418  0.041666667


 
 k-points in units of 2pi/SCALE and weight: kpoints                                 
   0.00000000  0.00000000  0.00000000       0.003
   0.02179125  0.01258119  0.00000000       0.015
   0.04358250  0.02516237  0.00000000       0.015
   0.06537376  0.03774356  0.00000000       0.015
   0.08716501  0.05032474  0.00000000       0.015
   0.10895626  0.06290593  0.00000000       0.015
   0.13074751  0.07548711  0.00000000       0.015
   0.15253877  0.08806830  0.00000000       0.015
   0.17433002  0.10064948  0.00000000       0.015
   0.19612127  0.11323067  0.00000000       0.015
   0.21791252  0.12581185  0.00000000       0.007
   0.02179125  0.03774356  0.00000000       0.015
   0.04358250  0.05032474  0.00000000       0.030
   0.06537376  0.06290593  0.00000000       0.030
   0.08716501  0.07548711  0.00000000       0.030
   0.10895626  0.08806830  0.00000000       0.030
   0.13074751  0.10064948  0.00000000       0.030
   0.15253877  0.11323067  0.00000000       0.030
   0.17433002  0.12581185  0.00000000       0.030
   0.19612127  0.13839304  0.00000000       0.030
   0.04358250  0.07548711  0.00000000       0.015
   0.06537376  0.08806830  0.00000000       0.030
   0.08716501  0.10064948  0.00000000       0.030
   0.10895626  0.11323067  0.00000000       0.030
   0.13074751  0.12581185  0.00000000       0.030
   0.15253877  0.13839304  0.00000000       0.030
   0.17433002  0.15097423  0.00000000       0.030
   0.19612127  0.16355541  0.00000000       0.015
   0.06537376  0.11323067  0.00000000       0.015
   0.08716501  0.12581185  0.00000000       0.030
   0.10895626  0.13839304  0.00000000       0.030
   0.13074751  0.15097423  0.00000000       0.030
   0.15253877  0.16355541  0.00000000       0.030
   0.17433002  0.17613660  0.00000000       0.030
   0.08716501  0.15097423  0.00000000       0.015
   0.10895626  0.16355541  0.00000000       0.030
   0.13074751  0.17613660  0.00000000       0.030
   0.15253877  0.18871778  0.00000000       0.030
   0.17433002  0.20129897  0.00000000       0.015
   0.10895626  0.18871778  0.00000000       0.015
   0.13074751  0.20129897  0.00000000       0.030
   0.15253877  0.21388015  0.00000000       0.030
   0.13074751  0.22646134  0.00000000       0.015
   0.15253877  0.23904252  0.00000000       0.015
 
 k-points in reciprocal lattice and weights: kpoints                                 
   0.00000000  0.00000000  0.00000000       0.003
   0.05000000  0.00000000  0.00000000       0.015
   0.10000000  0.00000000  0.00000000       0.015
   0.15000000  0.00000000  0.00000000       0.015
   0.20000000  0.00000000  0.00000000       0.015
   0.25000000  0.00000000  0.00000000       0.015
   0.30000000  0.00000000  0.00000000       0.015
   0.35000000  0.00000000  0.00000000       0.015
   0.40000000  0.00000000  0.00000000       0.015
   0.45000000  0.00000000  0.00000000       0.015
   0.50000000  0.00000000  0.00000000       0.007
   0.05000000  0.05000000  0.00000000       0.015
   0.10000000  0.05000000  0.00000000       0.030
   0.15000000  0.05000000  0.00000000       0.030
   0.20000000  0.05000000  0.00000000       0.030
   0.25000000  0.05000000  0.00000000       0.030
   0.30000000  0.05000000  0.00000000       0.030
   0.35000000  0.05000000  0.00000000       0.030
   0.40000000  0.05000000  0.00000000       0.030
   0.45000000  0.05000000  0.00000000       0.030
   0.10000000  0.10000000  0.00000000       0.015
   0.15000000  0.10000000  0.00000000       0.030
   0.20000000  0.10000000  0.00000000       0.030
   0.25000000  0.10000000  0.00000000       0.030
   0.30000000  0.10000000  0.00000000       0.030
   0.35000000  0.10000000  0.00000000       0.030
   0.40000000  0.10000000  0.00000000       0.030
   0.45000000  0.10000000  0.00000000       0.015
   0.15000000  0.15000000  0.00000000       0.015
   0.20000000  0.15000000  0.00000000       0.030
   0.25000000  0.15000000  0.00000000       0.030
   0.30000000  0.15000000  0.00000000       0.030
   0.35000000  0.15000000  0.00000000       0.030
   0.40000000  0.15000000  0.00000000       0.030
   0.20000000  0.20000000  0.00000000       0.015
   0.25000000  0.20000000  0.00000000       0.030
   0.30000000  0.20000000  0.00000000       0.030
   0.35000000  0.20000000  0.00000000       0.030
   0.40000000  0.20000000  0.00000000       0.015
   0.25000000  0.25000000  0.00000000       0.015
   0.30000000  0.25000000  0.00000000       0.030
   0.35000000  0.25000000  0.00000000       0.030
   0.30000000  0.30000000  0.00000000       0.015
   0.35000000  0.30000000  0.00000000       0.015
 
 position of ions in fractional coordinates (direct lattice) 
   0.66666669  0.33333334  0.31881458
   0.33333334  0.66666669  0.34785211
 
 position of ions in cartesian coordinates  (Angst):
   1.14724937  0.66236474  7.65154982
   0.00000000  1.32472947  8.34845066
 


--------------------------------------------------------------------------------------------------------


 k-point   1 :   0.0000 0.0000 0.0000  plane waves:    2491
 k-point   2 :   0.0500 0.0000 0.0000  plane waves:    2471
 k-point   3 :   0.1000 0.0000 0.0000  plane waves:    2483
 k-point   4 :   0.1500 0.0000 0.0000  plane waves:    2517
 k-point   5 :   0.2000 0.0000 0.0000  plane waves:    2545
 k-point   6 :   0.2500 0.0000 0.0000  plane waves:    2549
 k-point   7 :   0.3000 0.0000 0.0000  plane waves:    2561
 k-point   8 :   0.3500 0.0000 0.0000  plane waves:    2569
 k-point   9 :   0.4000 0.0000 0.0000  plane waves:    2581
 k-point  10 :   0.4500 0.0000 0.0000  plane waves:    2577
 k-point  11 :   0.5000 0.0000 0.0000  plane waves:    2592
 k-point  12 :   0.0500 0.0500 0.0000  plane waves:    2470
 k-point  13 :   0.1000 0.0500 0.0000  plane waves:    2498
 k-point  14 :   0.1500 0.0500 0.0000  plane waves:    2530
 k-point  15 :   0.2000 0.0500 0.0000  plane waves:    2554
 k-point  16 :   0.2500 0.0500 0.0000  plane waves:    2572
 k-point  17 :   0.3000 0.0500 0.0000  plane waves:    2570
 k-point  18 :   0.3500 0.0500 0.0000  plane waves:    2579
 k-point  19 :   0.4000 0.0500 0.0000  plane waves:    2577
 k-point  20 :   0.4500 0.0500 0.0000  plane waves:    2576
 k-point  21 :   0.1000 0.1000 0.0000  plane waves:    2528
 k-point  22 :   0.1500 0.1000 0.0000  plane waves:    2532
 k-point  23 :   0.2000 0.1000 0.0000  plane waves:    2555
 k-point  24 :   0.2500 0.1000 0.0000  plane waves:    2567
 k-point  25 :   0.3000 0.1000 0.0000  plane waves:    2573
 k-point  26 :   0.3500 0.1000 0.0000  plane waves:    2575
 k-point  27 :   0.4000 0.1000 0.0000  plane waves:    2581
 k-point  28 :   0.4500 0.1000 0.0000  plane waves:    2588
 k-point  29 :   0.1500 0.1500 0.0000  plane waves:    2552
 k-point  30 :   0.2000 0.1500 0.0000  plane waves:    2555
 k-point  31 :   0.2500 0.1500 0.0000  plane waves:    2575
 k-point  32 :   0.3000 0.1500 0.0000  plane waves:    2579
 k-point  33 :   0.3500 0.1500 0.0000  plane waves:    2577
 k-point  34 :   0.4000 0.1500 0.0000  plane waves:    2581
 k-point  35 :   0.2000 0.2000 0.0000  plane waves:    2560
 k-point  36 :   0.2500 0.2000 0.0000  plane waves:    2575
 k-point  37 :   0.3000 0.2000 0.0000  plane waves:    2575
 k-point  38 :   0.3500 0.2000 0.0000  plane waves:    2583
 k-point  39 :   0.4000 0.2000 0.0000  plane waves:    2580
 k-point  40 :   0.2500 0.2500 0.0000  plane waves:    2570
 k-point  41 :   0.3000 0.2500 0.0000  plane waves:    2575
 k-point  42 :   0.3500 0.2500 0.0000  plane waves:    2575
 k-point  43 :   0.3000 0.3000 0.0000  plane waves:    2566
 k-point  44 :   0.3500 0.3000 0.0000  plane waves:    2574

 maximum and minimum number of plane-waves per node :      2592     2470

 maximum number of plane-waves:      2592
 maximum index in each direction: 
   IXMAX=    4   IYMAX=    4   IZMAX=   42
   IXMIN=   -4   IYMIN=   -4   IZMIN=  -42


 serial   3D FFT for wavefunctions
 parallel 3D FFT for charge:
    minimum data exchange during FFTs selected (reduces bandwidth)


 total amount of memory used by VASP MPI-rank0    45731. kBytes
=======================================================================

   base      :      30000. kBytes
   nonl-proj :       7382. kBytes
   fftplans  :       3550. kBytes
   grid      :       2957. kBytes
   one-center:          6. kBytes
   wavefun   :       1836. kBytes
 
     INWAV:  cpu time      0.0000: real time      0.0000
 Broyden mixing: mesh for mixing (old mesh)
   NGX =  9   NGY =  9   NGZ = 85
  (NGX  = 32   NGY  = 32   NGZ  =360)
  gives a total of   6885 points

 initial charge density was supplied:
 charge density of overlapping atoms calculated
 number of electron      10.0000000 magnetization 
 keeping initial charge density in first step


--------------------------------------------------------------------------------------------------------


 Maximum index for augmentation-charges         1474 (set IRDMAX)


--------------------------------------------------------------------------------------------------------


 First call to EWALD:  gamma=   0.371
 Maximum number of real-space cells 6x 6x 1
 Maximum number of reciprocal cells 2x 2x12

    FEWALD:  cpu time      0.0016: real time      0.0016


--------------------------------------- Ionic step        1  -------------------------------------------




--------------------------------------- Iteration      1(   1)  ---------------------------------------


    POTLOK:  cpu time      0.0161: real time      0.0161
    SETDIJ:  cpu time      0.1011: real time      0.1011
     EDDAV:  cpu time      0.4274: real time      0.4277
       DOS:  cpu time      0.0021: real time      0.0021
    --------------------------------------------
      LOOP:  cpu time      0.5467: real time      0.5471

 eigenvalue-minimisations  :  1456
 total energy-change (2. order) : 0.6849274E+02  (-0.4373830E+03)
 number of electron      10.0000000 magnetization 
 augmentation part       10.0000000 magnetization 

 Free energy of the ion-electron system (eV)
  ---------------------------------------------------
  alpha Z        PSCENC =         3.97942586
  Ewald energy   TEWEN  =      2928.56821624
  -Hartree energ DENC   =     -3363.15802797
  -exchange      EXHF   =         0.00000000
  -V(xc)+E(xc)   XCENC  =        40.24275460
  PAW double counting   =       409.78799272     -412.24743296
  entropy T*S    EENTRO =        -0.00008081
  eigenvalues    EBANDS =       -67.74789980
  atomic energy  EATOM  =       529.06779047
  Solvation  Ediel_sol  =         0.00000000
  ---------------------------------------------------
  free energy    TOTEN  =        68.49273833 eV

  energy without entropy =       68.49281914  energy(sigma->0) =       68.49277874


--------------------------------------------------------------------------------------------------------




--------------------------------------- Iteration      1(   2)  ---------------------------------------


     EDDAV:  cpu time      0.6307: real time      0.6321
       DOS:  cpu time      0.0005: real time      0.0005
    --------------------------------------------
      LOOP:  cpu time      0.6312: real time      0.6326

 eigenvalue-minimisations  :  2144
 total energy-change (2. order) :-0.8051604E+02  (-0.6807826E+02)
 number of electron      10.0000000 magnetization 
 augmentation part       10.0000000 magnetization 

 Free energy of the ion-electron system (eV)
  ---------------------------------------------------
  alpha Z        PSCENC =         3.97942586
  Ewald energy   TEWEN  =      2928.56821624
  -Hartree energ DENC   =     -3363.15802797
  -exchange      EXHF   =         0.00000000
  -V(xc)+E(xc)   XCENC  =        40.24275460
  PAW double counting   =       409.78799272     -412.24743296
  entropy T*S    EENTRO =        -0.00000000
  eigenvalues    EBANDS =      -148.26402365
  atomic energy  EATOM  =       529.06779047
  Solvation  Ediel_sol  =         0.00000000
  ---------------------------------------------------
  free energy    TOTEN  =       -12.02330470 eV

  energy without entropy =      -12.02330470  energy(sigma->0) =      -12.02330470


--------------------------------------------------------------------------------------------------------




--------------------------------------- Iteration      1(   3)  ---------------------------------------


     EDDAV:  cpu time      0.4330: real time      0.4334
       DOS:  cpu time      0.0007: real time      0.0007
    --------------------------------------------
      LOOP:  cpu time      0.4337: real time      0.4340

 eigenvalue-minimisations  :  1584
 total energy-change (2. order) :-0.2016139E+01  (-0.2016139E+01)
 number of electron      10.0000000 magnetization 
 augmentation part       10.0000000 magnetization 

 Free energy of the ion-electron system (eV)
  ---------------------------------------------------
  alpha Z        PSCENC =         3.97942586
  Ewald energy   TEWEN  =      2928.56821624
  -Hartree energ DENC   =     -3363.15802797
  -exchange      EXHF   =         0.00000000
  -V(xc)+E(xc)   XCENC  =        40.24275460
  PAW double counting   =       409.78799272     -412.24743296
  entropy T*S    EENTRO =        -0.00000000
  eigenvalues    EBANDS =      -150.28016300
  atomic energy  EATOM  =       529.06779047
  Solvation  Ediel_sol  =         0.00000000
  ---------------------------------------------------
  free energy    TOTEN  =       -14.03944405 eV

  energy without entropy =      -14.03944405  energy(sigma->0) =      -14.03944405


--------------------------------------------------------------------------------------------------------




--------------------------------------- Iteration      1(   4)  ---------------------------------------


     EDDAV:  cpu time      0.5765: real time      0.5770
       DOS:  cpu time      0.0005: real time      0.0005
    --------------------------------------------
      LOOP:  cpu time      0.5771: real time      0.5776

 eigenvalue-minimisations  :  1904
 total energy-change (2. order) :-0.4983143E-02  (-0.4983143E-02)
 number of electron      10.0000000 magnetization 
 augmentation part       10.0000000 magnetization 

 Free energy of the ion-electron system (eV)
  ---------------------------------------------------
  alpha Z        PSCENC =         3.97942586
  Ewald energy   TEWEN  =      2928.56821624
  -Hartree energ DENC   =     -3363.15802797
  -exchange      EXHF   =         0.00000000
  -V(xc)+E(xc)   XCENC  =        40.24275460
  PAW double counting   =       409.78799272     -412.24743296
  entropy T*S    EENTRO =        -0.00000000
  eigenvalues    EBANDS =      -150.28514614
  atomic energy  EATOM  =       529.06779047
  Solvation  Ediel_sol  =         0.00000000
  ---------------------------------------------------
  free energy    TOTEN  =       -14.04442719 eV

  energy without entropy =      -14.04442719  energy(sigma->0) =      -14.04442719


--------------------------------------------------------------------------------------------------------




--------------------------------------- Iteration      1(   5)  ---------------------------------------


     EDDAV:  cpu time      0.4798: real time      0.4801
       DOS:  cpu time      0.0005: real time      0.0005
    --------------------------------------------
      LOOP:  cpu time      0.4803: real time      0.4806

 eigenvalue-minimisations  :  1696
 total energy-change (2. order) :-0.1435902E-04  (-0.1435889E-04)
 number of electron      10.0000000 magnetization 
 augmentation part       10.0000000 magnetization 

 Free energy of the ion-electron system (eV)
  ---------------------------------------------------
  alpha Z        PSCENC =         3.97942586
  Ewald energy   TEWEN  =      2928.56821624
  -Hartree energ DENC   =     -3363.15802797
  -exchange      EXHF   =         0.00000000
  -V(xc)+E(xc)   XCENC  =        40.24275460
  PAW double counting   =       409.78799272     -412.24743296
  entropy T*S    EENTRO =        -0.00000000
  eigenvalues    EBANDS =      -150.28516050
  atomic energy  EATOM  =       529.06779047
  Solvation  Ediel_sol  =         0.00000000
  ---------------------------------------------------
  free energy    TOTEN  =       -14.04444155 eV

  energy without entropy =      -14.04444155  energy(sigma->0) =      -14.04444155


--------------------------------------------------------------------------------------------------------




--------------------------------------- Iteration      1(   6)  ---------------------------------------


     EDDAV:  cpu time      0.6857: real time      0.6863
       DOS:  cpu time      0.0006: real time      0.0006
    --------------------------------------------
      LOOP:  cpu time      0.6863: real time      0.6869

 eigenvalue-minimisations  :  2240
 total energy-change (2. order) :-0.2098413E-06  (-0.2098415E-06)
 number of electron      10.0000000 magnetization 
 augmentation part       10.0000000 magnetization 

 Free energy of the ion-electron system (eV)
  ---------------------------------------------------
  alpha Z        PSCENC =         3.97942586
  Ewald energy   TEWEN  =      2928.56821624
  -Hartree energ DENC   =     -3363.15802797
  -exchange      EXHF   =         0.00000000
  -V(xc)+E(xc)   XCENC  =        40.24275460
  PAW double counting   =       409.78799272     -412.24743296
  entropy T*S    EENTRO =        -0.00000000
  eigenvalues    EBANDS =      -150.28516071
  atomic energy  EATOM  =       529.06779047
  Solvation  Ediel_sol  =         0.00000000
  ---------------------------------------------------
  free energy    TOTEN  =       -14.04444176 eV

  energy without entropy =      -14.04444176  energy(sigma->0) =      -14.04444176


--------------------------------------------------------------------------------------------------------




--------------------------------------- Iteration      1(   7)  ---------------------------------------


     EDDAV:  cpu time      0.4497: real time      0.4501
       DOS:  cpu time      0.0005: real time      0.0005
    --------------------------------------------
      LOOP:  cpu time      0.4503: real time      0.4506

 eigenvalue-minimisations  :  1616
 total energy-change (2. order) :-0.2894922E-08  (-0.2895204E-08)
 number of electron      10.0000000 magnetization 
 augmentation part       10.0000000 magnetization 

 Free energy of the ion-electron system (eV)
  ---------------------------------------------------
  alpha Z        PSCENC =         3.97942586
  Ewald energy   TEWEN  =      2928.56821624
  -Hartree energ DENC   =     -3363.15802797
  -exchange      EXHF   =         0.00000000
  -V(xc)+E(xc)   XCENC  =        40.24275460
  PAW double counting   =       409.78799272     -412.24743296
  entropy T*S    EENTRO =        -0.00000000
  eigenvalues    EBANDS =      -150.28516071
  atomic energy  EATOM  =       529.06779047
  Solvation  Ediel_sol  =         0.00000000
  ---------------------------------------------------
  free energy    TOTEN  =       -14.04444177 eV

  energy without entropy =      -14.04444177  energy(sigma->0) =      -14.04444177


--------------------------------------------------------------------------------------------------------




--------------------------------------- Iteration      1(   8)  ---------------------------------------


     EDDAV:  cpu time      0.4750: real time      0.4754
       DOS:  cpu time      0.0006: real time      0.0006
    --------------------------------------------
      LOOP:  cpu time      0.4756: real time      0.4760

 eigenvalue-minimisations  :  1440
 total energy-change (2. order) :-0.1437002E-09  (-0.1442558E-09)
 number of electron      10.0000000 magnetization 
 augmentation part       10.0000000 magnetization 

 Free energy of the ion-electron system (eV)
  ---------------------------------------------------
  alpha Z        PSCENC =         3.97942586
  Ewald energy   TEWEN  =      2928.56821624
  -Hartree energ DENC   =     -3363.15802797
  -exchange      EXHF   =         0.00000000
  -V(xc)+E(xc)   XCENC  =        40.24275460
  PAW double counting   =       409.78799272     -412.24743296
  entropy T*S    EENTRO =        -0.00000000
  eigenvalues    EBANDS =      -150.28516071
  atomic energy  EATOM  =       529.06779047
  Solvation  Ediel_sol  =         0.00000000
  ---------------------------------------------------
  free energy    TOTEN  =       -14.04444177 eV

  energy without entropy =      -14.04444177  energy(sigma->0) =      -14.04444177


--------------------------------------------------------------------------------------------------------




--------------------------------------- Iteration      1(   9)  ---------------------------------------


     EDDAV:  cpu time      0.4023: real time      0.4026
       DOS:  cpu time      0.0006: real time      0.0006
    --------------------------------------------
      LOOP:  cpu time      0.4029: real time      0.4032

 eigenvalue-minimisations  :  1232
 total energy-change (2. order) :-0.3365130E-10  (-0.3409910E-10)
 number of electron      10.0000000 magnetization 
 augmentation part       10.0000000 magnetization 

 Free energy of the ion-electron system (eV)
  ---------------------------------------------------
  alpha Z        PSCENC =         3.97942586
  Ewald energy   TEWEN  =      2928.56821624
  -Hartree energ DENC   =     -3363.15802797
  -exchange      EXHF   =         0.00000000
  -V(xc)+E(xc)   XCENC  =        40.24275460
  PAW double counting   =       409.78799272     -412.24743296
  entropy T*S    EENTRO =        -0.00000000
  eigenvalues    EBANDS =      -150.28516071
  atomic energy  EATOM  =       529.06779047
  Solvation  Ediel_sol  =         0.00000000
  ---------------------------------------------------
  free energy    TOTEN  =       -14.04444177 eV

  energy without entropy =      -14.04444177  energy(sigma->0) =      -14.04444177


--------------------------------------------------------------------------------------------------------




--------------------------------------- Iteration      1(  10)  ---------------------------------------


     EDDAV:  cpu time      0.3297: real time      0.3299
       DOS:  cpu time      0.0005: real time      0.0005
    --------------------------------------------
      LOOP:  cpu time      0.3302: real time      0.3304

 eigenvalue-minimisations  :  1024
 total energy-change (2. order) :-0.1364242E-10  (-0.1373548E-10)
 number of electron      10.0000000 magnetization 
 augmentation part       10.0000000 magnetization 

 Free energy of the ion-electron system (eV)
  ---------------------------------------------------
  alpha Z        PSCENC =         3.97942586
  Ewald energy   TEWEN  =      2928.56821624
  -Hartree energ DENC   =     -3363.15802797
  -exchange      EXHF   =         0.00000000
  -V(xc)+E(xc)   XCENC  =        40.24275460
  PAW double counting   =       409.78799272     -412.24743296
  entropy T*S    EENTRO =        -0.00000000
  eigenvalues    EBANDS =      -150.28516071
  atomic energy  EATOM  =       529.06779047
  Solvation  Ediel_sol  =         0.00000000
  ---------------------------------------------------
  free energy    TOTEN  =       -14.04444177 eV

  energy without entropy =      -14.04444177  energy(sigma->0) =      -14.04444177


--------------------------------------------------------------------------------------------------------




--------------------------------------- Iteration      1(  11)  ---------------------------------------


     EDDAV:  cpu time      0.2835: real time      0.2837
       DOS:  cpu time      0.0006: real time      0.0006
    --------------------------------------------
      LOOP:  cpu time      0.2841: real time      0.2843

 eigenvalue-minimisations  :   928
 total energy-change (2. order) :-0.5911716E-11  (-0.5852701E-11)
 number of electron      10.0000000 magnetization 
 augmentation part       10.0000000 magnetization 

 Free energy of the ion-electron system (eV)
  ---------------------------------------------------
  alpha Z        PSCENC =         3.97942586
  Ewald energy   TEWEN  =      2928.56821624
  -Hartree energ DENC   =     -3363.15802797
  -exchange      EXHF   =         0.00000000
  -V(xc)+E(xc)   XCENC  =        40.24275460
  PAW double counting   =       409.78799272     -412.24743296
  entropy T*S    EENTRO =        -0.00000000
  eigenvalues    EBANDS =      -150.28516071
  atomic energy  EATOM  =       529.06779047
  Solvation  Ediel_sol  =         0.00000000
  ---------------------------------------------------
  free energy    TOTEN  =       -14.04444177 eV

  energy without entropy =      -14.04444177  energy(sigma->0) =      -14.04444177


--------------------------------------------------------------------------------------------------------




--------------------------------------- Iteration      1(  12)  ---------------------------------------


     EDDAV:  cpu time      0.3220: real time      0.3223
       DOS:  cpu time      0.0006: real time      0.0006
    CHARGE:  cpu time      0.0640: real time      0.0640
    MIXING:  cpu time      0.0019: real time      0.0019
    --------------------------------------------
      LOOP:  cpu time      0.3884: real time      0.3889

 eigenvalue-minimisations  :   848
 total energy-change (2. order) :-0.2273737E-11  (-0.2273404E-11)
 number of electron      10.0000000 magnetization 
 augmentation part        0.2246712 magnetization 

 Broyden mixing:
  rms(total) = 0.60710E+00    rms(broyden)= 0.60276E+00
  rms(prec ) = 0.62167E+00
  weight for this iteration     100.00

 Free energy of the ion-electron system (eV)
  ---------------------------------------------------
  alpha Z        PSCENC =         3.97942586
  Ewald energy   TEWEN  =      2928.56821624
  -Hartree energ DENC   =     -3363.15802797
  -exchange      EXHF   =         0.00000000
  -V(xc)+E(xc)   XCENC  =        40.24275460
  PAW double counting   =       409.78799272     -412.24743296
  entropy T*S    EENTRO =        -0.00000000
  eigenvalues    EBANDS =      -150.28516071
  atomic energy  EATOM  =       529.06779047
  Solvation  Ediel_sol  =         0.00000000
  ---------------------------------------------------
  free energy    TOTEN  =       -14.04444177 eV

  energy without entropy =      -14.04444177  energy(sigma->0) =      -14.04444177


--------------------------------------------------------------------------------------------------------




--------------------------------------- Iteration      1(  13)  ---------------------------------------


    POTLOK:  cpu time      0.0177: real time      0.0178
    SETDIJ:  cpu time      0.1017: real time      0.1017
     EDDAV:  cpu time      0.6418: real time      0.6422
       DOS:  cpu time      0.0006: real time      0.0006
    CHARGE:  cpu time      0.0510: real time      0.0511
    MIXING:  cpu time      0.0010: real time      0.1131
    --------------------------------------------
      LOOP:  cpu time      0.8137: real time      0.9264

 eigenvalue-minimisations  :  2320
 total energy-change (2. order) : 0.1899044E+00  (-0.3035686E-02)
 number of electron      10.0000000 magnetization 
 augmentation part        0.2212623 magnetization 

 Broyden mixing:
  rms(total) = 0.53115E+00    rms(broyden)= 0.53094E+00
  rms(prec ) = 0.54734E+00
  weight for this iteration     100.00

 eigenvalues of (default mixing * dielectric matrix)
  average eigenvalue GAMMA=   8.2246
  8.2246

 Free energy of the ion-electron system (eV)
  ---------------------------------------------------
  alpha Z        PSCENC =         3.97942586
  Ewald energy   TEWEN  =      2928.56821624
  -Hartree energ DENC   =     -3362.44540188
  -exchange      EXHF   =         0.00000000
  -V(xc)+E(xc)   XCENC  =        40.32910373
  PAW double counting   =       421.82632937     -424.28048091
  entropy T*S    EENTRO =        -0.00000000
  eigenvalues    EBANDS =      -150.89952024
  atomic energy  EATOM  =       529.06779047
  Solvation  Ediel_sol  =         0.00000000
  ---------------------------------------------------
  free energy    TOTEN  =       -13.85453736 eV

  energy without entropy =      -13.85453736  energy(sigma->0) =      -13.85453736


--------------------------------------------------------------------------------------------------------




--------------------------------------- Iteration      1(  14)  ---------------------------------------


    POTLOK:  cpu time      0.0150: real time      0.0150
    SETDIJ:  cpu time      0.1070: real time      0.1071
     EDDAV:  cpu time      0.5081: real time      0.5085
       DOS:  cpu time      0.0006: real time      0.0005
    CHARGE:  cpu time      0.0460: real time      0.0460
    MIXING:  cpu time      0.0013: real time      0.0013
    --------------------------------------------
      LOOP:  cpu time      0.6780: real time      0.6785

 eigenvalue-minimisations  :  1712
 total energy-change (2. order) : 0.4372471E+00  (-0.1467142E+00)
 number of electron      10.0000000 magnetization 
 augmentation part        0.1954930 magnetization 

 Broyden mixing:
  rms(total) = 0.71273E-01    rms(broyden)= 0.71172E-01
  rms(prec ) = 0.72882E-01
  weight for this iteration     100.00

 eigenvalues of (default mixing * dielectric matrix)
  average eigenvalue GAMMA=   6.1527
  4.4346  7.8707

 Free energy of the ion-electron system (eV)
  ---------------------------------------------------
  alpha Z        PSCENC =         3.97942586
  Ewald energy   TEWEN  =      2928.56821624
  -Hartree energ DENC   =     -3358.32967879
  -exchange      EXHF   =         0.00000000
  -V(xc)+E(xc)   XCENC  =        40.85704363
  PAW double counting   =       516.15606845     -518.54506203
  entropy T*S    EENTRO =        -0.00000000
  eigenvalues    EBANDS =      -155.17109411
  atomic energy  EATOM  =       529.06779047
  Solvation  Ediel_sol  =         0.00000000
  ---------------------------------------------------
  free energy    TOTEN  =       -13.41729028 eV

  energy without entropy =      -13.41729028  energy(sigma->0) =      -13.41729028


--------------------------------------------------------------------------------------------------------




--------------------------------------- Iteration      1(  15)  ---------------------------------------


    POTLOK:  cpu time      0.0147: real time      0.0147
    SETDIJ:  cpu time      0.1031: real time      0.1031
     EDDAV:  cpu time      0.4252: real time      0.4255
       DOS:  cpu time      0.0006: real time      0.0006
    CHARGE:  cpu time      0.0530: real time      0.0530
    MIXING:  cpu time      0.0009: real time      0.0009
    --------------------------------------------
      LOOP:  cpu time      0.5975: real time      0.5980

 eigenvalue-minimisations  :  1584
 total energy-change (2. order) :-0.6350961E-03  (-0.5307100E-02)
 number of electron      10.0000000 magnetization 
 augmentation part        0.1994803 magnetization 

 Broyden mixing:
  rms(total) = 0.46502E-01    rms(broyden)= 0.46500E-01
  rms(prec ) = 0.47396E-01
  weight for this iteration     100.00

 eigenvalues of (default mixing * dielectric matrix)
  average eigenvalue GAMMA=   6.1784
  0.9481  8.7935  8.7935

 Free energy of the ion-electron system (eV)
  ---------------------------------------------------
  alpha Z        PSCENC =         3.97942586
  Ewald energy   TEWEN  =      2928.56821624
  -Hartree energ DENC   =     -3358.77965538
  -exchange      EXHF   =         0.00000000
  -V(xc)+E(xc)   XCENC  =        40.83880791
  PAW double counting   =       519.55461861     -521.95606448
  entropy T*S    EENTRO =        -0.00000000
  eigenvalues    EBANDS =      -154.69106461
  atomic energy  EATOM  =       529.06779047
  Solvation  Ediel_sol  =         0.00000000
  ---------------------------------------------------
  free energy    TOTEN  =       -13.41792538 eV

  energy without entropy =      -13.41792538  energy(sigma->0) =      -13.41792538


--------------------------------------------------------------------------------------------------------




--------------------------------------- Iteration      1(  16)  ---------------------------------------


    POTLOK:  cpu time      0.0153: real time      0.0153
    SETDIJ:  cpu time      0.1091: real time      0.1092
     EDDAV:  cpu time      0.6251: real time      0.6256
       DOS:  cpu time      0.0006: real time      0.0006
    CHARGE:  cpu time      0.0532: real time      0.0533
    MIXING:  cpu time      0.0014: real time      0.0014
    --------------------------------------------
      LOOP:  cpu time      0.8048: real time      0.8055

 eigenvalue-minimisations  :  2176
 total energy-change (2. order) :-0.2148782E-02  (-0.7840616E-03)
 number of electron      10.0000000 magnetization 
 augmentation part        0.2016790 magnetization 

 Broyden mixing:
  rms(total) = 0.10449E-01    rms(broyden)= 0.10448E-01
  rms(prec ) = 0.11007E-01
  weight for this iteration     100.00

 eigenvalues of (default mixing * dielectric matrix)
  average eigenvalue GAMMA=   4.8934
  9.8583  7.4220  0.9712  1.3219

 Free energy of the ion-electron system (eV)
  ---------------------------------------------------
  alpha Z        PSCENC =         3.97942586
  Ewald energy   TEWEN  =      2928.56821624
  -Hartree energ DENC   =     -3359.28013670
  -exchange      EXHF   =         0.00000000
  -V(xc)+E(xc)   XCENC  =        40.82877165
  PAW double counting   =       528.58887157     -531.00626401
  entropy T*S    EENTRO =        -0.00000000
  eigenvalues    EBANDS =      -154.16674924
  atomic energy  EATOM  =       529.06779047
  Solvation  Ediel_sol  =         0.00000000
  ---------------------------------------------------
  free energy    TOTEN  =       -13.42007416 eV

  energy without entropy =      -13.42007416  energy(sigma->0) =      -13.42007416


--------------------------------------------------------------------------------------------------------




--------------------------------------- Iteration      1(  17)  ---------------------------------------


    POTLOK:  cpu time      0.0154: real time      0.0154
    SETDIJ:  cpu time      0.0924: real time      0.0924
     EDDAV:  cpu time      0.6768: real time      0.6774
       DOS:  cpu time      0.0006: real time      0.0006
    CHARGE:  cpu time      0.0536: real time      0.0536
    MIXING:  cpu time      0.0015: real time      0.0015
    --------------------------------------------
      LOOP:  cpu time      0.8403: real time      0.8409

 eigenvalue-minimisations  :  2272
 total energy-change (2. order) : 0.2687572E-03  (-0.1339692E-03)
 number of electron      10.0000000 magnetization 
 augmentation part        0.2008153 magnetization 

 Broyden mixing:
  rms(total) = 0.48913E-02    rms(broyden)= 0.48905E-02
  rms(prec ) = 0.50175E-02
  weight for this iteration     100.00

 eigenvalues of (default mixing * dielectric matrix)
  average eigenvalue GAMMA=   5.4987
 10.0775  7.7214  7.7214  0.9865  0.9865

 Free energy of the ion-electron system (eV)
  ---------------------------------------------------
  alpha Z        PSCENC =         3.97942586
  Ewald energy   TEWEN  =      2928.56821624
  -Hartree energ DENC   =     -3359.10984165
  -exchange      EXHF   =         0.00000000
  -V(xc)+E(xc)   XCENC  =        40.84346629
  PAW double counting   =       530.43068619     -532.84457952
  entropy T*S    EENTRO =        -0.00000000
  eigenvalues    EBANDS =      -154.35496929
  atomic energy  EATOM  =       529.06779047
  Solvation  Ediel_sol  =         0.00000000
  ---------------------------------------------------
  free energy    TOTEN  =       -13.41980540 eV

  energy without entropy =      -13.41980540  energy(sigma->0) =      -13.41980540


--------------------------------------------------------------------------------------------------------




--------------------------------------- Iteration      1(  18)  ---------------------------------------


    POTLOK:  cpu time      0.0154: real time      0.0154
    SETDIJ:  cpu time      0.0996: real time      0.0997
     EDDAV:  cpu time      0.6443: real time      0.6447
       DOS:  cpu time      0.0006: real time      0.0006
    CHARGE:  cpu time      0.0539: real time      0.0540
    MIXING:  cpu time      0.0011: real time      0.0011
    --------------------------------------------
      LOOP:  cpu time      0.8149: real time      0.8155

 eigenvalue-minimisations  :  2288
 total energy-change (2. order) :-0.9595252E-05  (-0.1416068E-04)
 number of electron      10.0000000 magnetization 
 augmentation part        0.2011255 magnetization 

 Broyden mixing:
  rms(total) = 0.13498E-02    rms(broyden)= 0.13466E-02
  rms(prec ) = 0.13827E-02
  weight for this iteration     100.00

 eigenvalues of (default mixing * dielectric matrix)
  average eigenvalue GAMMA=   4.7614
  9.8653  8.3144  7.6805  1.0096  0.9695  0.7291

[...]
  eigenvalues    EBANDS =        -0.01504299
  ---------------------------------------------------
  free energy    TOTEN  =        -0.03462021 eV

  energy without entropy =       -0.03462021


----------------------------------------- Iteration    3(  13)  ---------------------------------------


   POT+DIJ:  cpu time      0.2519: real time      0.2521
    HAMIL1:  cpu time      0.1098: real time      0.1099
    LRDIAG:  cpu time      0.0252: real time      0.0253
    LRDIIS:  cpu time      0.5330: real time      0.5335
    LRDIAG:  cpu time      0.0217: real time      0.0217
    MIXING:  cpu time      0.0017: real time      0.0017
    --------------------------------------------
      LOOP:  cpu time      1.0463: real time      1.0473

 Broyden mixing:
  rms(total) = 0.26999E-02    rms(broyden)= 0.26999E-02
  rms(prec ) = 0.28220E-02
  weight for this iteration     100.00

 eigenvalues of (default mixing * dielectric matrix)
  average eigenvalue GAMMA=   2.9328
  9.8469  5.2441  5.2441  2.3460  2.3460  2.1261  1.1813  1.1813  0.9575  1.0027
  0.7855

 Free energy of the ion-electron system (eV)
  ---------------------------------------------------
  -Hartree energ DENC   =        -0.01986754
  -V(xc)+E(xc)   XCENC  =         0.00013970
  PAW double counting   =         0.00217212       -0.00212810
  entropy T*S    EENTRO =         0.00000000
  eigenvalues    EBANDS =        -0.01496142
  ---------------------------------------------------
  free energy    TOTEN  =        -0.03464525 eV

  energy without entropy =       -0.03464525


----------------------------------------- Iteration    3(  14)  ---------------------------------------


   POT+DIJ:  cpu time      0.2437: real time      0.2440
    HAMIL1:  cpu time      0.1068: real time      0.1069
    LRDIAG:  cpu time      0.0266: real time      0.0266
    LRDIIS:  cpu time      0.5458: real time      0.5462
    LRDIAG:  cpu time      0.0216: real time      0.0216
    MIXING:  cpu time      0.0017: real time      0.0017
    --------------------------------------------
      LOOP:  cpu time      1.0467: real time      1.0476

 Broyden mixing:
  rms(total) = 0.11901E-02    rms(broyden)= 0.11899E-02
  rms(prec ) = 0.12432E-02
  weight for this iteration     100.00

 eigenvalues of (default mixing * dielectric matrix)
  average eigenvalue GAMMA=   3.0554
 10.0376  8.4000  4.5510  2.6423  2.6423  2.1122  1.4321  1.0259  0.9539  0.9539
  0.9569  0.9569

 Free energy of the ion-electron system (eV)
  ---------------------------------------------------
  -Hartree energ DENC   =        -0.02013643
  -V(xc)+E(xc)   XCENC  =         0.00014448
  PAW double counting   =         0.00198235       -0.00193842
  entropy T*S    EENTRO =         0.00000000
  eigenvalues    EBANDS =        -0.01476144
  ---------------------------------------------------
  free energy    TOTEN  =        -0.03470947 eV

  energy without entropy =       -0.03470947


----------------------------------------- Iteration    3(  15)  ---------------------------------------


   POT+DIJ:  cpu time      0.2373: real time      0.2375
    HAMIL1:  cpu time      0.1037: real time      0.1038
    LRDIAG:  cpu time      0.0238: real time      0.0238
    LRDIIS:  cpu time      0.4442: real time      0.4446
    LRDIAG:  cpu time      0.0212: real time      0.0213
    MIXING:  cpu time      0.0017: real time      0.0017
    --------------------------------------------
      LOOP:  cpu time      0.9319: real time      0.9328

 Broyden mixing:
  rms(total) = 0.55096E-03    rms(broyden)= 0.55088E-03
  rms(prec ) = 0.57547E-03
  weight for this iteration     100.00

 eigenvalues of (default mixing * dielectric matrix)
  average eigenvalue GAMMA=   2.8190
  9.9645  8.1056  4.6123  2.5919  2.5919  2.1146  1.3188  1.0494  0.9523  0.9523
  1.0175  1.0175  0.3581

 Free energy of the ion-electron system (eV)
  ---------------------------------------------------
  -Hartree energ DENC   =        -0.02024471
  -V(xc)+E(xc)   XCENC  =         0.00014639
  PAW double counting   =         0.00191849       -0.00187457
  entropy T*S    EENTRO =         0.00000000
  eigenvalues    EBANDS =        -0.01468504
  ---------------------------------------------------
  free energy    TOTEN  =        -0.03473944 eV

  energy without entropy =       -0.03473944


----------------------------------------- Iteration    3(  16)  ---------------------------------------


   POT+DIJ:  cpu time      0.1745: real time      0.1748
    HAMIL1:  cpu time      0.0920: real time      0.0921
    LRDIAG:  cpu time      0.0156: real time      0.0156
    LRDIIS:  cpu time      0.3204: real time      0.3207
    LRDIAG:  cpu time      0.0139: real time      0.0139
    MIXING:  cpu time      0.0016: real time      0.0016
    --------------------------------------------
      LOOP:  cpu time      0.6810: real time      0.6817

 Broyden mixing:
  rms(total) = 0.47246E-03    rms(broyden)= 0.47245E-03
  rms(prec ) = 0.49360E-03
  weight for this iteration     100.00

 eigenvalues of (default mixing * dielectric matrix)
  average eigenvalue GAMMA=   2.7880
  9.8768  7.3186  4.9857  2.6056  2.6056  2.1372  2.0057  2.0057  1.0298  1.0298
  0.9492  0.9212  0.9212  0.6398

 Free energy of the ion-electron system (eV)
  ---------------------------------------------------
  -Hartree energ DENC   =        -0.02025302
  -V(xc)+E(xc)   XCENC  =         0.00014657
  PAW double counting   =         0.00191324       -0.00186933
  entropy T*S    EENTRO =         0.00000000
  eigenvalues    EBANDS =        -0.01467970
  ---------------------------------------------------
  free energy    TOTEN  =        -0.03474224 eV

  energy without entropy =       -0.03474224


----------------------------------------- Iteration    3(  17)  ---------------------------------------


   POT+DIJ:  cpu time      0.1630: real time      0.1631
    HAMIL1:  cpu time      0.0678: real time      0.0679
    LRDIAG:  cpu time      0.0156: real time      0.0156
    LRDIIS:  cpu time      0.3145: real time      0.3147
    LRDIAG:  cpu time      0.0140: real time      0.0141
    MIXING:  cpu time      0.0016: real time      0.0016
    --------------------------------------------
      LOOP:  cpu time      0.6370: real time      0.6375

 Broyden mixing:
  rms(total) = 0.41483E-03    rms(broyden)= 0.41483E-03
  rms(prec ) = 0.43354E-03
  weight for this iteration     100.00

 eigenvalues of (default mixing * dielectric matrix)
  average eigenvalue GAMMA=   2.9105
  9.5614  7.0478  7.0478  3.9217  2.7535  2.7535  2.0924  1.8011  1.0359  1.0359
  1.0308  0.9409  0.9409  0.8470  0.8470

 Free energy of the ion-electron system (eV)
  ---------------------------------------------------
  -Hartree energ DENC   =        -0.02025390
  -V(xc)+E(xc)   XCENC  =         0.00014671
  PAW double counting   =         0.00191042       -0.00186649
  entropy T*S    EENTRO =         0.00000000
  eigenvalues    EBANDS =        -0.01468119
  ---------------------------------------------------
  free energy    TOTEN  =        -0.03474445 eV

  energy without entropy =       -0.03474445


----------------------------------------- Iteration    3(  18)  ---------------------------------------


   POT+DIJ:  cpu time      0.1625: real time      0.1625
    HAMIL1:  cpu time      0.0671: real time      0.0671
    LRDIAG:  cpu time      0.0157: real time      0.0157
    LRDIIS:  cpu time      0.3502: real time      0.3504
    LRDIAG:  cpu time      0.0139: real time      0.0140
    MIXING:  cpu time      0.0017: real time      0.0017
    --------------------------------------------
      LOOP:  cpu time      0.6717: real time      0.6721

 Broyden mixing:
  rms(total) = 0.16639E-03    rms(broyden)= 0.16638E-03
  rms(prec ) = 0.17392E-03
  weight for this iteration     100.00

 eigenvalues of (default mixing * dielectric matrix)
  average eigenvalue GAMMA=   2.7801
  9.6416  6.9928  6.9928  3.8671  2.7645  2.7645  2.0915  1.8305  1.1004  1.1004
  1.0314  0.9639  0.9639  0.8178  0.8178  0.7408

 Free energy of the ion-electron system (eV)
  ---------------------------------------------------
  -Hartree energ DENC   =        -0.02029524
  -V(xc)+E(xc)   XCENC  =         0.00014750
  PAW double counting   =         0.00188570       -0.00184182
  entropy T*S    EENTRO =         0.00000000
  eigenvalues    EBANDS =        -0.01465349
  ---------------------------------------------------
  free energy    TOTEN  =        -0.03475736 eV

  energy without entropy =       -0.03475736


----------------------------------------- Iteration    3(  19)  ---------------------------------------


   POT+DIJ:  cpu time      0.1627: real time      0.1628
    HAMIL1:  cpu time      0.0677: real time      0.0678
    LRDIAG:  cpu time      0.0156: real time      0.0156
    LRDIIS:  cpu time      0.3317: real time      0.3320
    LRDIAG:  cpu time      0.0138: real time      0.0139
    MIXING:  cpu time      0.0016: real time      0.0016
    --------------------------------------------
      LOOP:  cpu time      0.6542: real time      0.6547

 Broyden mixing:
  rms(total) = 0.11485E-03    rms(broyden)= 0.11484E-03
  rms(prec ) = 0.12013E-03
  weight for this iteration     100.00

 eigenvalues of (default mixing * dielectric matrix)
  average eigenvalue GAMMA=   2.8122
 10.0483  8.1305  5.0461  4.0495  4.0495  2.7734  2.7734  2.1103  1.5395  1.0726
  1.0726  0.9852  0.9852  0.8609  0.8875  0.8875  0.5354

 Free energy of the ion-electron system (eV)
  ---------------------------------------------------
  -Hartree energ DENC   =        -0.02030356
  -V(xc)+E(xc)   XCENC  =         0.00014764
  PAW double counting   =         0.00188173       -0.00183786
  entropy T*S    EENTRO =         0.00000000
  eigenvalues    EBANDS =        -0.01464754
  ---------------------------------------------------
  free energy    TOTEN  =        -0.03475959 eV

  energy without entropy =       -0.03475959


----------------------------------------- Iteration    3(  20)  ---------------------------------------


   POT+DIJ:  cpu time      0.1627: real time      0.1628
    HAMIL1:  cpu time      0.0672: real time      0.0673
    LRDIAG:  cpu time      0.0157: real time      0.0157
    LRDIIS:  cpu time      0.3265: real time      0.3267
    LRDIAG:  cpu time      0.0140: real time      0.0140
    MIXING:  cpu time      0.0018: real time      0.0018
    --------------------------------------------
      LOOP:  cpu time      0.6485: real time      0.6489

 Broyden mixing:
  rms(total) = 0.10905E-03    rms(broyden)= 0.10905E-03
  rms(prec ) = 0.11404E-03
  weight for this iteration     100.00

 eigenvalues of (default mixing * dielectric matrix)
  average eigenvalue GAMMA=   2.8237
 10.0692  8.3210  6.5967  4.0723  4.0723  2.7673  2.7673  2.1049  1.6200  0.8720
  0.8720  1.0944  1.0944  0.9814  0.9814  0.9022  0.8191  0.8191

 Free energy of the ion-electron system (eV)
  ---------------------------------------------------
  -Hartree energ DENC   =        -0.02030235
  -V(xc)+E(xc)   XCENC  =         0.00014764
  PAW double counting   =         0.00188171       -0.00183783
  entropy T*S    EENTRO =         0.00000000
  eigenvalues    EBANDS =        -0.01464878
  ---------------------------------------------------
  free energy    TOTEN  =        -0.03475963 eV

  energy without entropy =       -0.03475963


------------------------ aborting loop because EDIFF is reached ----------------------------------------


 change of polarisation eV/A/(eV/A) component  3 :     0.000     0.001     0.065
 dielectric tensor                  component  3 :     0.001     0.001     1.108


--------------------------------------------------------------------------------------------------------


    FORNLD:  cpu time      0.3713: real time      0.3715

 PIEZOELECTRIC TENSOR FIELD DIRECTION 3  (e Angst)
 -----------------------------------------------------------------------------
    -0.00000 -0.00000 -0.00000           ( -0.00000 -0.00000 -0.00000)
    -0.00000 -0.00000  0.00000           ( -0.00000 -0.00000  0.00000)
    -0.00000  0.00000 -0.00000           ( -0.00000  0.00000 -0.00000)

 PIEZOELECTRIC TENSOR FIELD DIRECTION 3  (C/m^2)
 -----------------------------------------------------------------------------
    -0.00000 -0.00000 -0.00000
    -0.00000 -0.00000  0.00000
    -0.00000  0.00000 -0.00000


      POSITION         DIRECTION 3           BORN EFFECTIVE CHARGE    (rigid.aug.   ionic)
 -----------------------------------------------------------------------------------------
      1.14725      0.66236      7.65155    -0.00000  0.00000  4.24195 ( -0.10056  5.00000)
      0.00000      1.32473      8.34845     0.00000  0.00000  4.24194 ( -0.10056  5.00000)
 -----------------------------------------------------------------------------------------
    total drift (improves with k-points):   0.00000  0.00000  8.48389




--------------------------------------------------------------------------------------------------------


  LATTYP: Found a hexagonal cell.
 ALAT       =     2.2944986820
 C/A-ratio  =    10.4598011706
  
  Lattice vectors:
  
 A1 = (   2.2944986820,   0.0000000000,   0.0000000000)
 A2 = (  -1.1472493410,   1.9870941476,   0.0000000000)
 A3 = (   0.0000000000,   0.0000000000,  24.0000000000)


Analysis of symmetry for initial positions (statically):
=====================================================================
 Subroutine PRICEL returns:
 Original cell was already a primitive cell.
 

 Routine SETGRP: Setting up the symmetry group for a 
 hexagonal supercell.


 Subroutine GETGRP returns: Found 12 space group operations
 (whereof  6 operations were pure point group operations)
 out of a pool of 24 trial point group operations.


The static configuration has the point symmetry C_3v.
 The point group associated with its full space group is D_3d.


Analysis of symmetry for dynamics (positions and initial velocities):
=====================================================================
 Subroutine PRICEL returns:
 Original cell was already a primitive cell.
 

 Routine SETGRP: Setting up the symmetry group for a 
 hexagonal supercell.


 Subroutine GETGRP returns: Found 12 space group operations
 (whereof  6 operations were pure point group operations)
 out of a pool of 24 trial point group operations.


The dynamic configuration has the point symmetry C_3v.
 The point group associated with its full space group is D_3d.


 Subroutine INISYM returns: Found 12 space group operations
 (whereof  6 operations are pure point group operations),
 and found     1 'primitive' translations



 MACROSCOPIC STATIC DIELECTRIC TENSOR (including local field effects in DFT)
 ------------------------------------------------------
           1.675786     0.000000     0.000000
           0.000000     1.675786     0.000000
           0.000000    -0.000000     1.108093
 ------------------------------------------------------



--------------------------------------------------------------------------------------------------------


  LATTYP: Found a hexagonal cell.
 ALAT       =     2.2944986820
 C/A-ratio  =    10.4598011706
  
  Lattice vectors:
  
 A1 = (   2.2944986820,   0.0000000000,   0.0000000000)
 A2 = (  -1.1472493410,   1.9870941476,   0.0000000000)
 A3 = (   0.0000000000,   0.0000000000,  24.0000000000)


Analysis of symmetry for initial positions (statically):
=====================================================================
 Subroutine PRICEL returns:
 Original cell was already a primitive cell.
 

 Routine SETGRP: Setting up the symmetry group for a 
 hexagonal supercell.


 Subroutine GETGRP returns: Found 12 space group operations
 (whereof  6 operations were pure point group operations)
 out of a pool of 24 trial point group operations.


The static configuration has the point symmetry C_3v.
 The point group associated with its full space group is D_3d.


Analysis of symmetry for dynamics (positions and initial velocities):
=====================================================================
 Subroutine PRICEL returns:
 Original cell was already a primitive cell.
 

 Routine SETGRP: Setting up the symmetry group for a 
 hexagonal supercell.


 Subroutine GETGRP returns: Found 12 space group operations
 (whereof  6 operations were pure point group operations)
 out of a pool of 24 trial point group operations.


The dynamic configuration has the point symmetry C_3v.
 The point group associated with its full space group is D_3d.


 Subroutine INISYM returns: Found 12 space group operations
 (whereof  6 operations are pure point group operations),
 and found     1 'primitive' translations



--------------------------------------------------------------------------------------------------------




 MACROSCOPIC STATIC DIELECTRIC TENSOR (including local field effects in DFT)
 ------------------------------------------------------
           1.675786     0.000000     0.000000
           0.000000     1.675786     0.000000
           0.000000    -0.000000     1.108093
 ------------------------------------------------------


 PIEZOELECTRIC TENSOR (including local field effects)  for field in x, y, z        (e  Angst)
          XX          YY          ZZ          XY          YZ          ZX
  --------------------------------------------------------------------------------
  x    -0.00000     0.00000     0.00000     0.00000    -0.00000    -0.00000
  y     0.00000     0.00000     0.00000     0.00000     0.00000     0.00000
  z     0.00000     0.00000     0.00000    -0.00000     0.00000     0.00000

 PIEZOELECTRIC TENSOR (including local field effects)  for field in x, y, z        (C/m^2)
          XX          YY          ZZ          XY          YZ          ZX
  --------------------------------------------------------------------------------
  x    -0.00000     0.00000     0.00000     0.00000    -0.00000    -0.00000
  y     0.00000     0.00000     0.00000     0.00000     0.00000     0.00000
  z     0.00000     0.00000     0.00000    -0.00000     0.00000     0.00000
 
 BORN EFFECTIVE CHARGES (including local field effects) (in |e|, cummulative output)
 ---------------------------------------------------------------------------------
 ion    1
    1    -0.00000     0.00000     0.00000
    2     0.00000    -0.00000     0.00000
    3     0.00000     0.00000     0.00000
 ion    2
    1    -0.00000    -0.00000     0.00000
    2     0.00000    -0.00000     0.00000
    3     0.00000     0.00000     0.00000


--------------------------------------------------------------------------------------------------------


     LOOP+:  cpu time    108.6013: real time    111.9191
    4ORBIT:  cpu time      0.0000: real time      0.0000



 total charge

# of ion       s       p       d       tot
------------------------------------------
    1        1.278   2.296   0.000   3.574
    2        1.278   2.296   0.000   3.574
--------------------------------------------------
tot          2.555   4.592   0.000   7.148
 

 total amount of memory used by VASP MPI-rank0    45731. kBytes
=======================================================================

   base      :      30000. kBytes
   nonl-proj :       7382. kBytes
   fftplans  :       3550. kBytes
   grid      :       2957. kBytes
   one-center:          6. kBytes
   wavefun   :       1836. kBytes
 
  
  
 General timing and accounting informations for this job:
 ========================================================
  
                  Total CPU time used (sec):      109.565
                            User time (sec):      109.289
                          System time (sec):        0.276
                         Elapsed time (sec):      113.703
  
                   Maximum memory used (kb):      225952.
                   Average memory used (kb):          N/A
  
                          Minor page faults:        50870
                          Major page faults:         3179
                 Voluntary context switches:          451
