PROCAR new format
# of k-points:   44         # of bands:   16         # of ions:    2

 k-point     1 :    0.00000000 0.00000000 0.00000000     weight = 0.00250000

band     1 # energy  -30.88914577 # occ.  2.00000000
 
ion      s      p      d    tot
    1  0.319  0.025  0.000  0.344
    2  0.319  0.025  0.000  0.344
tot    0.638  0.051  0.000  0.689
 
band     2 # energy  -15.35400870 # occ.  2.00000000
 
ion      s      p      d    tot
    1  0.148  0.132  0.000  0.280
    2  0.148  0.132  0.000  0.280
tot    0.296  0.263  0.000  0.559
 
band     3 # energy   -9.24512765 # occ.  2.00000000
 
ion      s      p      d    tot
    1  0.000  0.424  0.000  0.424
    2  0.000  0.424  0.000  0.424
tot    0.000  0.847  0.000  0.847
 
band     4 # energy   -9.24512584 # occ.  2.00000000
 
ion      s      p      d    tot
    1  0.000  0.424  0.000  0.424
    2  0.000  0.424  0.000  0.424
tot    0.000  0.847  0.000  0.847
 
band     5 # energy   -6.48272283 # occ.  2.00000000
 
ion      s      p      d    tot
    1  0.003  0.276  0.000  0.279
    2  0.003  0.276  0.000  0.279
tot    0.006  0.553  0.000  0.558
 
band     6 # energy   -0.88728203 # occ.  0.00000000
 
ion      s      p      d    tot
    1  0.000  0.390  0.000  0.390
    2  0.000  0.390  0.000  0.390
tot    0.000  0.780  0.000  0.780
 
band     7 # energy   -0.88727670 # occ.  0.00000000
 
ion      s      p      d    tot
    1  0.000  0.390  0.000  0.390
    2  0.000  0.390  0.000  0.390
tot    0.000  0.780  0.000  0.780
 
band     8 # energy   -0.53720912 # occ.  0.00000000
 
ion      s      p      d    tot
    1  0.297  0.147  0.000  0.444
    2  0.297  0.147  0.000  0.444
tot    0.595  0.294  0.000  0.888
 
band     9 # energy    1.18619065 # occ.  0.00000000
 
ion      s      p      d    tot
    1  0.001  0.011  0.000  0.011
    2  0.001  0.011  0.000  0.011
tot    0.001  0.022  0.000  0.023
 
band    10 # energy    1.43028787 # occ.  0.00000000
 
ion      s      p      d    tot
    1  0.002  0.016  0.000  0.018
    2  0.002  0.016  0.000  0.018
tot    0.004  0.033  0.000  0.036
 
band    11 # energy    1.86432939 # occ.  0.00000000
 
ion      s      p      d    tot
    1  0.001  0.008  0.000  0.008
    2  0.001  0.008  0.000  0.008
tot    0.002  0.015  0.000  0.017
 
band    12 # energy    2.23903563 # occ.  0.00000000
 
ion      s      p      d    tot
    1  0.001  0.003  0.000  0.003
    2  0.001  0.003  0.000  0.003
tot    0.001  0.006  0.000  0.007
 
band    13 # energy    3.00213533 # occ.  0.00000000
 
ion      s      p      d    tot
    1  0.002  0.013  0.000  0.015
    2  0.002  0.013  0.000  0.015
tot    0.004  0.026  0.000  0.030
 
band    14 # energy    3.64982785 # occ.  0.00000000
 
ion      s      p      d    tot
    1  0.002  0.004  0.000  0.006
    2  0.002  0.004  0.000  0.006
tot    0.003  0.009  0.000  0.012
 
band    15 # energy    4.75433238 # occ.  0.00000000
 
ion      s      p      d    tot
    1  0.003  0.018  0.000  0.021
    2  0.003  0.018  0.000  0.021
tot    0.006  0.036  0.000  0.042
 
band    16 # energy    5.66378778 # occ.  0.00000000
 
ion      s      p      d    tot
    1  0.003  0.006  0.000  0.009
    2  0.003  0.006  0.000  0.009
tot    0.006  0.012  0.000  0.017
 

 k-point     2 :    0.05000000 0.00000000 0.00000000     weight = 0.01500000

band     1 # energy  -30.81696387 # occ.  2.00000000
 
ion      s      p      d    tot
    1  0.318  0.026  0.000  0.345
    2  0.318  0.026  0.000  0.345
tot    0.636  0.053  0.000  0.689
 
band     2 # energy  -15.28731188 # occ.  2.00000000
 
ion      s      p      d    tot
    1  0.149  0.132  0.000  0.281
    2  0.149  0.132  0.000  0.281
tot    0.298  0.263  0.000  0.561
 
band     3 # energy   -9.64754779 # occ.  2.00000000
 
ion      s      p      d    tot
    1  0.013  0.407  0.000  0.421
    2  0.013  0.407  0.000  0.421
tot    0.027  0.814  0.000  0.841
 
band     4 # energy   -9.37163324 # occ.  2.00000000
 
ion      s      p      d    tot
    1  0.000  0.422  0.000  0.422
    2  0.000  0.422  0.000  0.422
tot    0.000  0.844  0.000  0.844
 
band     5 # energy   -6.44720054 # occ.  2.00000000
 
ion      s      p      d    tot
    1  0.003  0.278  0.000  0.281
    2  0.003  0.278  0.000  0.281
tot    0.006  0.556  0.000  0.563
 
band     6 # energy   -0.93102568 # occ.  0.00000000
 
ion      s      p      d    tot
    1  0.018  0.372  0.000  0.390
    2  0.018  0.372  0.000  0.390
tot    0.037  0.743  0.000  0.780
 
band     7 # energy   -0.74756386 # occ.  0.00000000
 
ion      s      p      d    tot
    1  0.000  0.393  0.000  0.393
    2  0.000  0.393  0.000  0.393
tot    0.000  0.785  0.000  0.785
 
band     8 # energy   -0.26960613 # occ.  0.00000000
 
ion      s      p      d    tot
    1  0.268  0.176  0.000  0.443
    2  0.268  0.176  0.000  0.443
tot    0.535  0.352  0.000  0.887
 
band     9 # energy    1.27976093 # occ.  0.00000000
 
ion      s      p      d    tot
    1  0.001  0.011  0.000  0.012
    2  0.001  0.011  0.000  0.012
tot    0.001  0.023  0.000  0.024
 
band    10 # energy    1.52139340 # occ.  0.00000000
 
ion      s      p      d    tot
    1  0.002  0.017  0.000  0.019
    2  0.002  0.017  0.000  0.019
tot    0.003  0.034  0.000  0.037
 
band    11 # energy    1.95746638 # occ.  0.00000000
 
ion      s      p      d    tot
    1  0.001  0.008  0.000  0.008
    2  0.001  0.008  0.000  0.008
tot    0.002  0.015  0.000  0.017
 
band    12 # energy    2.33352992 # occ.  0.00000000
 
ion      s      p      d    tot
    1  0.001  0.003  0.000  0.003
    2  0.001  0.003  0.000  0.003
tot    0.001  0.006  0.000  0.007
 
band    13 # energy    3.09290421 # occ.  0.00000000
 
ion      s      p      d    tot
    1  0.002  0.013  0.000  0.015
    2  0.002  0.013  0.000  0.015
tot    0.003  0.026  0.000  0.030
 
band    14 # energy    3.74350972 # occ.  0.00000000
 
ion      s      p      d    tot
    1  0.002  0.005  0.000  0.006
    2  0.002  0.005  0.000  0.006
tot    0.003  0.009  0.000  0.012
 
band    15 # energy    4.84187089 # occ.  0.00000000
 
ion      s      p      d    tot
    1  0.003  0.018  0.000  0.021
    2  0.003  0.018  0.000  0.021
tot    0.006  0.036  0.000  0.042
 
band    16 # energy    5.75648338 # occ.  0.00000000
 
ion      s      p      d    tot
    1  0.003  0.006  0.000  0.009
    2  0.003  0.006  0.000  0.009
tot    0.006  0.012  0.000  0.017
 

 k-point     3 :    0.10000000 0.00000000 0.00000000     weight = 0.01500000

band     1 # energy  -30.60106900 # occ.  2.00000000
 
ion      s      p      d    tot
    1  0.316  0.029  0.000  0.346
    2  0.316  0.029  0.000  0.346
tot    0.633  0.059  0.000  0.691
 
band     2 # energy  -15.09049700 # occ.  2.00000000
 
ion      s      p      d    tot
    1  0.153  0.131  0.000  0.284
    2  0.153  0.131  0.000  0.284
tot    0.305  0.262  0.000  0.567
 
band     3 # energy  -10.69819042 # occ.  2.00000000
 
ion      s      p      d    tot
    1  0.039  0.373  0.000  0.413
    2  0.039  0.373  0.000  0.413
tot    0.079  0.747  0.000  0.825
 
band     4 # energy   -9.71579522 # occ.  2.00000000
 
ion      s      p      d    tot
    1  0.000  0.417  0.000  0.417
    2  0.000  0.417  0.000  0.417
tot    0.000  0.835  0.000  0.835
 
band     5 # energy   -6.34890260 # occ.  2.00000000
 
ion      s      p      d    tot
    1  0.004  0.284  0.000  0.288
    2  0.004  0.284  0.000  0.288
tot    0.008  0.568  0.000  0.576
 
band     6 # energy   -1.12254194 # occ.  0.00000000
 
ion      s      p      d    tot
    1  0.048  0.337  0.000  0.385
    2  0.048  0.337  0.000  0.385
tot    0.096  0.674  0.000  0.770
 
band     7 # energy   -0.37099980 # occ.  0.00000000
 
ion      s      p      d    tot
    1  0.000  0.399  0.000  0.399
    2  0.000  0.399  0.000  0.399
tot    0.000  0.798  0.000  0.798
 
band     8 # energy    0.44022735 # occ.  0.00000000
 
ion      s      p      d    tot
    1  0.215  0.227  0.000  0.442
    2  0.215  0.227  0.000  0.442
tot    0.430  0.455  0.000  0.884
 
band     9 # energy    1.55978864 # occ.  0.00000000
 
ion      s      p      d    tot
    1  0.000  0.013  0.000  0.013
    2  0.000  0.013  0.000  0.013
tot    0.001  0.026  0.000  0.027
 
band    10 # energy    1.79487278 # occ.  0.00000000
 
ion      s      p      d    tot
    1  0.002  0.019  0.000  0.020
    2  0.002  0.019  0.000  0.020
tot    0.003  0.038  0.000  0.041
 
band    11 # energy    2.23711037 # occ.  0.00000000
 
ion      s      p      d    tot
    1  0.001  0.008  0.000  0.008
    2  0.001  0.008  0.000  0.008
tot    0.001  0.015  0.000  0.017
 
band    12 # energy    2.61683749 # occ.  0.00000000
 
ion      s      p      d    tot
    1  0.001  0.003  0.000  0.004
    2  0.001  0.003  0.000  0.004
tot    0.001  0.006  0.000  0.007
 
band    13 # energy    3.36520270 # occ.  0.00000000
 
ion      s      p      d    tot
    1  0.002  0.013  0.000  0.015
    2  0.002  0.013  0.000  0.015
tot    0.003  0.027  0.000  0.030
 
band    14 # energy    4.02430274 # occ.  0.00000000
 
ion      s      p      d    tot
    1  0.002  0.005  0.000  0.006
    2  0.002  0.005  0.000  0.006
tot    0.003  0.009  0.000  0.013
 
band    15 # energy    5.10416422 # occ.  0.00000000
 
ion      s      p      d    tot
    1  0.003  0.018  0.000  0.021
    2  0.003  0.018  0.000  0.021
tot    0.006  0.036  0.000  0.041
 
band    16 # energy    6.03422049 # occ.  0.00000000
 
ion      s      p      d    tot
    1  0.003  0.006  0.000  0.009
    2  0.003  0.006  0.000  0.009
tot    0.006  0.012  0.000  0.018
 

 k-point     4 :    0.15000000 0.00000000 0.00000000     weight = 0.01500000

band     1 # energy  -30.24290913 # occ.  2.00000000
 
ion      s      p      d    tot
    1  0.313  0.034  0.000  0.347
    2  0.313  0.034  0.000  0.347
tot    0.626  0.068  0.000  0.694
 
band     2 # energy  -14.77466544 # occ.  2.00000000
 
ion      s      p      d    tot
    1  0.164  0.126  0.000  0.290
    2  0.164  0.126  0.000  0.290
tot    0.329  0.252  0.000  0.581
 
band     3 # energy  -12.11531509 # occ.  2.00000000
 
ion      s      p      d    tot
    1  0.057  0.344  0.000  0.401
    2  0.057  0.344  0.000  0.401
tot    0.114  0.688  0.000  0.802
 
band     4 # energy  -10.19564188 # occ.  2.00000000
 
ion      s      p      d    tot
    1  0.000  0.412  0.000  0.412
    2  0.000  0.412  0.000  0.412
tot    0.000  0.824  0.000  0.824
 
band     5 # energy   -6.21323590 # occ.  2.00000000
 
ion      s      p      d    tot
    1  0.006  0.293  0.000  0.300
    2  0.006  0.293  0.000  0.300
tot    0.013  0.586  0.000  0.599
 
band     6 # energy   -1.41124817 # occ.  0.00000000
 
ion      s      p      d    tot
    1  0.069  0.305  0.000  0.374
    2  0.069  0.305  0.000  0.374
tot    0.137  0.610  0.000  0.747
 
band     7 # energy    0.14442206 # occ.  0.00000000
 
ion      s      p      d    tot
    1  0.000  0.406  0.000  0.406
    2  0.000  0.406  0.000  0.406
tot    0.000  0.813  0.000  0.813
 
band     8 # energy    1.26674628 # occ.  0.00000000
 
ion      s      p      d    tot
    1  0.170  0.263  0.000  0.433
    2  0.170  0.263  0.000  0.433
tot    0.340  0.526  0.000  0.866
 
band     9 # energy    2.02251698 # occ.  0.00000000
 
ion      s      p      d    tot
    1  0.000  0.014  0.000  0.014
    2  0.000  0.014  0.000  0.014
tot    0.001  0.028  0.000  0.029
 
band    10 # energy    2.25708164 # occ.  0.00000000
 
ion      s      p      d    tot
    1  0.003  0.026  0.000  0.028
    2  0.003  0.026  0.000  0.028
tot    0.005  0.051  0.000  0.056
 
band    11 # energy    2.70515714 # occ.  0.00000000
 
ion      s      p      d    tot
    1  0.001  0.008  0.000  0.009
    2  0.001  0.008  0.000  0.009
tot    0.002  0.017  0.000  0.018
 
band    12 # energy    3.08847051 # occ.  0.00000000
 
ion      s      p      d    tot
    1  0.001  0.003  0.000  0.004
    2  0.001  0.003  0.000  0.004
tot    0.001  0.006  0.000  0.007
 
band    13 # energy    3.82010371 # occ.  0.00000000
 
ion      s      p      d    tot
    1  0.001  0.014  0.000  0.015
    2  0.001  0.014  0.000  0.015
tot    0.003  0.028  0.000  0.031
 
band    14 # energy    4.49156540 # occ.  0.00000000
 
ion      s      p      d    tot
    1  0.002  0.005  0.000  0.006
    2  0.002  0.005  0.000  0.006
tot    0.004  0.009  0.000  0.013
 
band    15 # energy    5.54116175 # occ.  0.00000000
 
ion      s      p      d    tot
    1  0.003  0.018  0.000  0.020
    2  0.003  0.018  0.000  0.020
tot    0.005  0.036  0.000  0.041
 
band    16 # energy    6.49604958 # occ.  0.00000000
 
ion      s      p      d    tot
    1  0.003  0.006  0.000  0.009
    2  0.003  0.006  0.000  0.009
tot    0.006  0.012  0.000  0.018
 

 k-point     5 :    0.20000000 0.00000000 0.00000000     weight = 0.01500000

band     1 # energy  -29.74460431 # occ.  2.00000000
 
ion      s      p      d    tot
    1  0.309  0.040  0.000  0.349
    2  0.309  0.040  0.000  0.349
tot    0.618  0.081  0.000  0.698
 
band     2 # energy  -14.45063388 # occ.  2.00000000
 
ion      s      p      d    tot
    1  0.229  0.100  0.000  0.329
    2  0.229  0.100  0.000  0.329
tot    0.459  0.200  0.000  0.658
 
band     3 # energy  -13.59854403 # occ.  2.00000000
 
ion      s      p      d    tot
    1  0.017  0.342  0.000  0.358
    2  0.017  0.342  0.000  0.358
tot    0.033  0.684  0.000  0.717
 
band     4 # energy  -10.72894396 # occ.  2.00000000
 
ion      s      p      d    tot
    1  0.000  0.407  0.000  0.407
    2  0.000  0.407  0.000  0.407
tot    0.000  0.814  0.000  0.814
 
band     5 # energy   -6.08936829 # occ.  2.00000000
 
ion      s      p      d    tot
    1  0.011  0.305  0.000  0.316
    2  0.011  0.305  0.000  0.316
tot    0.022  0.610  0.000  0.633
 
band     6 # energy   -1.72343763 # occ.  0.00000000
 
ion      s      p      d    tot
    1  0.086  0.273  0.000  0.359
    2  0.086  0.273  0.000  0.359
tot    0.172  0.546  0.000  0.717
 
band     7 # energy    0.69582134 # occ.  0.00000000
 
ion      s      p      d    tot
    1  0.000  0.413  0.000  0.413
    2  0.000  0.413  0.000  0.413
tot    0.000  0.825  0.000  0.825
 
band     8 # energy    1.92709607 # occ.  0.00000000
 
ion      s      p      d    tot
    1  0.126  0.278  0.000  0.404
    2  0.126  0.278  0.000  0.404
tot    0.252  0.556  0.000  0.808
 
band     9 # energy    2.66451417 # occ.  0.00000000
 
ion      s      p      d    tot
    1  0.002  0.010  0.000  0.012
    2  0.002  0.010  0.000  0.012
tot    0.005  0.019  0.000  0.024
 
band    10 # energy    2.91805229 # occ.  0.00000000
 
ion      s      p      d    tot
    1  0.006  0.041  0.000  0.047
    2  0.006  0.041  0.000  0.047
tot    0.011  0.082  0.000  0.093
 
band    11 # energy    3.36440158 # occ.  0.00000000
 
ion      s      p      d    tot
    1  0.001  0.011  0.000  0.012
    2  0.001  0.011  0.000  0.012
tot    0.002  0.022  0.000  0.024
 
band    12 # energy    3.74825797 # occ.  0.00000000
 
ion      s      p      d    tot
    1  0.001  0.002  0.000  0.004
    2  0.001  0.002  0.000  0.004
tot    0.002  0.005  0.000  0.007
 
band    13 # energy    4.46028069 # occ.  0.00000000
 
ion      s      p      d    tot
    1  0.001  0.016  0.000  0.017
    2  0.001  0.016  0.000  0.017
tot    0.003  0.031  0.000  0.034
 
band    14 # energy    5.14489140 # occ.  0.00000000
 
ion      s      p      d    tot
    1  0.002  0.004  0.000  0.007
    2  0.002  0.004  0.000  0.007
tot    0.005  0.009  0.000  0.013
 
band    15 # energy    6.15434321 # occ.  0.00000000
 
ion      s      p      d    tot
    1  0.002  0.018  0.000  0.021
    2  0.002  0.018  0.000  0.021
tot    0.005  0.037  0.000  0.042
 
band    16 # energy    7.14090008 # occ.  0.00000000
 
ion      s      p      d    tot
    1  0.004  0.006  0.000  0.010
    2  0.004  0.006  0.000  0.010
tot    0.007  0.012  0.000  0.020
 

 k-point     6 :    0.25000000 0.00000000 0.00000000     weight = 0.01500000

band     1 # energy  -29.11028671 # occ.  2.00000000
 
ion      s      p      d    tot
    1  0.304  0.048  0.000  0.352
    2  0.304  0.048  0.000  0.352
tot    0.608  0.096  0.000  0.704
 
band     2 # energy  -15.53575632 # occ.  2.00000000
 
ion      s      p      d    tot
    1  0.181  0.216  0.000  0.397
    2  0.181  0.216  0.000  0.397
tot    0.362  0.432  0.000  0.794
 
band     3 # energy  -13.62498551 # occ.  2.00000000
 
ion      s      p      d    tot
    1  0.085  0.203  0.000  0.289
    2  0.085  0.203  0.000  0.289
tot    0.171  0.407  0.000  0.578
 
band     4 # energy  -11.25174751 # occ.  2.00000000
 
ion      s      p      d    tot
    1  0.000  0.403  0.000  0.403
    2  0.000  0.403  0.000  0.403
tot    0.000  0.805  0.000  0.805
 
band     5 # energy   -6.05368124 # occ.  2.00000000
 
ion      s      p      d    tot
    1  0.020  0.316  0.000  0.336
    2  0.020  0.316  0.000  0.336
tot    0.040  0.632  0.000  0.672
 
band     6 # energy   -1.98088535 # occ.  0.00000000
 
ion      s      p      d    tot
    1  0.098  0.244  0.000  0.342
    2  0.098  0.244  0.000  0.342
tot    0.197  0.488  0.000  0.685
 
band     7 # energy    1.20450690 # occ.  0.00000000
 
ion      s      p      d    tot
    1  0.000  0.416  0.000  0.416
    2  0.000  0.416  0.000  0.416
tot    0.000  0.833  0.000  0.833
 
band     8 # energy    2.27355243 # occ.  0.00000000
 
ion      s      p      d    tot
    1  0.090  0.282  0.000  0.372
    2  0.090  0.282  0.000  0.372
tot    0.181  0.564  0.000  0.745
 
band     9 # energy    3.49410578 # occ.  0.00000000
 
ion      s      p      d    tot
    1  0.005  0.008  0.000  0.012
    2  0.005  0.008  0.000  0.012
tot    0.009  0.016  0.000  0.025
 
band    10 # energy    3.74893050 # occ.  0.00000000
 
ion      s      p      d    tot
    1  0.005  0.047  0.000  0.052
    2  0.005  0.047  0.000  0.052
tot    0.010  0.094  0.000  0.104
 
band    11 # energy    4.21029611 # occ.  0.00000000
 
ion      s      p      d    tot
    1  0.001  0.012  0.000  0.013
    2  0.001  0.012  0.000  0.013
tot    0.002  0.023  0.000  0.025
 
band    12 # energy    4.59733585 # occ.  0.00000000
 
ion      s      p      d    tot
    1  0.002  0.002  0.000  0.004
    2  0.002  0.002  0.000  0.004
tot    0.003  0.004  0.000  0.008
 
band    13 # energy    5.28404460 # occ.  0.00000000
 
ion      s      p      d    tot
    1  0.001  0.018  0.000  0.019
    2  0.001  0.018  0.000  0.019
tot    0.003  0.035  0.000  0.038
 
band    14 # energy    5.98495552 # occ.  0.00000000
 
ion      s      p      d    tot
    1  0.003  0.004  0.000  0.007
    2  0.003  0.004  0.000  0.007
tot    0.006  0.009  0.000  0.015
 
band    15 # energy    6.94401150 # occ.  0.00000000
 
ion      s      p      d    tot
    1  0.002  0.020  0.000  0.022
    2  0.002  0.020  0.000  0.022
tot    0.004  0.039  0.000  0.043
 
band    16 # energy    7.96837160 # occ.  0.00000000
 
ion      s      p      d    tot
    1  0.004  0.006  0.000  0.011
    2  0.004  0.006  0.000  0.011
tot    0.009  0.013  0.000  0.021
 

 k-point     7 :    0.30000000 0.00000000 0.00000000     weight = 0.01500000

band     1 # energy  -28.34713107 # occ.  2.00000000
 
ion      s      p      d    tot
    1  0.298  0.057  0.000  0.355
    2  0.298  0.057  0.000  0.355
tot    0.597  0.114  0.000  0.711
 
band     2 # energy  -17.18305643 # occ.  2.00000000
 
ion      s      p      d    tot
    1  0.174  0.214  0.000  0.388
    2  0.174  0.214  0.000  0.388
tot    0.348  0.428  0.000  0.775
 
band     3 # energy  -12.98577226 # occ.  2.00000000
 
ion      s      p      d    tot
    1  0.109  0.189  0.000  0.298
    2  0.109  0.189  0.000  0.298
tot    0.219  0.377  0.000  0.596
 
band     4 # energy  -11.72147505 # occ.  2.00000000
 
ion      s      p      d    tot
    1  0.000  0.400  0.000  0.400
    2  0.000  0.400  0.000  0.400
tot    0.000  0.799  0.000  0.799
 
band     5 # energy   -6.19340690 # occ.  2.00000000
 
ion      s      p      d    tot
    1  0.034  0.319  0.000  0.353
    2  0.034  0.319  0.000  0.353
tot    0.067  0.638  0.000  0.705
 
band     6 # energy   -2.11540625 # occ.  0.00000000
 
ion      s      p      d    tot
    1  0.105  0.224  0.000  0.329
    2  0.105  0.224  0.000  0.329
tot    0.210  0.447  0.000  0.657
 
band     7 # energy    1.62384559 # occ.  0.00000000
 
ion      s      p      d    tot
    1  0.000  0.417  0.000  0.417
    2  0.000  0.417  0.000  0.417
tot    0.000  0.835  0.000  0.835
 
band     8 # energy    2.30679890 # occ.  0.00000000
 
ion      s      p      d    tot
    1  0.063  0.281  0.000  0.344
    2  0.063  0.281  0.000  0.344
tot    0.127  0.562  0.000  0.688
 
band     9 # energy    4.50388809 # occ.  0.00000000
 
ion      s      p      d    tot
    1  0.005  0.009  0.000  0.014
    2  0.005  0.009  0.000  0.014
tot    0.010  0.018  0.000  0.028
 
band    10 # energy    4.72627264 # occ.  0.00000000
 
ion      s      p      d    tot
    1  0.003  0.045  0.000  0.048
    2  0.003  0.045  0.000  0.048
tot    0.007  0.089  0.000  0.096
 
band    11 # energy    5.23806803 # occ.  0.00000000
 
ion      s      p      d    tot
    1  0.000  0.009  0.000  0.009
    2  0.000  0.009  0.000  0.009
tot    0.001  0.018  0.000  0.019
 
band    12 # energy    5.63614631 # occ.  0.00000000
 
ion      s      p      d    tot
    1  0.002  0.002  0.000  0.004
    2  0.002  0.002  0.000  0.004
tot    0.004  0.005  0.000  0.009
 
band    13 # energy    6.28251884 # occ.  0.00000000
 
ion      s      p      d    tot
    1  0.001  0.017  0.000  0.018
    2  0.001  0.017  0.000  0.018
tot    0.002  0.035  0.000  0.037
 
band    14 # energy    7.01212700 # occ.  0.00000000
 
ion      s      p      d    tot
    1  0.003  0.005  0.000  0.008
    2  0.003  0.005  0.000  0.008
tot    0.007  0.010  0.000  0.016
 
band    15 # energy    7.90336185 # occ.  0.00000000
 
ion      s      p      d    tot
    1  0.002  0.020  0.000  0.022
    2  0.002  0.020  0.000  0.022
tot    0.003  0.040  0.000  0.043
 
band    16 # energy    8.97780266 # occ.  0.00000000
 
ion      s      p      d    tot
    1  0.005  0.008  0.000  0.012
    2  0.005  0.008  0.000  0.012
tot    0.010  0.015  0.000  0.025
 

 k-point     8 :    0.35000000 0.00000000 0.00000000     weight = 0.01500000

band     1 # energy  -27.46875477 # occ.  2.00000000
 
ion      s      p      d    tot
    1  0.293  0.067  0.000  0.360
    2  0.293  0.067  0.000  0.360
tot    0.587  0.133  0.000  0.720
 
band     2 # energy  -18.79954457 # occ.  2.00000000
 
ion      s      p      d    tot
    1  0.180  0.199  0.000  0.379
    2  0.180  0.199  0.000  0.379
tot    0.361  0.397  0.000  0.758
 
band     3 # energy  -12.24539685 # occ.  2.00000000
 
ion      s      p      d    tot
    1  0.117  0.192  0.000  0.309
    2  0.117  0.192  0.000  0.309
tot    0.234  0.385  0.000  0.618
 
band     4 # energy  -12.10980026 # occ.  2.00000000
 
ion      s      p      d    tot
    1  0.000  0.397  0.000  0.397
    2  0.000  0.397  0.000  0.397
tot    0.000  0.794  0.000  0.794
 
band     5 # energy   -6.55160040 # occ.  2.00000000
 
ion      s      p      d    tot
    1  0.048  0.312  0.000  0.360
    2  0.048  0.312  0.000  0.360
tot    0.097  0.624  0.000  0.720
 
band     6 # energy   -2.11213285 # occ.  0.00000000
 
ion      s      p      d    tot
    1  0.108  0.214  0.000  0.322
    2  0.108  0.214  0.000  0.322
tot    0.217  0.427  0.000  0.644
 
band     7 # energy    1.93672242 # occ.  0.00000000
 
ion      s      p      d    tot
    1  0.000  0.416  0.000  0.416
    2  0.000  0.416  0.000  0.416
tot    0.000  0.833  0.000  0.833
 
band     8 # energy    2.13503667 # occ.  0.00000000
 
ion      s      p      d    tot
    1  0.042  0.278  0.000  0.320
    2  0.042  0.278  0.000  0.320
tot    0.085  0.555  0.000  0.640
 
band     9 # energy    5.66602784 # occ.  0.00000000
 
ion      s      p      d    tot
    1  0.004  0.015  0.000  0.019
    2  0.004  0.015  0.000  0.019
tot    0.009  0.030  0.000  0.038
 
band    10 # energy    5.85938086 # occ.  0.00000000
 
ion      s      p      d    tot
    1  0.003  0.038  0.000  0.041
    2  0.003  0.038  0.000  0.041
tot    0.006  0.076  0.000  0.082
 
band    11 # energy    6.45158801 # occ.  0.00000000
 
ion      s      p      d    tot
    1  0.000  0.006  0.000  0.006
    2  0.000  0.006  0.000  0.006
tot    0.000  0.011  0.000  0.011
 
band    12 # energy    6.86332411 # occ.  0.00000000
 
ion      s      p      d    tot
    1  0.002  0.003  0.000  0.005
    2  0.002  0.003  0.000  0.005
tot    0.003  0.006  0.000  0.009
 
band    13 # energy    7.44911953 # occ.  0.00000000
 
ion      s      p      d    tot
    1  0.001  0.015  0.000  0.015
    2  0.001  0.015  0.000  0.015
tot    0.001  0.029  0.000  0.031
 
band    14 # energy    8.22395837 # occ.  0.00000000
 
ion      s      p      d    tot
    1  0.003  0.006  0.000  0.009
    2  0.003  0.006  0.000  0.009
tot    0.007  0.012  0.000  0.019
 
band    15 # energy    9.01992589 # occ.  0.00000000
 
ion      s      p      d    tot
    1  0.001  0.017  0.000  0.019
    2  0.001  0.017  0.000  0.019
tot    0.003  0.035  0.000  0.038
 
band    16 # energy   10.16324988 # occ.  0.00000000
 
ion      s      p      d    tot
    1  0.005  0.010  0.000  0.015
    2  0.005  0.010  0.000  0.015
tot    0.010  0.020  0.000  0.030
 

 k-point     9 :    0.40000000 0.00000000 0.00000000     weight = 0.01500000

band     1 # energy  -26.50856593 # occ.  2.00000000
 
ion      s      p      d    tot
    1  0.291  0.075  0.000  0.366
    2  0.291  0.075  0.000  0.366
tot    0.582  0.150  0.000  0.732
 
band     2 # energy  -20.30532276 # occ.  2.00000000
 
ion      s      p      d    tot
    1  0.186  0.185  0.000  0.370
    2  0.186  0.185  0.000  0.370
tot    0.371  0.369  0.000  0.741
 
band     3 # energy  -12.39825493 # occ.  2.00000000
 
ion      s      p      d    tot
    1  0.000  0.396  0.000  0.396
    2  0.000  0.396  0.000  0.396
tot    0.000  0.791  0.000  0.791
 
band     4 # energy  -11.47353102 # occ.  2.00000000
 
ion      s      p      d    tot
    1  0.122  0.200  0.000  0.322
    2  0.122  0.200  0.000  0.322
tot    0.243  0.400  0.000  0.644
 
band     5 # energy   -7.08475149 # occ.  2.00000000
 
ion      s      p      d    tot
    1  0.059  0.297  0.000  0.356
    2  0.059  0.297  0.000  0.356
tot    0.118  0.595  0.000  0.713
 
band     6 # energy   -2.02727404 # occ.  0.00000000
 
ion      s      p      d    tot
    1  0.112  0.209  0.000  0.321
    2  0.112  0.209  0.000  0.321
tot    0.224  0.418  0.000  0.642
 
band     7 # energy    1.90940830 # occ.  0.00000000
 
ion      s      p      d    tot
    1  0.026  0.279  0.000  0.305
    2  0.026  0.279  0.000  0.305
tot    0.052  0.558  0.000  0.610
 
band     8 # energy    2.14619264 # occ.  0.00000000
 
ion      s      p      d    tot
    1  0.000  0.414  0.000  0.414
    2  0.000  0.414  0.000  0.414
tot    0.000  0.829  0.000  0.829
 
band     9 # energy    6.90788620 # occ.  0.00000000
 
ion      s      p      d    tot
    1  0.003  0.024  0.000  0.028
    2  0.003  0.024  0.000  0.028
tot    0.007  0.048  0.000  0.055
 
band    10 # energy    7.18858506 # occ.  0.00000000
 
ion      s      p      d    tot
    1  0.004  0.027  0.000  0.031
    2  0.004  0.027  0.000  0.031
tot    0.007  0.054  0.000  0.061
 
band    11 # energy    7.85477767 # occ.  0.00000000
 
ion      s      p      d    tot
    1  0.000  0.003  0.000  0.003
    2  0.000  0.003  0.000  0.003
tot    0.000  0.006  0.000  0.006
 
band    12 # energy    8.27654089 # occ.  0.00000000
 
ion      s      p      d    tot
    1  0.001  0.004  0.000  0.005
    2  0.001  0.004  0.000  0.005
tot    0.003  0.007  0.000  0.010
 
band    13 # energy    8.77986668 # occ.  0.00000000
 
ion      s      p      d    tot
    1  0.000  0.010  0.000  0.011
    2  0.000  0.010  0.000  0.011
tot    0.001  0.021  0.000  0.022
 
band    14 # energy    9.61222158 # occ.  0.00000000
 
ion      s      p      d    tot
    1  0.003  0.008  0.000  0.011
    2  0.003  0.008  0.000  0.011
tot    0.006  0.016  0.000  0.022
 
band    15 # energy   10.27207518 # occ.  0.00000000
 
ion      s      p      d    tot
    1  0.001  0.012  0.000  0.013
    2  0.001  0.012  0.000  0.013
tot    0.001  0.025  0.000  0.026
 
band    16 # energy   11.48472673 # occ.  0.00000000
 
ion      s      p      d    tot
    1  0.004  0.017  0.000  0.021
    2  0.004  0.017  0.000  0.021
tot    0.008  0.034  0.000  0.042
 

 k-point    10 :    0.45000000 0.00000000 0.00000000     weight = 0.01500000

band     1 # energy  -25.57225039 # occ.  2.00000000
 
ion      s      p      d    tot
    1  0.295  0.079  0.000  0.374
    2  0.295  0.079  0.000  0.374
tot    0.590  0.158  0.000  0.748
 
band     2 # energy  -21.57515711 # occ.  2.00000000
 
ion      s      p      d    tot
    1  0.183  0.177  0.000  0.361
    2  0.183  0.177  0.000  0.361
tot    0.367  0.354  0.000  0.721
 
band     3 # energy  -12.57521659 # occ.  2.00000000
 
ion      s      p      d    tot
    1  0.000  0.395  0.000  0.395
    2  0.000  0.395  0.000  0.395
tot    0.000  0.790  0.000  0.790
 
band     4 # energy  -10.78498546 # occ.  2.00000000
 
ion      s      p      d    tot
    1  0.128  0.208  0.000  0.336
    2  0.128  0.208  0.000  0.336
tot    0.256  0.417  0.000  0.673
 
band     5 # energy   -7.64937170 # occ.  2.00000000
 
ion      s      p      d    tot
    1  0.061  0.284  0.000  0.345
    2  0.061  0.284  0.000  0.345
tot    0.123  0.568  0.000  0.690
 
band     6 # energy   -1.94063310 # occ.  0.00000000
 
ion      s      p      d    tot
    1  0.116  0.205  0.000  0.322
    2  0.116  0.205  0.000  0.322
tot    0.232  0.411  0.000  0.643
 
band     7 # energy    1.74216789 # occ.  0.00000000
 
ion      s      p      d    tot
    1  0.015  0.284  0.000  0.300
    2  0.015  0.284  0.000  0.300
tot    0.031  0.569  0.000  0.600
 
band     8 # energy    2.26432300 # occ.  0.00000000
 
ion      s      p      d    tot
    1  0.000  0.413  0.000  0.413
    2  0.000  0.413  0.000  0.413
tot    0.000  0.825  0.000  0.825
 
band     9 # energy    8.14528068 # occ.  0.00000000
 
ion      s      p      d    tot