<?xml version="1.0" encoding="ISO-8859-1"?>
<modeling>
 <generator>
  <i name="program" type="string">vasp </i>
  <i name="version" type="string">6.4.2  </i>
  <i name="subversion" type="string">20Jul23 (build Nov 14 2023 12:59:38) complex                          parallel </i>
  <i name="platform" type="string">LinuxIFC </i>
  <i name="date" type="string">2023 12 18 </i>
  <i name="time" type="string">09:39:38 </i>
 </generator>
 <incar>
  <i type="string" name="PREC">Accurate</i>
  <i type="string" name="ALGO">Normal</i>
  <i type="logical" name="ADDGRID"> T  </i>
  <i type="int" name="ISPIN">     1</i>
  <i name="AMIX">      0.10000000</i>
  <i name="BMIX">      0.00010000</i>
  <i type="int" name="NELM">   200</i>
  <i type="int" name="NELMDL">   -12</i>
  <i type="int" name="NELMIN">     6</i>
  <i type="int" name="IBRION">     2</i>
  <i name="EDIFF">      0.00000100</i>
  <i name="EDIFFG">     -0.01000000</i>
  <i type="int" name="NSW">     0</i>
  <i type="int" name="ISIF">    -1</i>
  <i name="ENCUT">    473.51475000</i>
  <i name="POTIM">      0.50000000</i>
  <i type="int" name="NEDOS">  6001</i>
  <i type="logical" name="LPLANE"> T  </i>
  <i type="int" name="ISMEAR">     0</i>
  <i name="SIGMA">      0.01000000</i>
  <i type="int" name="NWRITE">     1</i>
  <i type="logical" name="LWAVE"> F  </i>
  <i type="logical" name="LCHARG"> F  </i>
  <i type="int" name="LORBIT">    10</i>
  <i type="logical" name="LASPH"> T  </i>
  <i type="logical" name="LEPSILON"> T  </i>
  <i type="int" name="IVDW">     0</i>
 </incar>
 <primitive_cell>
  <structure name="primitive_cell" >
   <crystal>
    <varray name="basis" >
     <v>       2.29449868       0.00000000       0.00000000 </v>
     <v>      -1.14724934       1.98709415       0.00000000 </v>
     <v>       0.00000000       0.00000000      24.00000000 </v>
    </varray>
    <i name="volume">    109.42523766 </i>
    <varray name="rec_basis" >
     <v>       0.43582505       0.25162371       0.00000000 </v>
     <v>       0.00000000       0.50324742       0.00000000 </v>
     <v>       0.00000000       0.00000000       0.04166667 </v>
    </varray>
   </crystal>
   <varray name="positions" >
    <v>       0.66666669       0.33333334       0.31881458 </v>
    <v>       0.33333334       0.66666669       0.34785211 </v>
   </varray>
  </structure>
  <varray name="primitive_index" >
   <v type="int" >        1 </v>
   <v type="int" >        2 </v>
  </varray>
 </primitive_cell>
 <kpoints>
  <generation param="Gamma">
   <v type="int" name="divisions">      20       20        1 </v>
   <v name="usershift">      0.00000000       0.00000000       0.00000000 </v>
   <v name="genvec1">      0.05000000      -0.00000000       0.00000000 </v>
   <v name="genvec2">      0.00000000       0.05000000       0.00000000 </v>
   <v name="genvec3">      0.00000000       0.00000000       1.00000000 </v>
   <v name="shift">      0.00000000       0.00000000       0.00000000 </v>
  </generation>
  <varray name="kpointlist" >
   <v>       0.00000000       0.00000000       0.00000000 </v>
   <v>       0.05000000       0.00000000       0.00000000 </v>
   <v>       0.10000000       0.00000000       0.00000000 </v>
   <v>       0.15000000       0.00000000       0.00000000 </v>
   <v>       0.20000000       0.00000000       0.00000000 </v>
   <v>       0.25000000       0.00000000       0.00000000 </v>
   <v>       0.30000000       0.00000000       0.00000000 </v>
   <v>       0.35000000       0.00000000       0.00000000 </v>
   <v>       0.40000000       0.00000000       0.00000000 </v>
   <v>       0.45000000       0.00000000       0.00000000 </v>
   <v>       0.50000000       0.00000000       0.00000000 </v>
   <v>       0.05000000       0.05000000       0.00000000 </v>
   <v>       0.10000000       0.05000000       0.00000000 </v>
   <v>       0.15000000       0.05000000       0.00000000 </v>
   <v>       0.20000000       0.05000000       0.00000000 </v>
   <v>       0.25000000       0.05000000       0.00000000 </v>
   <v>       0.30000000       0.05000000       0.00000000 </v>
   <v>       0.35000000       0.05000000       0.00000000 </v>
   <v>       0.40000000       0.05000000       0.00000000 </v>
   <v>       0.45000000       0.05000000       0.00000000 </v>
   <v>       0.10000000       0.10000000       0.00000000 </v>
   <v>       0.15000000       0.10000000       0.00000000 </v>
   <v>       0.20000000       0.10000000       0.00000000 </v>
   <v>       0.25000000       0.10000000       0.00000000 </v>
   <v>       0.30000000       0.10000000       0.00000000 </v>
   <v>       0.35000000       0.10000000       0.00000000 </v>
   <v>       0.40000000       0.10000000       0.00000000 </v>
   <v>       0.45000000       0.10000000       0.00000000 </v>
   <v>       0.15000000       0.15000000       0.00000000 </v>
   <v>       0.20000000       0.15000000       0.00000000 </v>
   <v>       0.25000000       0.15000000       0.00000000 </v>
   <v>       0.30000000       0.15000000       0.00000000 </v>
   <v>       0.35000000       0.15000000       0.00000000 </v>
   <v>       0.40000000       0.15000000       0.00000000 </v>
   <v>       0.20000000       0.20000000       0.00000000 </v>
   <v>       0.25000000       0.20000000       0.00000000 </v>
   <v>       0.30000000       0.20000000       0.00000000 </v>
   <v>       0.35000000       0.20000000       0.00000000 </v>
   <v>       0.40000000       0.20000000       0.00000000 </v>
   <v>       0.25000000       0.25000000       0.00000000 </v>
   <v>       0.30000000       0.25000000       0.00000000 </v>
   <v>       0.35000000       0.25000000       0.00000000 </v>
   <v>       0.30000000       0.30000000       0.00000000 </v>
   <v>       0.35000000       0.30000000       0.00000000 </v>
  </varray>
  <varray name="weights" >
   <v>       0.00250000 </v>
   <v>       0.01500000 </v>
   <v>       0.01500000 </v>
   <v>       0.01500000 </v>
   <v>       0.01500000 </v>
   <v>       0.01500000 </v>
   <v>       0.01500000 </v>
   <v>       0.01500000 </v>
   <v>       0.01500000 </v>
   <v>       0.01500000 </v>
   <v>       0.00750000 </v>
   <v>       0.01500000 </v>
   <v>       0.03000000 </v>
   <v>       0.03000000 </v>
   <v>       0.03000000 </v>
   <v>       0.03000000 </v>
   <v>       0.03000000 </v>
   <v>       0.03000000 </v>
   <v>       0.03000000 </v>
   <v>       0.03000000 </v>
   <v>       0.01500000 </v>
   <v>       0.03000000 </v>
   <v>       0.03000000 </v>
   <v>       0.03000000 </v>
   <v>       0.03000000 </v>
   <v>       0.03000000 </v>
   <v>       0.03000000 </v>
   <v>       0.01500000 </v>
   <v>       0.01500000 </v>
   <v>       0.03000000 </v>
   <v>       0.03000000 </v>
   <v>       0.03000000 </v>
   <v>       0.03000000 </v>
   <v>       0.03000000 </v>
   <v>       0.01500000 </v>
   <v>       0.03000000 </v>
   <v>       0.03000000 </v>
   <v>       0.03000000 </v>
   <v>       0.01500000 </v>
   <v>       0.01500000 </v>
   <v>       0.03000000 </v>
   <v>       0.03000000 </v>
   <v>       0.01500000 </v>
   <v>       0.01500000 </v>
  </varray>
 </kpoints>
 <parameters>
  <separator name="general" >
   <i type="string" name="SYSTEM">unknown system</i>
   <i type="logical" name="LCOMPAT"> F  </i>
  </separator>
  <separator name="electronic" >
   <i type="string" name="PREC">accura</i>
   <i name="ENMAX">    473.51475000</i>
   <i name="ENAUG">    904.64000000</i>
   <i name="EDIFF">      0.00000100</i>
   <i type="int" name="IALGO">    38</i>
   <i type="int" name="IWAVPR">    10</i>
   <i type="int" name="NBANDS">    16</i>
   <i type="int" name="NBANDSLOW">    -1</i>
   <i type="int" name="NBANDSHIGH">    -1</i>
   <i name="NELECT">     10.00000000</i>
   <i type="int" name="TURBO">     0</i>
   <i type="int" name="IRESTART">     0</i>
   <i type="int" name="NREBOOT">     0</i>
   <i type="int" name="NMIN">     0</i>
   <i name="EREF">      0.00000000</i>
   <separator name="electronic smearing" >
    <i type="int" name="ISMEAR">     0</i>
    <i name="SIGMA">      0.01000000</i>
    <i name="KSPACING">      0.50000000</i>
    <i type="logical" name="KGAMMA"> T  </i>
    <i type="logical" name="KBLOWUP"> T  </i>
   </separator>
   <separator name="electronic projectors" >
    <i type="logical" name="LREAL"> F  </i>
    <v name="ROPT">      0.00000000</v>
    <i type="int" name="LMAXPAW">  -100</i>
    <i type="int" name="LMAXMIX">     2</i>
    <i type="logical" name="NLSPLINE"> F  </i>
   </separator>
   <separator name="electronic startup" >
    <i type="int" name="ISTART">     0</i>
    <i type="int" name="ICHARG">     2</i>
    <i type="int" name="INIWAV">     1</i>
   </separator>
   <separator name="electronic spin" >
    <i type="int" name="ISPIN">     1</i>
    <i type="logical" name="LNONCOLLINEAR"> F  </i>
    <v name="MAGMOM">      1.00000000      1.00000000</v>
    <i name="NUPDOWN">     -1.00000000</i>
    <i type="logical" name="LSORBIT"> F  </i>
    <v name="SAXIS">      0.00000000      0.00000000      1.00000000</v>
    <i type="logical" name="LSPIRAL"> F  </i>
    <v name="QSPIRAL">      0.00000000      0.00000000      0.00000000</v>
    <i type="logical" name="LZEROZ"> F  </i>
   </separator>
   <separator name="electronic exchange-correlation" >
    <i type="logical" name="LASPH"> T  </i>
    <i type="logical" name="LMETAGGA"> F  </i>
   </separator>
   <separator name="electronic convergence" >
    <i type="int" name="NELM">   200</i>
    <i type="int" name="NELMDL">   -12</i>
    <i type="int" name="NELMIN">     6</i>
    <i name="ENINI">    473.51475000</i>
    <separator name="electronic convergence detail" >
     <i type="logical" name="LDIAG"> T  </i>
     <i type="logical" name="LSUBROT"> F  </i>
     <i name="WEIMIN">      0.00000000</i>
     <i name="EBREAK">      0.00000002</i>
     <i name="DEPER">      0.30000000</i>
     <i type="int" name="NRMM">     4</i>
     <i name="TIME">      0.40000000</i>
    </separator>
   </separator>
   <separator name="electronic mixer" >
    <i name="AMIX">      0.10000000</i>
    <i name="BMIX">      0.00010000</i>
    <i name="AMIN">      0.10000000</i>
    <i name="AMIX_MAG">      0.40000000</i>
    <i name="BMIX_MAG">      0.00010000</i>
    <separator name="electronic mixer details" >
     <i type="int" name="IMIX">     4</i>
     <i type="logical" name="MIXFIRST"> F  </i>
     <i type="int" name="MAXMIX">   -45</i>
     <i name="WC">    100.00000000</i>
     <i type="int" name="INIMIX">     1</i>
     <i type="int" name="MIXPRE">     1</i>
     <i type="int" name="MREMOVE">     5</i>
    </separator>
   </separator>
   <separator name="electronic dipolcorrection" >
    <i type="logical" name="LDIPOL"> F  </i>
    <i type="logical" name="LMONO"> F  </i>
    <i type="int" name="IDIPOL">     0</i>
    <i name="EPSILON">      1.00000000</i>
    <v name="DIPOL">   -100.00000000   -100.00000000   -100.00000000</v>
    <i name="EFIELD">      0.00000000</i>
   </separator>
  </separator>
  <separator name="grids" >
   <i type="int" name="NGX">    16</i>
   <i type="int" name="NGY">    16</i>
   <i type="int" name="NGZ">   180</i>
   <i type="int" name="NGXF">    32</i>
   <i type="int" name="NGYF">    32</i>
   <i type="int" name="NGZF">   360</i>
   <i type="logical" name="ADDGRID"> T  </i>
  </separator>
  <separator name="ionic" >
   <i type="int" name="NSW">     0</i>
   <i type="int" name="IBRION">    -1</i>
   <i type="int" name="MDALGO">     0</i>
   <i type="int" name="ISIF">    -1</i>
   <i name="PSTRESS">      0.00000000</i>
   <i name="EDIFFG">     -0.01000000</i>
   <i type="int" name="NFREE">     1</i>
   <i name="POTIM">      0.50000000</i>
   <i name="SMASS">     -3.00000000</i>
   <i name="SCALEE">      1.00000000</i>
  </separator>
  <separator name="ionic md" >
   <i name="TEBEG">      0.00010000</i>
   <i name="TEEND">      0.00010000</i>
   <i type="int" name="NBLOCK">     1</i>
   <i type="int" name="KBLOCK">     1</i>
   <i type="int" name="NPACO">   256</i>
   <i name="APACO">     10.00000000</i>
  </separator>
  <separator name="symmetry" >
   <i type="int" name="ISYM">     2</i>
   <i name="SYMPREC">      0.00001000</i>
  </separator>
  <separator name="dos" >
   <i type="int" name="LORBIT">    10</i>
   <v name="RWIGS">     -1.00000000</v>
   <i type="int" name="NEDOS">  6001</i>
   <i name="EMIN">     10.00000000</i>
   <i name="EMAX">    -10.00000000</i>
   <i name="EFERMI">      0.00000000</i>
  </separator>
  <separator name="writing" >
   <i type="int" name="NWRITE">     1</i>
   <i type="logical" name="LWAVE"> F  </i>
   <i type="logical" name="LDOWNSAMPLE"> F  </i>
   <i type="logical" name="LCHARG"> F  </i>
   <i type="logical" name="LPARD"> F  </i>
   <i type="logical" name="LVTOT"> F  </i>
   <i type="logical" name="LVHAR"> F  </i>
   <i type="logical" name="LELF"> F  </i>
   <i type="logical" name="LOPTICS"> F  </i>
   <v name="STM">      0.00000000      0.00000000      0.00000000      0.00000000      0.00000000      0.00000000      0.00000000</v>
  </separator>
  <separator name="performance" >
   <i type="int" name="NPAR">    16</i>
   <i type="int" name="NSIM">     4</i>
   <i type="int" name="NBLK">    -1</i>
   <i type="logical" name="LPLANE"> T  </i>
   <i type="logical" name="LSCALAPACK"> T  </i>
   <i type="logical" name="LSCAAWARE"> F  </i>
   <i type="logical" name="LSCALU"> F  </i>
   <i type="logical" name="LASYNC"> F  </i>
   <i type="logical" name="LORBITALREAL"> F  </i>
  </separator>
  <separator name="miscellaneous" >
   <i type="int" name="IDIOT">     3</i>
   <i type="int" name="PHON_NSTRUCT">    -1</i>
   <i type="logical" name="LMUSIC"> F  </i>
   <v name="POMASS">     14.00100000</v>
   <v name="DARWINR">      0.00000000</v>
   <v name="DARWINV">      1.00000000</v>
   <i type="logical" name="LCORR"> T  </i>
  </separator>
  <i type="logical" name="GGA_COMPAT"> T  </i>
  <i type="logical" name="LBERRY"> F  </i>
  <i type="int" name="ICORELEVEL">     0</i>
  <i type="logical" name="LDAU"> F  </i>
  <i type="int" name="I_CONSTRAINED_M">     0</i>
  <separator name="electronic exchange-correlation" >
   <i type="string" name="GGA">--</i>
   <i type="int" name="VOSKOWN">     0</i>
   <i type="logical" name="LHFCALC"> F  </i>
   <i type="string" name="PRECFOCK"></i>
   <i type="logical" name="LSYMGRAD"> F  </i>
   <i type="logical" name="LHFONE"> F  </i>
   <i type="logical" name="LRHFCALC"> F  </i>
   <i type="logical" name="LTHOMAS"> F  </i>
   <i type="logical" name="LMODELHF"> F  </i>
   <i type="logical" name="LFOCKACE"> F  </i>
   <i name="ENCUT4O">     -1.00000000</i>
   <i type="int" name="EXXOEP">     0</i>
   <i type="int" name="FOURORBIT">     0</i>
   <i name="AEXX">      0.00000000</i>
   <i name="HFALPHA">      0.00000000</i>
   <i name="MCALPHA">      0.00000000</i>
   <i name="ALDAX">      1.00000000</i>
   <i name="AGGAX">      1.00000000</i>
   <i name="ALDAC">      1.00000000</i>
   <i name="AGGAC">      1.00000000</i>
   <i type="int" name="NKREDX">     1</i>
   <i type="int" name="NKREDY">     1</i>
   <i type="int" name="NKREDZ">     1</i>
   <i type="logical" name="SHIFTRED"> F  </i>
   <i type="logical" name="ODDONLY"> F  </i>
   <i type="logical" name="EVENONLY"> F  </i>
   <i type="int" name="LMAXFOCK">     0</i>
   <i type="int" name="NMAXFOCKAE">     0</i>
   <i type="logical" name="LFOCKAEDFT"> F  </i>
   <i name="HFSCREEN">      0.00000000</i>
   <i name="HFSCREENC">      0.00000000</i>
   <i type="int" name="NBANDSGWLOW">     0</i>
  </separator>
  <separator name="vdW DFT" >
   <i type="logical" name="LUSE_VDW"> F  </i>
   <i type="int" name="IVDW_NL">     1</i>
   <i type="logical" name="LSPIN_VDW"> F  </i>
   <i name="Zab_VDW">     -0.84910000</i>
   <i name="PARAM1">      0.12340000</i>
   <i name="PARAM2">      1.00000000</i>
   <i name="PARAM3">      0.00000000</i>
  </separator>
  <separator name="model GW" >
   <i type="int" name="MODEL_GW">     0</i>
   <i name="MODEL_EPS0">     32.82757130</i>
   <i name="MODEL_ALPHA">      1.00000000</i>
  </separator>
  <separator name="linear response parameters" >
   <i type="logical" name="LEPSILON"> T  </i>
   <i type="logical" name="LRPA"> F  </i>
   <i type="logical" name="LNABLA"> F  </i>
   <i type="logical" name="LVEL"> F  </i>
   <i name="CSHIFT">      0.10000000</i>
   <i name="OMEGAMAX">     -1.00000000</i>
   <i name="DEG_THRESHOLD">      0.00200000</i>
   <i name="RTIME">     -0.10000000</i>
   <i name="WPLASMAI">      0.00000000</i>
   <v name="DFIELD">      0.00000000      0.00000000      0.00000000</v>
   <v name="WPLASMA">      0.00000000      0.00000000      0.00000000      0.00000000      0.00000000      0.00000000      0.00000000      0.00000000      0.00000000</v>
  </separator>
  <separator name="orbital magnetization" >
   <i type="logical" name="NUCIND"> F  </i>
   <v name="MAGPOS">      0.00000000      0.00000000      0.00000000</v>
   <i type="logical" name="LNICSALL"> T  </i>
   <i type="logical" name="ORBITALMAG"> F  </i>
   <i type="logical" name="LMAGBLOCH"> F  </i>
   <i type="logical" name="LCHIMAG"> F  </i>
   <i type="logical" name="LGAUGE"> T  </i>
   <i type="int" name="MAGATOM">     0</i>
   <v name="MAGDIPOL">      0.00000000      0.00000000      0.00000000</v>
   <v name="AVECCONST">      0.00000000      0.00000000      0.00000000</v>
  </separator>
  <separator name="response functions" >
   <i type="logical" name="LALL_IN_ONE"> F  </i>
   <i type="int" name="IALL_IN_ONE">    -1</i>
   <i type="int" name="NBANDS_WAVE">    -1</i>
   <i type="logical" name="LFINITE_TEMPERATURE"> F  </i>
   <i type="logical" name="LADDER"> F  </i>
   <i type="logical" name="LRPAFORCE"> F  </i>
   <i type="logical" name="LFXC"> F  </i>
   <i type="logical" name="LHARTREE"> T  </i>
   <i type="int" name="IBSE">     0</i>
   <v type="int" name="KPOINT">    -1     0     0     0</v>
   <i type="logical" name="LTCTC"> F  </i>
   <i type="logical" name="LTCTE"> F  </i>
   <i type="logical" name="LTETE"> F  </i>
   <i type="logical" name="LTRIPLET"> F  </i>
   <i type="logical" name="LFXCEPS"> F  </i>
   <i type="logical" name="LFXHEG"> F  </i>
   <i type="int" name="NATURALO">     2</i>
   <i type="logical" name="LHOLEGF"> F  </i>
   <i type="logical" name="L2ORDER"> F  </i>
   <i type="logical" name="LDMP1"> F  </i>
   <i type="logical" name="LMP2LT"> F  </i>
   <i type="logical" name="LSMP2LT"> F  </i>
   <i type="logical" name="LGWLF"> F  </i>
   <i name="ENCUTGW">     -1.60000002</i>
   <i name="ENCUTGWSOFT">     -1.60000002</i>
   <i name="ENCUTLF">     -1.00000000</i>
   <i type="logical" name="LESF_SPLINES"> F  </i>
   <i type="int" name="LMAXMP2">    -1</i>
   <i name="SCISSOR">      0.00000000</i>
   <i type="int" name="NOMEGA">     0</i>
   <i type="int" name="NOMEGAR">     0</i>
   <i type="int" name="NBANDSGW">    -1</i>
   <i type="int" name="NBANDSO">    -1</i>
   <i type="int" name="NBANDSV">    -1</i>
   <i type="int" name="NELMGW">     1</i>
   <i type="int" name="NELMHF">     1</i>
   <i type="int" name="DIM">     3</i>
   <i type="int" name="IESPILON">     4</i>
   <i type="int" name="ANTIRES">     0</i>
   <i name="OMEGAMAX">    -30.00000000</i>
   <i name="OMEGAMIN">    -30.00000000</i>
   <i name="OMEGATL">   -200.00000000</i>
   <i type="int" name="OMEGAGRID">     0</i>
   <i name="CSHIFT">     -0.10000000</i>
   <i type="logical" name="LSELFENERGY"> F  </i>
   <i type="logical" name="LSPECTRAL"> F  </i>
   <i type="logical" name="LSPECTRALGW"> F  </i>
   <i type="logical" name="LSINGLES"> F  </i>
   <i type="logical" name="LFERMIGW"> F  </i>
   <i type="logical" name="ODDONLYGW"> F  </i>
   <i type="logical" name="EVENONLYGW"> F  </i>
   <i type="int" name="NKREDLFX">     1</i>
   <i type="int" name="NKREDLFY">     1</i>
   <i type="int" name="NKREDLFZ">     1</i>
   <i type="int" name="MAXMEM">  2800</i>
   <i type="int" name="TELESCOPE">     0</i>
   <i type="int" name="NTAUPAR">    -1</i>
   <i type="int" name="NOMEGAPAR">    -1</i>
   <i name="DAMP_NEWTON">      0.80000001</i>
   <i name="LAMBDA">      1.00000000</i>
  </separator>
  <separator name="External order field" >
   <i name="OFIELD_KAPPA">      0.00000000</i>
   <v name="OFIELD_K">      0.00000000      0.00000000      0.00000000</v>
   <i name="OFIELD_Q6_NEAR">      0.00000000</i>
   <i name="OFIELD_Q6_FAR">      0.00000000</i>
   <i name="OFIELD_A">      0.00000000</i>
  </separator>
  <separator name="optional k-points parameters" >
   <i type="int" name="KPOINTS_OPT_MODE">     1</i>
   <i type="logical" name="LKPOINTS_OPT"> F  </i>
  </separator>
 </parameters>
 <atominfo>
  <atoms>       2 </atoms>
  <types>       1 </types>
  <array name="atoms" >
   <dimension dim="1">ion</dimension>
   <field type="string">element</field>
   <field type="int">atomtype</field>
   <set>
    <rc><c>N </c><c>   1</c></rc>
    <rc><c>N </c><c>   1</c></rc>
   </set>
  </array>
  <array name="atomtypes" >
   <dimension dim="1">type</dimension>
   <field type="int">atomspertype</field>
   <field type="string">element</field>
   <field>mass</field>
   <field>valence</field>
   <field type="string">pseudopotential</field>
   <set>
    <rc><c>   2</c><c>N </c><c>     14.00100000</c><c>      5.00000000</c><c>  PAW_PBE N_GW 10Apr2007                </c></rc>
   </set>
  </array>
 </atominfo>
 <structure name="initialpos" >
  <crystal>
   <varray name="basis" >
    <v>       2.29449868       0.00000000       0.00000000 </v>
    <v>      -1.14724934       1.98709415       0.00000000 </v>
    <v>       0.00000000       0.00000000      24.00000000 </v>
   </varray>
   <i name="volume">    109.42523766 </i>
   <varray name="rec_basis" >
    <v>       0.43582505       0.25162371       0.00000000 </v>
    <v>       0.00000000       0.50324742       0.00000000 </v>
    <v>       0.00000000       0.00000000       0.04166667 </v>
   </varray>
  </crystal>
  <varray name="positions" >
   <v>       0.66666669       0.33333334       0.31881458 </v>
   <v>       0.33333334       0.66666669       0.34785211 </v>
  </varray>
 </structure>
 <calculation>
  <scstep>
   <time name="dav">    0.43    0.43</time>
   <time name="total">    0.55    0.55</time>
   <energy>
    <i name="alphaZ">      3.97942586 </i>
    <i name="ewald">   2928.56821624 </i>
    <i name="hartreedc">  -3363.15802797 </i>
    <i name="XCdc">     40.24275460 </i>
    <i name="pawpsdc">    409.78799272 </i>
    <i name="pawaedc">   -412.24743296 </i>
    <i name="eentropy">     -0.00008081 </i>
    <i name="bandstr">    -67.74789980 </i>
    <i name="atom">    529.06779047 </i>
    <i name="e_fr_energy">     68.49273833 </i>
    <i name="e_wo_entrp">     68.49281914 </i>
    <i name="e_0_energy">     68.49277874 </i>
   </energy>
  </scstep>
  <scstep>
   <time name="dav">    0.63    0.63</time>
   <time name="total">    0.63    0.63</time>
   <energy>
    <i name="e_fr_energy">    -12.02330470 </i>
    <i name="e_wo_entrp">    -12.02330470 </i>
    <i name="e_0_energy">    -12.02330470 </i>
   </energy>
  </scstep>
  <scstep>
   <time name="dav">    0.43    0.43</time>
   <time name="total">    0.43    0.43</time>
   <energy>
    <i name="e_fr_energy">    -14.03944405 </i>
    <i name="e_wo_entrp">    -14.03944405 </i>
    <i name="e_0_energy">    -14.03944405 </i>
   </energy>
  </scstep>
  <scstep>
   <time name="dav">    0.58    0.58</time>
   <time name="total">    0.58    0.58</time>
   <energy>
    <i name="e_fr_energy">    -14.04442719 </i>
    <i name="e_wo_entrp">    -14.04442719 </i>
    <i name="e_0_energy">    -14.04442719 </i>
   </energy>
  </scstep>
  <scstep>
   <time name="dav">    0.48    0.48</time>
   <time name="total">    0.48    0.48</time>
   <energy>
    <i name="e_fr_energy">    -14.04444155 </i>
    <i name="e_wo_entrp">    -14.04444155 </i>
    <i name="e_0_energy">    -14.04444155 </i>
   </energy>
  </scstep>
  <scstep>
   <time name="dav">    0.69    0.69</time>
   <time name="total">    0.69    0.69</time>
   <energy>
    <i name="e_fr_energy">    -14.04444176 </i>
    <i name="e_wo_entrp">    -14.04444176 </i>
    <i name="e_0_energy">    -14.04444176 </i>
   </energy>
  </scstep>
  <scstep>
   <time name="dav">    0.45    0.45</time>
   <time name="total">    0.45    0.45</time>
   <energy>
    <i name="e_fr_energy">    -14.04444177 </i>
    <i name="e_wo_entrp">    -14.04444177 </i>
    <i name="e_0_energy">    -14.04444177 </i>
   </energy>
  </scstep>
  <scstep>
   <time name="dav">    0.47    0.48</time>
   <time name="total">    0.48    0.48</time>
   <energy>
    <i name="e_fr_energy">    -14.04444177 </i>
    <i name="e_wo_entrp">    -14.04444177 </i>
    <i name="e_0_energy">    -14.04444177 </i>
   </energy>
  </scstep>
  <scstep>
   <time name="dav">    0.40    0.40</time>
   <time name="total">    0.40    0.40</time>
   <energy>
    <i name="e_fr_energy">    -14.04444177 </i>
    <i name="e_wo_entrp">    -14.04444177 </i>
    <i name="e_0_energy">    -14.04444177 </i>
   </energy>
  </scstep>
  <scstep>
   <time name="dav">    0.33    0.33</time>
   <time name="total">    0.33    0.33</time>
   <energy>
    <i name="e_fr_energy">    -14.04444177 </i>
    <i name="e_wo_entrp">    -14.04444177 </i>
    <i name="e_0_energy">    -14.04444177 </i>
   </energy>
  </scstep>
  <scstep>
   <time name="dav">    0.28    0.28</time>
   <time name="total">    0.28    0.28</time>
   <energy>
    <i name="e_fr_energy">    -14.04444177 </i>
    <i name="e_wo_entrp">    -14.04444177 </i>
    <i name="e_0_energy">    -14.04444177 </i>
   </energy>
  </scstep>
  <scstep>
   <time name="dav">    0.32    0.32</time>
   <time name="total">    0.39    0.39</time>
   <energy>
    <i name="e_fr_energy">    -14.04444177 </i>
    <i name="e_wo_entrp">    -14.04444177 </i>
    <i name="e_0_energy">    -14.04444177 </i>
   </energy>
  </scstep>
  <scstep>
   <time name="dav">    0.64    0.64</time>
   <time name="total">    0.81    0.93</time>
   <energy>
    <i name="e_fr_energy">    -13.85453736 </i>
    <i name="e_wo_entrp">    -13.85453736 </i>
    <i name="e_0_energy">    -13.85453736 </i>
   </energy>
  </scstep>
  <scstep>
   <time name="dav">    0.51    0.51</time>
   <time name="total">    0.68    0.68</time>
   <energy>
    <i name="e_fr_energy">    -13.41729028 </i>
    <i name="e_wo_entrp">    -13.41729028 </i>
    <i name="e_0_energy">    -13.41729028 </i>
   </energy>
  </scstep>
  <scstep>
   <time name="dav">    0.43    0.43</time>
   <time name="total">    0.60    0.60</time>
   <energy>
    <i name="e_fr_energy">    -13.41792538 </i>
    <i name="e_wo_entrp">    -13.41792538 </i>
    <i name="e_0_energy">    -13.41792538 </i>
   </energy>
  </scstep>
  <scstep>
   <time name="dav">    0.63    0.63</time>
   <time name="total">    0.80    0.81</time>
   <energy>
    <i name="e_fr_energy">    -13.42007416 </i>
    <i name="e_wo_entrp">    -13.42007416 </i>
    <i name="e_0_energy">    -13.42007416 </i>
   </energy>
  </scstep>
  <scstep>
   <time name="dav">    0.68    0.68</time>
   <time name="total">    0.84    0.84</time>
   <energy>
    <i name="e_fr_energy">    -13.41980540 </i>
    <i name="e_wo_entrp">    -13.41980540 </i>
    <i name="e_0_energy">    -13.41980540 </i>
   </energy>
  </scstep>
  <scstep>
   <time name="dav">    0.64    0.64</time>
   <time name="total">    0.81    0.82</time>
   <energy>
    <i name="e_fr_energy">    -13.41981500 </i>
    <i name="e_wo_entrp">    -13.41981500 </i>
    <i name="e_0_energy">    -13.41981500 </i>
   </energy>
  </scstep>
  <scstep>
   <time name="dav">    0.41    0.41</time>
   <time name="total">    0.59    0.59</time>
   <energy>
    <i name="e_fr_energy">    -13.41981795 </i>
    <i name="e_wo_entrp">    -13.41981795 </i>
    <i name="e_0_energy">    -13.41981795 </i>
   </energy>
  </scstep>
  <scstep>
   <time name="dav">    0.51    0.51</time>
   <time name="total">    0.68    0.78</time>
   <energy>
    <i name="e_fr_energy">    -13.41981983 </i>
    <i name="e_wo_entrp">    -13.41981983 </i>
    <i name="e_0_energy">    -13.41981983 </i>
   </energy>
  </scstep>
  <scstep>
   <time name="dav">    0.50    0.50</time>
   <time name="total">    0.62    0.62</time>
   <energy>
    <i name="alphaZ">      3.97942586 </i>
    <i name="ewald">   2928.56821624 </i>
    <i name="hartreedc">  -3358.95971350 </i>
    <i name="XCdc">     40.83881936 </i>
    <i name="pawpsdc">    530.72276364 </i>
    <i name="pawaedc">   -533.13533457 </i>
    <i name="eentropy">     -0.00000000 </i>
    <i name="bandstr">   -154.50178729 </i>
    <i name="atom">    529.06779047 </i>
    <i name="e_fr_energy">    -13.41981979 </i>
    <i name="e_wo_entrp">    -13.41981979 </i>
    <i name="e_0_energy">    -13.41981979 </i>
   </energy>
  </scstep>
  <structure>
   <crystal>
    <varray name="basis" >
     <v>       2.29449868       0.00000000       0.00000000 </v>
     <v>      -1.14724934       1.98709415       0.00000000 </v>
     <v>       0.00000000       0.00000000      24.00000000 </v>
    </varray>
    <i name="volume">    109.42523766 </i>
    <varray name="rec_basis" >
     <v>       0.43582505       0.25162371       0.00000000 </v>
     <v>       0.00000000       0.50324742       0.00000000 </v>
     <v>       0.00000000       0.00000000       0.04166667 </v>
    </varray>
   </crystal>
   <varray name="positions" >
    <v>       0.66666669       0.33333334       0.31881458 </v>
    <v>       0.33333334       0.66666669       0.34785211 </v>
   </varray>
  </structure>
  <varray name="forces" >
   <v>       0.00000000       0.00000000       0.00000000 </v>
   <v>       0.00000000       0.00000000       0.00000000 </v>
  </varray>
  <varray name="stress" >
   <v>       0.00000000       0.00000000       0.00000000 </v>
   <v>       0.00000000       0.00000000       0.00000000 </v>
   <v>       0.00000000       0.00000000       0.00000000 </v>
  </varray>
  <energy>
   <i name="e_fr_energy">    -13.41981979 </i>
   <i name="e_wo_entrp">    -13.41981979 </i>
   <i name="e_0_energy">    -13.41981979 </i>
  </energy>
  <scstep>
   <time name="total">    0.64    0.64</time>
   <energy>
    <i name="e_fr_energy">    -33.47383344 </i>
    <i name="e_wo_entrp">    -33.47383344 </i>
    <i name="e_0_energy">    -33.47383344 </i>
   </energy>
  </scstep>
  <scstep>
   <time name="total">    0.58    0.66</time>
   <energy>
    <i name="e_fr_energy">    -33.93093275 </i>
    <i name="e_wo_entrp">    -33.93093275 </i>
    <i name="e_0_energy">    -33.93093275 </i>
   </energy>
  </scstep>
  <scstep>
   <time name="total">    0.55    0.64</time>
   <energy>
    <i name="e_fr_energy">    -34.02011895 </i>
    <i name="e_wo_entrp">    -34.02011895 </i>
    <i name="e_0_energy">    -34.02011895 </i>
   </energy>
  </scstep>
  <scstep>
   <time name="total">    0.46    0.55</time>
   <energy>
    <i name="e_fr_energy">    -34.02245629 </i>
    <i name="e_wo_entrp">    -34.02245629 </i>
    <i name="e_0_energy">    -34.02245629 </i>
   </energy>
  </scstep>
  <scstep>
   <time name="total">    0.53    0.62</time>
   <energy>
    <i name="e_fr_energy">    -34.02251767 </i>
    <i name="e_wo_entrp">    -34.02251767 </i>
    <i name="e_0_energy">    -34.02251767 </i>
   </energy>
  </scstep>
  <scstep>
   <time name="total">    0.54    0.68</time>
   <energy>
    <i name="e_fr_energy">    -34.02251953 </i>
    <i name="e_wo_entrp">    -34.02251953 </i>
    <i name="e_0_energy">    -34.02251953 </i>
   </energy>
  </scstep>
  <scstep>
   <time name="total">    0.55    0.63</time>
   <energy>
    <i name="e_fr_energy">    -34.02251960 </i>
    <i name="e_wo_entrp">    -34.02251960 </i>
    <i name="e_0_energy">    -34.02251960 </i>
   </energy>
  </scstep>
  <scstep>
   <time name="total">    0.62    0.62</time>
   <energy>
    <i name="e_fr_energy">    -36.25252480 </i>
    <i name="e_wo_entrp">    -36.25252480 </i>
    <i name="e_0_energy">    -36.25252480 </i>
   </energy>
  </scstep>
  <scstep>
   <time name="total">    0.68    0.78</time>
   <energy>
    <i name="e_fr_energy">    -38.29689561 </i>
    <i name="e_wo_entrp">    -38.29689561 </i>
    <i name="e_0_energy">    -38.29689561 </i>
   </energy>
  </scstep>
  <scstep>
   <time name="total">    0.56    0.65</time>
   <energy>
    <i name="e_fr_energy">    -38.37021805 </i>
    <i name="e_wo_entrp">    -38.37021805 </i>
    <i name="e_0_energy">    -38.37021805 </i>
   </energy>
  </scstep>
  <scstep>
   <time name="total">    0.51    0.60</time>
   <energy>
    <i name="e_fr_energy">    -38.37444085 </i>
    <i name="e_wo_entrp">    -38.37444085 </i>
    <i name="e_0_energy">    -38.37444085 </i>
   </energy>
  </scstep>
  <scstep>
   <time name="total">    0.53    0.62</time>
   <energy>
    <i name="e_fr_energy">    -38.37453686 </i>
    <i name="e_wo_entrp">    -38.37453686 </i>
    <i name="e_0_energy">    -38.37453686 </i>
   </energy>
  </scstep>
  <scstep>
   <time name="total">    0.55    0.64</time>
   <energy>
    <i name="e_fr_energy">    -38.37453947 </i>
    <i name="e_wo_entrp">    -38.37453947 </i>
    <i name="e_0_energy">    -38.37453947 </i>
   </energy>
  </scstep>
  <scstep>
   <time name="total">    0.55    0.64</time>
   <energy>
    <i name="e_fr_energy">    -38.37453957 </i>
    <i name="e_wo_entrp">    -38.37453957 </i>
    <i name="e_0_energy">    -38.37453957 </i>
   </energy>
  </scstep>
  <scstep>
   <time name="total">    0.60    0.60</time>
   <energy>
    <i name="e_fr_energy">    -33.86752652 </i>
    <i name="e_wo_entrp">    -33.86752652 </i>
    <i name="e_0_energy">    -33.86752652 </i>
   </energy>
  </scstep>
  <scstep>
   <time name="total">    0.56    0.65</time>
   <energy>
    <i name="e_fr_energy">    -37.60290820 </i>
    <i name="e_wo_entrp">    -37.60290820 </i>
    <i name="e_0_energy">    -37.60290820 </i>
   </energy>
  </scstep>
  <scstep>
   <time name="total">    0.54    0.66</time>
   <energy>
    <i name="e_fr_energy">    -37.68174794 </i>
    <i name="e_wo_entrp">    -37.68174794 </i>
    <i name="e_0_energy">    -37.68174794 </i>
   </energy>
  </scstep>
  <scstep>
   <time name="total">    0.50    0.69</time>
   <energy>
    <i name="e_fr_energy">    -37.68376044 </i>
    <i name="e_wo_entrp">    -37.68376044 </i>
    <i name="e_0_energy">    -37.68376044 </i>
   </energy>
  </scstep>
  <scstep>
   <time name="total">    0.35    0.44</time>
   <energy>
    <i name="e_fr_energy">    -37.68380938 </i>
    <i name="e_wo_entrp">    -37.68380938 </i>
    <i name="e_0_energy">    -37.68380938 </i>
   </energy>
  </scstep>
  <scstep>
   <time name="total">    0.36    0.45</time>
   <energy>
    <i name="e_fr_energy">    -37.68381161 </i>
    <i name="e_wo_entrp">    -37.68381161 </i>
    <i name="e_0_energy">    -37.68381161 </i>
   </energy>
  </scstep>
  <scstep>
   <time name="total">    0.35    0.44</time>
   <energy>
    <i name="e_fr_energy">    -37.68381169 </i>
    <i name="e_wo_entrp">    -37.68381169 </i>
    <i name="e_0_energy">    -37.68381169 </i>
   </energy>
  </scstep>
  <scstep>
   <time name="total">    0.82    0.85</time>
   <energy>
    <i name="e_fr_energy">     -0.20214718 </i>
    <i name="e_wo_entrp">     -0.20214718 </i>
    <i name="e_0_energy">     -0.20214718 </i>
   </energy>
  </scstep>
  <scstep>
   <time name="total">    0.68    0.68</time>
   <energy>
    <i name="e_fr_energy">     -0.21280989 </i>
    <i name="e_wo_entrp">     -0.21280989 </i>
    <i name="e_0_energy">     -0.21280989 </i>
   </energy>
  </scstep>
  <scstep>
   <time name="total">    0.70    0.70</time>
   <energy>
    <i name="e_fr_energy">     -0.21305670 </i>
    <i name="e_wo_entrp">     -0.21305670 </i>
    <i name="e_0_energy">     -0.21305670 </i>
   </energy>
  </scstep>
  <scstep>
   <time name="total">    0.69    0.69</time>
   <energy>
    <i name="e_fr_energy">     -0.21306520 </i>
    <i name="e_wo_entrp">     -0.21306520 </i>
    <i name="e_0_energy">     -0.21306520 </i>
   </energy>
  </scstep>
  <scstep>
   <time name="total">    0.70    0.70</time>
   <energy>
    <i name="e_fr_energy">     -0.21306538 </i>
    <i name="e_wo_entrp">     -0.21306538 </i>
    <i name="e_0_energy">     -0.21306538 </i>
   </energy>
  </scstep>
  <scstep>
   <time name="total">    0.70    0.70</time>
   <energy>
    <i name="e_fr_energy">     -0.21306539 </i>
    <i name="e_wo_entrp">     -0.21306539 </i>
    <i name="e_0_energy">     -0.21306539 </i>
   </energy>
  </scstep>
  <scstep>
   <time name="total">    0.87    0.87</time>
   <energy>
    <i name="e_fr_energy">     -0.21172428 </i>
    <i name="e_wo_entrp">     -0.21172428 </i>
    <i name="e_0_energy">     -0.21172428 </i>
   </energy>
  </scstep>
  <scstep>
   <time name="total">    0.68    0.68</time>
   <energy>
    <i name="e_fr_energy">     -0.21879543 </i>
    <i name="e_wo_entrp">     -0.21879543 </i>
    <i name="e_0_energy">     -0.21879543 </i>
   </energy>
  </scstep>
  <scstep>
   <time name="total">    0.69    0.69</time>
   <energy>
    <i name="e_fr_energy">     -0.21911090 </i>
    <i name="e_wo_entrp">     -0.21911090 </i>
    <i name="e_0_energy">     -0.21911090 </i>
   </energy>
  </scstep>
  <scstep>
   <time name="total">    0.68    0.68</time>
   <energy>
    <i name="e_fr_energy">     -0.21912049 </i>
    <i name="e_wo_entrp">     -0.21912049 </i>
    <i name="e_0_energy">     -0.21912049 </i>
   </energy>
  </scstep>
  <scstep>
   <time name="total">    0.69    0.69</time>
   <energy>
    <i name="e_fr_energy">     -0.21912070 </i>
    <i name="e_wo_entrp">     -0.21912070 </i>
    <i name="e_0_energy">     -0.21912070 </i>
   </energy>
  </scstep>
  <scstep>
   <time name="total">    0.69    0.69</time>
   <energy>
    <i name="e_fr_energy">     -0.21912071 </i>
    <i name="e_wo_entrp">     -0.21912071 </i>
    <i name="e_0_energy">     -0.21912071 </i>
   </energy>
  </scstep>
  <scstep>
   <time name="total">    0.75    0.75</time>
   <energy>
    <i name="e_fr_energy">     -0.08889028 </i>
    <i name="e_wo_entrp">     -0.08889028 </i>
    <i name="e_0_energy">     -0.08889028 </i>
   </energy>
  </scstep>
  <scstep>
   <time name="total">    0.70    0.77</time>
   <energy>
    <i name="e_fr_energy">     -0.09539651 </i>
    <i name="e_wo_entrp">     -0.09539651 </i>
    <i name="e_0_energy">     -0.09539651 </i>
   </energy>
  </scstep>
  <scstep>
   <time name="total">    0.69    0.69</time>
   <energy>
    <i name="e_fr_energy">     -0.09554107 </i>
    <i name="e_wo_entrp">     -0.09554107 </i>
    <i name="e_0_energy">     -0.09554107 </i>
   </energy>
  </scstep>
  <scstep>
   <time name="total">    0.71    0.71</time>
   <energy>
    <i name="e_fr_energy">     -0.09554711 </i>
    <i name="e_wo_entrp">     -0.09554711 </i>
    <i name="e_0_energy">     -0.09554711 </i>
   </energy>
  </scstep>
  <scstep>
   <time name="total">    0.69    0.69</time>
   <energy>
    <i name="e_fr_energy">     -0.09554723 </i>
    <i name="e_wo_entrp">     -0.09554723 </i>
    <i name="e_0_energy">     -0.09554723 </i>
   </energy>
  </scstep>
  <scstep>
   <time name="total">    0.69    0.69</time>
   <energy>
    <i name="e_fr_energy">     -0.09554724 </i>
    <i name="e_wo_entrp">     -0.09554724 </i>
    <i name="e_0_energy">     -0.09554724 </i>
   </energy>
  </scstep>
  <varray name="dielectric_ipa" >
   <v>       1.71469478       0.00000000      -0.00000000 </v>
   <v>       0.00000000       1.71469478      -0.00000000 </v>
   <v>       0.00000000       0.00000000       1.31600823 </v>
  </varray>
  <kpoints>
   <generation param="Gamma">
    <v type="int" name="divisions">      20       20        1 </v>
    <v name="usershift">      0.00000000       0.00000000       0.00000000 </v>
    <v name="genvec1">      0.05000000      -0.00000000       0.00000000 </v>
    <v name="genvec2">      0.00000000       0.05000000       0.00000000 </v>
    <v name="genvec3">      0.00000000       0.00000000       1.00000000 </v>
    <v name="shift">      0.00000000       0.00000000       0.00000000 </v>
   </generation>
   <varray name="kpointlist" >
    <v>       0.00000000       0.00000000       0.00000000 </v>
    <v>       0.05000000       0.00000000       0.00000000 </v>
    <v>       0.00000000       0.05000000       0.00000000 </v>
    <v>       0.10000000       0.00000000       0.00000000 </v>
    <v>       0.00000000       0.10000000       0.00000000 </v>
    <v>       0.15000000       0.00000000       0.00000000 </v>
    <v>       0.00000000       0.15000000       0.00000000 </v>
    <v>       0.20000000       0.00000000       0.00000000 </v>
    <v>       0.00000000       0.20000000       0.00000000 </v>
    <v>       0.25000000       0.00000000       0.00000000 </v>
    <v>       0.00000000       0.25000000       0.00000000 </v>
    <v>       0.30000000       0.00000000       0.00000000 </v>
    <v>       0.00000000       0.30000000       0.00000000 </v>
    <v>       0.35000000       0.00000000       0.00000000 </v>
    <v>       0.00000000       0.35000000       0.00000000 </v>
    <v>       0.40000000       0.00000000       0.00000000 </v>
    <v>       0.00000000       0.40000000       0.00000000 </v>
    <v>       0.45000000       0.00000000       0.00000000 </v>
    <v>       0.00000000       0.45000000       0.00000000 </v>
    <v>       0.50000000       0.00000000       0.00000000 </v>
    <v>       0.00000000       0.50000000       0.00000000 </v>
    <v>       0.05000000       0.05000000       0.00000000 </v>
    <v>      -0.10000000       0.05000000       0.00000000 </v>
    <v>       0.10000000       0.05000000       0.00000000 </v>
    <v>      -0.05000000       0.15000000       0.00000000 </v>
    <v>      -0.15000000       0.10000000       0.00000000 </v>
    <v>       0.15000000       0.05000000       0.00000000 </v>
    <v>      -0.05000000       0.20000000       0.00000000 </v>
    <v>      -0.20000000       0.15000000       0.00000000 </v>
    <v>       0.20000000       0.05000000       0.00000000 </v>
    <v>      -0.05000000       0.25000000       0.00000000 </v>
    <v>      -0.25000000       0.20000000       0.00000000 </v>
    <v>       0.25000000       0.05000000       0.00000000 </v>
    <v>      -0.05000000       0.30000000       0.00000000 </v>
    <v>      -0.30000000       0.25000000       0.00000000 </v>
    <v>       0.30000000       0.05000000       0.00000000 </v>
    <v>      -0.05000000       0.35000000       0.00000000 </v>
    <v>      -0.35000000       0.30000000       0.00000000 </v>
    <v>       0.35000000       0.05000000       0.00000000 </v>
    <v>      -0.05000000       0.40000000       0.00000000 </v>
    <v>      -0.40000000       0.35000000       0.00000000 </v>
    <v>       0.40000000       0.05000000       0.00000000 </v>
    <v>      -0.05000000       0.45000000       0.00000000 </v>
    <v>      -0.45000000       0.40000000       0.00000000 </v>
    <v>       0.45000000       0.05000000       0.00000000 </v>
    <v>      -0.05000000       0.50000000       0.00000000 </v>
    <v>       0.50000000       0.45000000       0.00000000 </v>
    <v>       0.10000000       0.10000000       0.00000000 </v>
    <v>      -0.20000000       0.10000000       0.00000000 </v>
    <v>       0.15000000       0.10000000       0.00000000 </v>
    <v>      -0.10000000       0.25000000       0.00000000 </v>
    <v>      -0.25000000       0.15000000       0.00000000 </v>
    <v>       0.20000000       0.10000000       0.00000000 </v>
    <v>      -0.10000000       0.30000000       0.00000000 </v>
    <v>      -0.30000000       0.20000000       0.00000000 </v>
    <v>       0.25000000       0.10000000       0.00000000 </v>
    <v>      -0.10000000       0.35000000       0.00000000 </v>
    <v>      -0.35000000       0.25000000       0.00000000 </v>
    <v>       0.30000000       0.10000000       0.00000000 </v>
    <v>      -0.10000000       0.40000000       0.00000000 </v>
    <v>      -0.40000000       0.30000000       0.00000000 </v>
    <v>       0.35000000       0.10000000       0.00000000 </v>
    <v>      -0.10000000       0.45000000       0.00000000 </v>
    <v>      -0.45000000       0.35000000       0.00000000 </v>
    <v>       0.40000000       0.10000000       0.00000000 </v>
    <v>      -0.10000000       0.50000000       0.00000000 </v>
    <v>       0.50000000       0.40000000       0.00000000 </v>
    <v>       0.45000000       0.10000000       0.00000000 </v>
    <v>      -0.10000000      -0.45000000       0.00000000 </v>
    <v>       0.15000000       0.15000000       0.00000000 </v>
    <v>      -0.30000000       0.15000000       0.00000000 </v>
    <v>       0.20000000       0.15000000       0.00000000 </v>
    <v>      -0.15000000       0.35000000       0.00000000 </v>
    <v>      -0.35000000       0.20000000       0.00000000 </v>
    <v>       0.25000000       0.15000000       0.00000000 </v>
    <v>      -0.15000000       0.40000000       0.00000000 </v>
    <v>      -0.40000000       0.25000000       0.00000000 </v>
    <v>       0.30000000       0.15000000       0.00000000 </v>
    <v>      -0.15000000       0.45000000       0.00000000 </v>
    <v>      -0.45000000       0.30000000       0.00000000 </v>
    <v>       0.35000000       0.15000000       0.00000000 </v>
    <v>      -0.15000000       0.50000000       0.00000000 </v>
    <v>       0.50000000       0.35000000       0.00000000 </v>
    <v>       0.40000000       0.15000000       0.00000000 </v>
    <v>      -0.15000000      -0.45000000       0.00000000 </v>
    <v>       0.45000000       0.40000000       0.00000000 </v>
    <v>       0.20000000       0.20000000       0.00000000 </v>
    <v>      -0.40000000       0.20000000       0.00000000 </v>
    <v>       0.25000000       0.20000000       0.00000000 </v>
    <v>      -0.20000000       0.45000000       0.00000000 </v>
    <v>      -0.45000000       0.25000000       0.00000000 </v>
    <v>       0.30000000       0.20000000       0.00000000 </v>
    <v>      -0.20000000       0.50000000       0.00000000 </v>
    <v>       0.50000000       0.30000000       0.00000000 </v>
    <v>       0.35000000       0.20000000       0.00000000 </v>
    <v>      -0.20000000      -0.45000000       0.00000000 </v>
    <v>       0.45000000       0.35000000       0.00000000 </v>
    <v>       0.40000000       0.20000000       0.00000000 </v>
    <v>      -0.20000000      -0.40000000       0.00000000 </v>
    <v>       0.25000000       0.25000000       0.00000000 </v>
    <v>       0.50000000       0.25000000       0.00000000 </v>
    <v>       0.30000000       0.25000000       0.00000000 </v>
    <v>      -0.25000000      -0.45000000       0.00000000 </v>
    <v>       0.45000000       0.30000000       0.00000000 </v>
    <v>       0.35000000       0.25000000       0.00000000 </v>
    <v>      -0.25000000      -0.40000000       0.00000000 </v>
    <v>       0.40000000       0.35000000       0.00000000 </v>
    <v>       0.30000000       0.30000000       0.00000000 </v>
    <v>       0.40000000       0.30000000       0.00000000 </v>
    <v>       0.35000000       0.30000000       0.00000000 </v>
    <v>      -0.30000000      -0.35000000       0.00000000 </v>
   </varray>
   <varray name="weights" >
    <v>       0.00250000 </v>
    <v>       0.01000000 </v>
    <v>       0.00500000 </v>
    <v>       0.01000000 </v>
    <v>       0.00500000 </v>
    <v>       0.01000000 </v>
    <v>       0.00500000 </v>
    <v>       0.01000000 </v>
    <v>       0.00500000 </v>
    <v>       0.01000000 </v>
    <v>       0.00500000 </v>
    <v>       0.01000000 </v>
    <v>       0.00500000 </v>
    <v>       0.01000000 </v>
    <v>       0.00500000 </v>
    <v>       0.01000000 </v>
    <v>       0.00500000 </v>
    <v>       0.01000000 </v>
    <v>       0.00500000 </v>
    <v>       0.00500000 </v>
    <v>       0.00250000 </v>
    <v>       0.01000000 </v>
    <v>       0.00500000 </v>
    <v>       0.01000000 </v>
    <v>       0.01000000 </v>
    <v>       0.01000000 </v>
    <v>       0.01000000 </v>
    <v>       0.01000000 </v>
    <v>       0.01000000 </v>
    <v>       0.01000000 </v>
    <v>       0.01000000 </v>
    <v>       0.01000000 </v>
    <v>       0.01000000 </v>
    <v>       0.01000000 </v>
    <v>       0.01000000 </v>
    <v>       0.01000000 </v>
    <v>       0.01000000 </v>
    <v>       0.01000000 </v>
    <v>       0.01000000 </v>
    <v>       0.01000000 </v>
    <v>       0.01000000 </v>
    <v>       0.01000000 </v>
    <v>       0.01000000 </v>
    <v>       0.01000000 </v>
    <v>       0.01000000 </v>
    <v>       0.01000000 </v>
    <v>       0.01000000 </v>
    <v>       0.01000000 </v>
    <v>       0.00500000 </v>
    <v>       0.01000000 </v>
    <v>       0.01000000 </v>
    <v>       0.01000000 </v>
    <v>       0.01000000 </v>
    <v>       0.01000000 </v>
    <v>       0.01000000 </v>
    <v>       0.01000000 </v>
    <v>       0.01000000 </v>
    <v>       0.01000000 </v>
    <v>       0.01000000 </v>
    <v>       0.01000000 </v>
    <v>       0.01000000 </v>
    <v>       0.01000000 </v>
    <v>       0.01000000 </v>
    <v>       0.01000000 </v>
    <v>       0.01000000 </v>
    <v>       0.01000000 </v>
    <v>       0.01000000 </v>
    <v>       0.01000000 </v>
    <v>       0.00500000 </v>
    <v>       0.01000000 </v>
    <v>       0.00500000 </v>
    <v>       0.01000000 </v>
    <v>       0.01000000 </v>
    <v>       0.01000000 </v>
    <v>       0.01000000 </v>
    <v>       0.01000000 </v>
    <v>       0.01000000 </v>
    <v>       0.01000000 </v>
    <v>       0.01000000 </v>
    <v>       0.01000000 </v>
    <v>       0.01000000 </v>
    <v>       0.01000000 </v>
    <v>       0.01000000 </v>
    <v>       0.01000000 </v>
    <v>       0.01000000 </v>
    <v>       0.01000000 </v>
    <v>       0.01000000 </v>
    <v>       0.00500000 </v>
    <v>       0.01000000 </v>
    <v>       0.01000000 </v>
    <v>       0.01000000 </v>
    <v>       0.01000000 </v>
    <v>       0.01000000 </v>
    <v>       0.01000000 </v>
    <v>       0.01000000 </v>
    <v>       0.01000000 </v>
    <v>       0.01000000 </v>
    <v>       0.01000000 </v>
    <v>       0.00500000 </v>
    <v>       0.01000000 </v>
    <v>       0.00500000 </v>
    <v>       0.01000000 </v>
    <v>       0.01000000 </v>
    <v>       0.01000000 </v>
    <v>       0.01000000 </v>
    <v>       0.01000000 </v>
    <v>       0.01000000 </v>
    <v>       0.01000000 </v>
    <v>       0.00500000 </v>
    <v>       0.01000000 </v>
    <v>       0.00500000 </v>
   </varray>
  </kpoints>
  <scstep>
   <time name="total">    1.77    1.77</time>
   <energy>
    <i name="e_fr_energy">     -0.20673128 </i>
    <i name="e_wo_entrp">     -0.20673128 </i>
    <i name="e_0_energy">     -0.20673128 </i>
   </energy>
  </scstep>
  <scstep>
   <time name="total">    1.58    1.59</time>
   <energy>
    <i name="e_fr_energy">     -0.21590527 </i>
    <i name="e_wo_entrp">     -0.21590527 </i>
    <i name="e_0_energy">     -0.21590527 </i>
   </energy>
  </scstep>
  <scstep>
   <time name="total">    1.46    1.47</time>
   <energy>
    <i name="e_fr_energy">     -0.21408346 </i>
    <i name="e_wo_entrp">     -0.21408346 </i>
    <i name="e_0_energy">     -0.21408346 </i>
   </energy>
  </scstep>
  <scstep>
   <time name="total">    1.56    1.56</time>
   <energy>
    <i name="e_fr_energy">     -0.23043077 </i>
    <i name="e_wo_entrp">     -0.23043077 </i>
    <i name="e_0_energy">     -0.23043077 </i>
   </energy>
  </scstep>
  <scstep>
   <time name="total">    1.88    1.89</time>
   <energy>
    <i name="e_fr_energy">     -0.22645448 </i>
    <i name="e_wo_entrp">     -0.22645448 </i>
    <i name="e_0_energy">     -0.22645448 </i>
   </energy>
  </scstep>
  <scstep>
   <time name="total">    2.02    2.02</time>
   <energy>
    <i name="e_fr_energy">     -0.23033137 </i>
    <i name="e_wo_entrp">     -0.23033137 </i>
    <i name="e_0_energy">     -0.23033137 </i>
   </energy>
  </scstep>
  <scstep>
   <time name="total">    2.25    2.25</time>
   <energy>
    <i name="e_fr_energy">     -0.23028898 </i>
    <i name="e_wo_entrp">     -0.23028898 </i>
    <i name="e_0_energy">     -0.23028898 </i>
   </energy>
  </scstep>
  <scstep>
   <time name="total">    2.27    2.28</time>
   <energy>
    <i name="e_fr_energy">     -0.23026180 </i>
    <i name="e_wo_entrp">     -0.23026180 </i>
    <i name="e_0_energy">     -0.23026180 </i>
   </energy>
  </scstep>
  <scstep>
   <time name="total">    2.39    2.45</time>
   <energy>
    <i name="e_fr_energy">     -0.23026553 </i>
    <i name="e_wo_entrp">     -0.23026553 </i>
    <i name="e_0_energy">     -0.23026553 </i>
   </energy>
  </scstep>
  <scstep>
   <time name="total">    2.48    2.48</time>
   <energy>
    <i name="e_fr_energy">     -0.23026801 </i>
    <i name="e_wo_entrp">     -0.23026801 </i>
    <i name="e_0_energy">     -0.23026801 </i>
   </energy>
  </scstep>
  <scstep>
   <time name="total">    2.51    2.51</time>
   <energy>
    <i name="e_fr_energy">     -0.23026731 </i>
    <i name="e_wo_entrp">     -0.23026731 </i>
    <i name="e_0_energy">     -0.23026731 </i>
   </energy>
  </scstep>
  <kpoints>
   <generation param="Gamma">
    <v type="int" name="divisions">      20       20        1 </v>
    <v name="usershift">      0.00000000       0.00000000       0.00000000 </v>
    <v name="genvec1">      0.05000000      -0.00000000       0.00000000 </v>
    <v name="genvec2">      0.00000000       0.05000000       0.00000000 </v>
    <v name="genvec3">      0.00000000       0.00000000       1.00000000 </v>
    <v name="shift">      0.00000000       0.00000000       0.00000000 </v>
   </generation>
   <varray name="kpointlist" >
    <v>       0.00000000       0.00000000       0.00000000 </v>
    <v>       0.05000000       0.00000000       0.00000000 </v>
    <v>       0.00000000       0.05000000       0.00000000 </v>
    <v>       0.10000000       0.00000000       0.00000000 </v>
    <v>       0.00000000       0.10000000       0.00000000 </v>
    <v>       0.15000000       0.00000000       0.00000000 </v>
    <v>       0.00000000       0.15000000       0.00000000 </v>
    <v>       0.20000000       0.00000000       0.00000000 </v>
    <v>       0.00000000       0.20000000       0.00000000 </v>
    <v>       0.25000000       0.00000000       0.00000000 </v>
    <v>       0.00000000       0.25000000       0.00000000 </v>
    <v>       0.30000000       0.00000000       0.00000000 </v>
    <v>       0.00000000       0.30000000       0.00000000 </v>
    <v>       0.35000000       0.00000000       0.00000000 </v>
    <v>       0.00000000       0.35000000       0.00000000 </v>
    <v>       0.40000000       0.00000000       0.00000000 </v>
    <v>       0.00000000       0.40000000       0.00000000 </v>
    <v>       0.45000000       0.00000000       0.00000000 </v>
    <v>       0.00000000       0.45000000       0.00000000 </v>
    <v>       0.50000000       0.00000000       0.00000000 </v>
    <v>       0.00000000       0.50000000       0.00000000 </v>
    <v>       0.05000000       0.05000000       0.00000000 </v>
    <v>      -0.10000000       0.05000000       0.00000000 </v>
    <v>       0.10000000       0.05000000       0.00000000 </v>
    <v>      -0.05000000       0.15000000       0.00000000 </v>
    <v>      -0.15000000       0.10000000       0.00000000 </v>
    <v>       0.15000000       0.05000000       0.00000000 </v>
    <v>      -0.05000000       0.20000000       0.00000000 </v>
    <v>      -0.20000000       0.15000000       0.00000000 </v>
    <v>       0.20000000       0.05000000       0.00000000 </v>
    <v>      -0.05000000       0.25000000       0.00000000 </v>
    <v>      -0.25000000       0.20000000       0.00000000 </v>
    <v>       0.25000000       0.05000000       0.00000000 </v>
    <v>      -0.05000000       0.30000000       0.00000000 </v>
    <v>      -0.30000000       0.25000000       0.00000000 </v>
    <v>       0.30000000       0.05000000       0.00000000 </v>
    <v>      -0.05000000       0.35000000       0.00000000 </v>
    <v>      -0.35000000       0.30000000       0.00000000 </v>
    <v>       0.35000000       0.05000000       0.00000000 </v>
    <v>      -0.05000000       0.40000000       0.00000000 </v>
    <v>      -0.40000000       0.35000000       0.00000000 </v>
    <v>       0.40000000       0.05000000       0.00000000 </v>
    <v>      -0.05000000       0.45000000       0.00000000 </v>
    <v>      -0.45000000       0.40000000       0.00000000 </v>
    <v>       0.45000000       0.05000000       0.00000000 </v>
    <v>      -0.05000000       0.50000000       0.00000000 </v>
    <v>       0.50000000       0.45000000       0.00000000 </v>
    <v>       0.10000000       0.10000000       0.00000000 </v>
    <v>      -0.20000000       0.10000000       0.00000000 </v>
    <v>       0.15000000       0.10000000       0.00000000 </v>
    <v>      -0.10000000       0.25000000       0.00000000 </v>
    <v>      -0.25000000       0.15000000       0.00000000 </v>
    <v>       0.20000000       0.10000000       0.00000000 </v>
    <v>      -0.10000000       0.30000000       0.00000000 </v>
    <v>      -0.30000000       0.20000000       0.00000000 </v>
    <v>       0.25000000       0.10000000       0.00000000 </v>
    <v>      -0.10000000       0.35000000       0.00000000 </v>
    <v>      -0.35000000       0.25000000       0.00000000 </v>
    <v>       0.30000000       0.10000000       0.00000000 </v>
    <v>      -0.10000000       0.40000000       0.00000000 </v>
    <v>      -0.40000000       0.30000000       0.00000000 </v>
    <v>       0.35000000       0.10000000       0.00000000 </v>
    <v>      -0.10000000       0.45000000       0.00000000 </v>
    <v>      -0.45000000       0.35000000       0.00000000 </v>
    <v>       0.40000000       0.10000000       0.00000000 </v>
    <v>      -0.10000000       0.50000000       0.00000000 </v>
    <v>       0.50000000       0.40000000       0.00000000 </v>
    <v>       0.45000000       0.10000000       0.00000000 </v>
    <v>      -0.10000000      -0.45000000       0.00000000 </v>
    <v>       0.15000000       0.15000000       0.00000000 </v>
    <v>      -0.30000000       0.15000000       0.00000000 </v>
    <v>       0.20000000       0.15000000       0.00000000 </v>
    <v>      -0.15000000       0.35000000       0.00000000 </v>
    <v>      -0.35000000       0.20000000       0.00000000 </v>
    <v>       0.25000000       0.15000000       0.00000000 </v>
    <v>      -0.15000000       0.40000000       0.00000000 </v>
    <v>      -0.40000000       0.25000000       0.00000000 </v>
    <v>       0.30000000       0.15000000       0.00000000 </v>
    <v>      -0.15000000       0.45000000       0.00000000 </v>
    <v>      -0.45000000       0.30000000       0.00000000 </v>
    <v>       0.35000000       0.15000000       0.00000000 </v>
    <v>      -0.15000000       0.50000000       0.00000000 </v>
    <v>       0.50000000       0.35000000       0.00000000 </v>
    <v>       0.40000000       0.15000000       0.00000000 </v>
    <v>      -0.15000000      -0.45000000       0.00000000 </v>
    <v>       0.45000000       0.40000000       0.00000000 </v>
    <v>       0.20000000       0.20000000       0.00000000 </v>
    <v>      -0.40000000       0.20000000       0.00000000 </v>
    <v>       0.25000000       0.20000000       0.00000000 </v>
    <v>      -0.20000000       0.45000000       0.00000000 </v>
    <v>      -0.45000000       0.25000000       0.00000000 </v>
    <v>       0.30000000       0.20000000       0.00000000 </v>
    <v>      -0.20000000       0.50000000       0.00000000 </v>
    <v>       0.50000000       0.30000000       0.00000000 </v>
    <v>       0.35000000       0.20000000       0.00000000 </v>
    <v>      -0.20000000      -0.45000000       0.00000000 </v>
    <v>       0.45000000       0.35000000       0.00000000 </v>
    <v>       0.40000000       0.20000000       0.00000000 </v>
    <v>      -0.20000000      -0.40000000       0.00000000 </v>
    <v>       0.25000000       0.25000000       0.00000000 </v>
    <v>       0.50000000       0.25000000       0.00000000 </v>
    <v>       0.30000000       0.25000000       0.00000000 </v>
    <v>      -0.25000000      -0.45000000       0.00000000 </v>
    <v>       0.45000000       0.30000000       0.00000000 </v>
    <v>       0.35000000       0.25000000       0.00000000 </v>
    <v>      -0.25000000      -0.40000000       0.00000000 </v>
    <v>       0.40000000       0.35000000       0.00000000 </v>
    <v>       0.30000000       0.30000000       0.00000000 </v>
    <v>       0.40000000       0.30000000       0.00000000 </v>
    <v>       0.35000000       0.30000000       0.00000000 </v>
    <v>      -0.30000000      -0.35000000       0.00000000 </v>
   </varray>
   <varray name="weights" >
    <v>       0.00250000 </v>
    <v>       0.01000000 </v>
    <v>       0.00500000 </v>
    <v>       0.01000000 </v>
    <v>       0.00500000 </v>
    <v>       0.01000000 </v>
    <v>       0.00500000 </v>
    <v>       0.01000000 </v>
    <v>       0.00500000 </v>
    <v>       0.01000000 </v>
    <v>       0.00500000 </v>
    <v>       0.01000000 </v>
    <v>       0.00500000 </v>
    <v>       0.01000000 </v>
    <v>       0.00500000 </v>
    <v>       0.01000000 </v>
    <v>       0.00500000 </v>
    <v>       0.01000000 </v>
    <v>       0.00500000 </v>
    <v>       0.00500000 </v>
    <v>       0.00250000 </v>
    <v>       0.01000000 </v>
    <v>       0.00500000 </v>
    <v>       0.01000000 </v>
    <v>       0.01000000 </v>
    <v>       0.01000000 </v>
    <v>       0.01000000 </v>
    <v>       0.01000000 </v>
    <v>       0.01000000 </v>
    <v>       0.01000000 </v>
    <v>       0.01000000 </v>
    <v>       0.01000000 </v>
    <v>       0.01000000 </v>
    <v>       0.01000000 </v>
    <v>       0.01000000 </v>
    <v>       0.01000000 </v>
    <v>       0.01000000 </v>
    <v>       0.01000000 </v>
    <v>       0.01000000 </v>
    <v>       0.01000000 </v>
    <v>       0.01000000 </v>
    <v>       0.01000000 </v>
    <v>       0.01000000 </v>
    <v>       0.01000000 </v>
    <v>       0.01000000 </v>
    <v>       0.01000000 </v>
    <v>       0.01000000 </v>
    <v>       0.01000000 </v>
    <v>       0.00500000 </v>
    <v>       0.01000000 </v>
    <v>       0.01000000 </v>
    <v>       0.01000000 </v>
    <v>       0.01000000 </v>
    <v>       0.01000000 </v>
    <v>       0.01000000 </v>
    <v>       0.01000000 </v>
    <v>       0.01000000 </v>
    <v>       0.01000000 </v>
    <v>       0.01000000 </v>
    <v>       0.01000000 </v>
    <v>       0.01000000 </v>
    <v>       0.01000000 </v>
    <v>       0.01000000 </v>
    <v>       0.01000000 </v>
    <v>       0.01000000 </v>
    <v>       0.01000000 </v>
    <v>       0.01000000 </v>
    <v>       0.01000000 </v>
    <v>       0.00500000 </v>
    <v>       0.01000000 </v>
    <v>       0.00500000 </v>
    <v>       0.01000000 </v>
    <v>       0.01000000 </v>
    <v>       0.01000000 </v>
    <v>       0.01000000 </v>
    <v>       0.01000000 </v>
    <v>       0.01000000 </v>
    <v>       0.01000000 </v>
    <v>       0.01000000 </v>
    <v>       0.01000000 </v>
    <v>       0.01000000 </v>
    <v>       0.01000000 </v>
    <v>       0.01000000 </v>
    <v>       0.01000000 </v>
    <v>       0.01000000 </v>
    <v>       0.01000000 </v>
    <v>       0.01000000 </v>
    <v>       0.00500000 </v>
    <v>       0.01000000 </v>
    <v>       0.01000000 </v>
    <v>       0.01000000 </v>
    <v>       0.01000000 </v>
    <v>       0.01000000 </v>
    <v>       0.01000000 </v>
    <v>       0.01000000 </v>
    <v>       0.01000000 </v>
    <v>       0.01000000 </v>
    <v>       0.01000000 </v>
    <v>       0.00500000 </v>
    <v>       0.01000000 </v>
    <v>       0.00500000 </v>
    <v>       0.01000000 </v>
    <v>       0.01000000 </v>
    <v>       0.01000000 </v>
    <v>       0.01000000 </v>
    <v>       0.01000000 </v>
    <v>       0.01000000 </v>
    <v>       0.01000000 </v>
    <v>       0.00500000 </v>
    <v>       0.01000000 </v>
    <v>       0.00500000 </v>
   </varray>
  </kpoints>
  <scstep>
   <time name="total">    2.35    2.36</time>
   <energy>
    <i name="e_fr_energy">     -0.20685289 </i>
    <i name="e_wo_entrp">     -0.20685289 </i>
    <i name="e_0_energy">     -0.20685289 </i>
   </energy>
  </scstep>
  <scstep>
   <time name="total">    2.42    2.42</time>
   <energy>
    <i name="e_fr_energy">     -0.21589134 </i>
    <i name="e_wo_entrp">     -0.21589134 </i>
    <i name="e_0_energy">     -0.21589134 </i>
   </energy>
  </scstep>
  <scstep>
   <time name="total">    1.94    1.94</time>
   <energy>
    <i name="e_fr_energy">     -0.21409233 </i>
    <i name="e_wo_entrp">     -0.21409233 </i>
    <i name="e_0_energy">     -0.21409233 </i>
   </energy>
  </scstep>
  <scstep>
   <time name="total">    1.91    1.91</time>
   <energy>
    <i name="e_fr_energy">     -0.23043269 </i>
    <i name="e_wo_entrp">     -0.23043269 </i>
    <i name="e_0_energy">     -0.23043269 </i>
   </energy>
  </scstep>
  <scstep>
   <time name="total">    2.32    2.32</time>
   <energy>
    <i name="e_fr_energy">     -0.22652048 </i>
    <i name="e_wo_entrp">     -0.22652048 </i>
    <i name="e_0_energy">     -0.22652048 </i>
   </energy>
  </scstep>
  <scstep>
   <time name="total">    2.43    2.44</time>
   <energy>
    <i name="e_fr_energy">     -0.23026353 </i>
    <i name="e_wo_entrp">     -0.23026353 </i>
    <i name="e_0_energy">     -0.23026353 </i>
   </energy>
  </scstep>
  <scstep>
   <time name="total">    2.40    2.40</time>
   <energy>
    <i name="e_fr_energy">     -0.23025767 </i>
    <i name="e_wo_entrp">     -0.23025767 </i>
    <i name="e_0_energy">     -0.23025767 </i>
   </energy>
  </scstep>
  <scstep>
   <time name="total">    2.31    2.31</time>
   <energy>
    <i name="e_fr_energy">     -0.23029084 </i>
    <i name="e_wo_entrp">     -0.23029084 </i>
    <i name="e_0_energy">     -0.23029084 </i>
   </energy>
  </scstep>
  <scstep>
   <time name="total">    2.31    2.31</time>
   <energy>
    <i name="e_fr_energy">     -0.23027584 </i>
    <i name="e_wo_entrp">     -0.23027584 </i>
    <i name="e_0_energy">     -0.23027584 </i>
   </energy>
  </scstep>
  <scstep>
   <time name="total">    2.33    2.33</time>
   <energy>
    <i name="e_fr_energy">     -0.23026641 </i>
    <i name="e_wo_entrp">     -0.23026641 </i>
    <i name="e_0_energy">     -0.23026641 </i>
   </energy>
  </scstep>
  <scstep>
   <time name="total">    2.51    2.51</time>
   <energy>
    <i name="e_fr_energy">     -0.23026629 </i>
    <i name="e_wo_entrp">     -0.23026629 </i>
    <i name="e_0_energy">     -0.23026629 </i>
   </energy>
  </scstep>
  <kpoints>
   <generation param="Gamma">
    <v type="int" name="divisions">      20       20        1 </v>
    <v name="usershift">      0.00000000       0.00000000       0.00000000 </v>
    <v name="genvec1">      0.05000000      -0.00000000       0.00000000 </v>
    <v name="genvec2">      0.00000000       0.05000000       0.00000000 </v>
    <v name="genvec3">      0.00000000       0.00000000       1.00000000 </v>
    <v name="shift">      0.00000000       0.00000000       0.00000000 </v>
   </generation>
   <varray name="kpointlist" >
    <v>       0.00000000       0.00000000       0.00000000 </v>
    <v>       0.05000000       0.00000000       0.00000000 </v>
    <v>       0.10000000       0.00000000       0.00000000 </v>
    <v>       0.15000000       0.00000000       0.00000000 </v>
    <v>       0.20000000       0.00000000       0.00000000 </v>
    <v>       0.25000000       0.00000000       0.00000000 </v>
    <v>       0.30000000       0.00000000       0.00000000 </v>
    <v>       0.35000000       0.00000000       0.00000000 </v>
    <v>       0.40000000       0.00000000       0.00000000 </v>
    <v>       0.45000000       0.00000000       0.00000000 </v>
    <v>       0.50000000       0.00000000       0.00000000 </v>
    <v>       0.05000000       0.05000000       0.00000000 </v>
    <v>       0.10000000       0.05000000       0.00000000 </v>
    <v>       0.15000000       0.05000000       0.00000000 </v>
    <v>       0.20000000       0.05000000       0.00000000 </v>
    <v>       0.25000000       0.05000000       0.00000000 </v>
    <v>       0.30000000       0.05000000       0.00000000 </v>
    <v>       0.35000000       0.05000000       0.00000000 </v>
    <v>       0.40000000       0.05000000       0.00000000 </v>
    <v>       0.45000000       0.05000000       0.00000000 </v>
    <v>       0.10000000       0.10000000       0.00000000 </v>
    <v>       0.15000000       0.10000000       0.00000000 </v>
    <v>       0.20000000       0.10000000       0.00000000 </v>
    <v>       0.25000000       0.10000000       0.00000000 </v>
    <v>       0.30000000       0.10000000       0.00000000 </v>
    <v>       0.35000000       0.10000000       0.00000000 </v>
    <v>       0.40000000       0.10000000       0.00000000 </v>
    <v>       0.45000000       0.10000000       0.00000000 </v>
    <v>       0.15000000       0.15000000       0.00000000 </v>
    <v>       0.20000000       0.15000000       0.00000000 </v>
    <v>       0.25000000       0.15000000       0.00000000 </v>
    <v>       0.30000000       0.15000000       0.00000000 </v>
    <v>       0.35000000       0.15000000       0.00000000 </v>
    <v>       0.40000000       0.15000000       0.00000000 </v>
    <v>       0.20000000       0.20000000       0.00000000 </v>
    <v>       0.25000000       0.20000000       0.00000000 </v>
    <v>       0.30000000       0.20000000       0.00000000 </v>
    <v>       0.35000000       0.20000000       0.00000000 </v>
    <v>       0.40000000       0.20000000       0.00000000 </v>
    <v>       0.25000000       0.25000000       0.00000000 </v>
    <v>       0.30000000       0.25000000       0.00000000 </v>
    <v>       0.35000000       0.25000000       0.00000000 </v>
    <v>       0.30000000       0.30000000       0.00000000 </v>
    <v>       0.35000000       0.30000000       0.00000000 </v>
   </varray>
   <varray name="weights" >
    <v>       0.00250000 </v>
    <v>       0.01500000 </v>
    <v>       0.01500000 </v>
    <v>       0.01500000 </v>
    <v>       0.01500000 </v>
    <v>       0.01500000 </v>
    <v>       0.01500000 </v>
    <v>       0.01500000 </v>
    <v>       0.01500000 </v>
    <v>       0.01500000 </v>
    <v>       0.00750000 </v>
    <v>       0.01500000 </v>
    <v>       0.03000000 </v>
    <v>       0.03000000 </v>
    <v>       0.03000000 </v>
    <v>       0.03000000 </v>
    <v>       0.03000000 </v>
    <v>       0.03000000 </v>
    <v>       0.03000000 </v>
    <v>       0.03000000 </v>
    <v>       0.01500000 </v>
    <v>       0.03000000 </v>
    <v>       0.03000000 </v>
    <v>       0.03000000 </v>
    <v>       0.03000000 </v>
    <v>       0.03000000 </v>
    <v>       0.03000000 </v>
    <v>       0.01500000 </v>
    <v>       0.01500000 </v>
    <v>       0.03000000 </v>
    <v>       0.03000000 </v>
    <v>       0.03000000 </v>
    <v>       0.03000000 </v>
    <v>       0.03000000 </v>
    <v>       0.01500000 </v>
    <v>       0.03000000 </v>
    <v>       0.03000000 </v>
    <v>       0.03000000 </v>
    <v>       0.01500000 </v>
    <v>       0.01500000 </v>
    <v>       0.03000000 </v>
    <v>       0.03000000 </v>
    <v>       0.01500000 </v>
    <v>       0.01500000 </v>
   </varray>
  </kpoints>
  <scstep>
   <time name="total">    1.05    1.05</time>
   <energy>
    <i name="e_fr_energy">     -0.08889028 </i>
    <i name="e_wo_entrp">     -0.08889028 </i>
    <i name="e_0_energy">     -0.08889028 </i>
   </energy>
  </scstep>
  <scstep>
   <time name="total">    1.17    1.17</time>
   <energy>
    <i name="e_fr_energy">     -0.09539651 </i>
    <i name="e_wo_entrp">     -0.09539651 </i>
    <i name="e_0_energy">     -0.09539651 </i>
   </energy>
  </scstep>
  <scstep>
   <time name="total">    1.13    1.13</time>
   <energy>
    <i name="e_fr_energy">     -0.05583929 </i>
    <i name="e_wo_entrp">     -0.05583929 </i>
    <i name="e_0_energy">     -0.05583929 </i>
   </energy>
  </scstep>
  <scstep>
   <time name="total">    1.12    1.12</time>
   <energy>
    <i name="e_fr_energy">     -0.03792371 </i>
    <i name="e_wo_entrp">     -0.03792371 </i>
    <i name="e_0_energy">     -0.03792371 </i>
   </energy>
  </scstep>
  <scstep>
   <time name="total">    1.14    1.14</time>
   <energy>
    <i name="e_fr_energy">     -0.03418036 </i>
    <i name="e_wo_entrp">     -0.03418036 </i>
    <i name="e_0_energy">     -0.03418036 </i>
   </energy>
  </scstep>
  <scstep>
   <time name="total">    1.13    1.13</time>
   <energy>
    <i name="e_fr_energy">     -0.03464520 </i>
    <i name="e_wo_entrp">     -0.03464520 </i>
    <i name="e_0_energy">     -0.03464520 </i>
   </energy>
  </scstep>
  <scstep>
   <time name="total">    1.11    1.11</time>
   <energy>
    <i name="e_fr_energy">     -0.03457104 </i>
    <i name="e_wo_entrp">     -0.03457104 </i>
    <i name="e_0_energy">     -0.03457104 </i>
   </energy>
  </scstep>
  <scstep>
   <time name="total">    1.12    1.12</time>
   <energy>
    <i name="e_fr_energy">     -0.03476219 </i>
    <i name="e_wo_entrp">     -0.03476219 </i>
    <i name="e_0_energy">     -0.03476219 </i>
   </energy>
  </scstep>
  <scstep>
   <time name="total">    1.14    1.14</time>
   <energy>
    <i name="e_fr_energy">     -0.03476475 </i>
    <i name="e_wo_entrp">     -0.03476475 </i>
    <i name="e_0_energy">     -0.03476475 </i>
   </energy>
  </scstep>
  <scstep>
   <time name="total">    1.12    1.12</time>
   <energy>
    <i name="e_fr_energy">     -0.03476255 </i>
    <i name="e_wo_entrp">     -0.03476255 </i>
    <i name="e_0_energy">     -0.03476255 </i>
   </energy>
  </scstep>
  <scstep>
   <time name="total">    1.14    1.14</time>
   <energy>
    <i name="e_fr_energy">     -0.03476652 </i>
    <i name="e_wo_entrp">     -0.03476652 </i>
    <i name="e_0_energy">     -0.03476652 </i>
   </energy>
  </scstep>
  <scstep>
   <time name="total">    1.18    1.24</time>
   <energy>
    <i name="e_fr_energy">     -0.03462021 </i>
    <i name="e_wo_entrp">     -0.03462021 </i>
    <i name="e_0_energy">     -0.03462021 </i>
   </energy>
  </scstep>
  <scstep>
   <time name="total">    1.05    1.05</time>
   <energy>
    <i name="e_fr_energy">     -0.03464525 </i>
    <i name="e_wo_entrp">     -0.03464525 </i>
    <i name="e_0_energy">     -0.03464525 </i>
   </energy>
  </scstep>
  <scstep>
   <time name="total">    1.05    1.05</time>
   <energy>
    <i name="e_fr_energy">     -0.03470947 </i>
    <i name="e_wo_entrp">     -0.03470947 </i>
    <i name="e_0_energy">     -0.03470947 </i>
   </energy>
  </scstep>
  <scstep>
   <time name="total">    0.93    0.93</time>
   <energy>
    <i name="e_fr_energy">     -0.03473944 </i>
    <i name="e_wo_entrp">     -0.03473944 </i>
    <i name="e_0_energy">     -0.03473944 </i>
   </energy>
  </scstep>
  <scstep>
   <time name="total">    0.68    0.68</time>
   <energy>
    <i name="e_fr_energy">     -0.03474224 </i>
    <i name="e_wo_entrp">     -0.03474224 </i>
    <i name="e_0_energy">     -0.03474224 </i>
   </energy>
  </scstep>
  <scstep>
   <time name="total">    0.64    0.64</time>
   <energy>
    <i name="e_fr_energy">     -0.03474445 </i>
    <i name="e_wo_entrp">     -0.03474445 </i>
    <i name="e_0_energy">     -0.03474445 </i>
   </energy>
  </scstep>
  <scstep>
   <time name="total">    0.67    0.67</time>
   <energy>
    <i name="e_fr_energy">     -0.03475736 </i>
    <i name="e_wo_entrp">     -0.03475736 </i>
    <i name="e_0_energy">     -0.03475736 </i>
   </energy>
  </scstep>
  <scstep>
   <time name="total">    0.65    0.65</time>
   <energy>
    <i name="e_fr_energy">     -0.03475959 </i>
    <i name="e_wo_entrp">     -0.03475959 </i>
    <i name="e_0_energy">     -0.03475959 </i>
   </energy>
  </scstep>
  <scstep>
   <time name="total">    0.65    0.65</time>
   <energy>
    <i name="e_fr_energy">     -0.03475963 </i>
    <i name="e_wo_entrp">     -0.03475963 </i>
    <i name="e_0_energy">     -0.03475963 </i>
   </energy>
  </scstep>
  <kpoints>
   <generation param="Gamma">
    <v type="int" name="divisions">      20       20        1 </v>
    <v name="usershift">      0.00000000       0.00000000       0.00000000 </v>
    <v name="genvec1">      0.05000000      -0.00000000       0.00000000 </v>
    <v name="genvec2">      0.00000000       0.05000000       0.00000000 </v>
    <v name="genvec3">      0.00000000       0.00000000       1.00000000 </v>
    <v name="shift">      0.00000000       0.00000000       0.00000000 </v>
   </generation>
   <varray name="kpointlist" >
    <v>       0.00000000       0.00000000       0.00000000 </v>
    <v>       0.05000000       0.00000000       0.00000000 </v>
    <v>       0.10000000       0.00000000       0.00000000 </v>
    <v>       0.15000000       0.00000000       0.00000000 </v>
    <v>       0.20000000       0.00000000       0.00000000 </v>
    <v>       0.25000000       0.00000000       0.00000000 </v>
    <v>       0.30000000       0.00000000       0.00000000 </v>
    <v>       0.35000000       0.00000000       0.00000000 </v>
    <v>       0.40000000       0.00000000       0.00000000 </v>
    <v>       0.45000000       0.00000000       0.00000000 </v>
    <v>       0.50000000       0.00000000       0.00000000 </v>
    <v>       0.05000000       0.05000000       0.00000000 </v>
    <v>       0.10000000       0.05000000       0.00000000 </v>
    <v>       0.15000000       0.05000000       0.00000000 </v>
    <v>       0.20000000       0.05000000       0.00000000 </v>
    <v>       0.25000000       0.05000000       0.00000000 </v>
    <v>       0.30000000       0.05000000       0.00000000 </v>
    <v>       0.35000000       0.05000000       0.00000000 </v>
    <v>       0.40000000       0.05000000       0.00000000 </v>
    <v>       0.45000000       0.05000000       0.00000000 </v>
    <v>       0.10000000       0.10000000       0.00000000 </v>
    <v>       0.15000000       0.10000000       0.00000000 </v>
    <v>       0.20000000       0.10000000       0.00000000 </v>
    <v>       0.25000000       0.10000000       0.00000000 </v>
    <v>       0.30000000       0.10000000       0.00000000 </v>
    <v>       0.35000000       0.10000000       0.00000000 </v>
    <v>       0.40000000       0.10000000       0.00000000 </v>
    <v>       0.45000000       0.10000000       0.00000000 </v>
    <v>       0.15000000       0.15000000       0.00000000 </v>
    <v>       0.20000000       0.15000000       0.00000000 </v>
    <v>       0.25000000       0.15000000       0.00000000 </v>
    <v>       0.30000000       0.15000000       0.00000000 </v>
    <v>       0.35000000       0.15000000       0.00000000 </v>
    <v>       0.40000000       0.15000000       0.00000000 </v>
    <v>       0.20000000       0.20000000       0.00000000 </v>
    <v>       0.25000000       0.20000000       0.00000000 </v>
    <v>       0.30000000       0.20000000       0.00000000 </v>
    <v>       0.35000000       0.20000000       0.00000000 </v>
    <v>       0.40000000       0.20000000       0.00000000 </v>
    <v>       0.25000000       0.25000000       0.00000000 </v>
    <v>       0.30000000       0.25000000       0.00000000 </v>
    <v>       0.35000000       0.25000000       0.00000000 </v>
    <v>       0.30000000       0.30000000       0.00000000 </v>
    <v>       0.35000000       0.30000000       0.00000000 </v>
   </varray>
   <varray name="weights" >
    <v>       0.00250000 </v>
    <v>       0.01500000 </v>
    <v>       0.01500000 </v>
    <v>       0.01500000 </v>
    <v>       0.01500000 </v>
    <v>       0.01500000 </v>
    <v>       0.01500000 </v>
    <v>       0.01500000 </v>
    <v>       0.01500000 </v>
    <v>       0.01500000 </v>
    <v>       0.00750000 </v>
    <v>       0.01500000 </v>
[...]
       </set>
       <set comment="band 13">
        <r>  0.0004  0.0117  0.0000 </r>
        <r>  0.0004  0.0117  0.0000 </r>
       </set>
       <set comment="band 14">
        <r>  0.0027  0.0063  0.0000 </r>
        <r>  0.0027  0.0063  0.0000 </r>
       </set>
       <set comment="band 15">
        <r>  0.0010  0.0134  0.0000 </r>
        <r>  0.0010  0.0134  0.0000 </r>
       </set>
       <set comment="band 16">
        <r>  0.0040  0.0100  0.0000 </r>
        <r>  0.0040  0.0100  0.0000 </r>
       </set>
      </set>
      <set comment="kpoint 36">
       <set comment="band 1">
        <r>  0.2875  0.0763  0.0000 </r>
        <r>  0.2875  0.0763  0.0000 </r>
       </set>
       <set comment="band 2">
        <r>  0.2164  0.1777  0.0000 </r>
        <r>  0.2164  0.1777  0.0000 </r>
       </set>
       <set comment="band 3">
        <r>  0.0159  0.3360  0.0000 </r>
        <r>  0.0159  0.3360  0.0000 </r>
       </set>
       <set comment="band 4">
        <r>  0.1028  0.2124  0.0000 </r>
        <r>  0.1028  0.2124  0.0000 </r>
       </set>
       <set comment="band 5">
        <r>  0.0513  0.3170  0.0000 </r>
        <r>  0.0513  0.3170  0.0000 </r>
       </set>
       <set comment="band 6">
        <r>  0.0241  0.3247  0.0000 </r>
        <r>  0.0241  0.3247  0.0000 </r>
       </set>
       <set comment="band 7">
        <r>  0.0362  0.3077  0.0000 </r>
        <r>  0.0362  0.3077  0.0000 </r>
       </set>
       <set comment="band 8">
        <r>  0.0762  0.3347  0.0000 </r>
        <r>  0.0762  0.3347  0.0000 </r>
       </set>
       <set comment="band 9">
        <r>  0.0007  0.0367  0.0000 </r>
        <r>  0.0007  0.0367  0.0000 </r>
       </set>
       <set comment="band 10">
        <r>  0.0045  0.0171  0.0000 </r>
        <r>  0.0045  0.0171  0.0000 </r>
       </set>
       <set comment="band 11">
        <r>  0.0000  0.0033  0.0000 </r>
        <r>  0.0000  0.0033  0.0000 </r>
       </set>
       <set comment="band 12">
        <r>  0.0013  0.0035  0.0000 </r>
        <r>  0.0013  0.0035  0.0000 </r>
       </set>
       <set comment="band 13">
        <r>  0.0003  0.0109  0.0000 </r>
        <r>  0.0003  0.0109  0.0000 </r>
       </set>
       <set comment="band 14">
        <r>  0.0025  0.0076  0.0000 </r>
        <r>  0.0025  0.0076  0.0000 </r>
       </set>
       <set comment="band 15">
        <r>  0.0006  0.0123  0.0000 </r>
        <r>  0.0006  0.0123  0.0000 </r>
       </set>
       <set comment="band 16">
        <r>  0.0037  0.0128  0.0000 </r>
        <r>  0.0037  0.0128  0.0000 </r>
       </set>
      </set>
      <set comment="kpoint 37">
       <set comment="band 1">
        <r>  0.2840  0.0853  0.0000 </r>
        <r>  0.2840  0.0853  0.0000 </r>
       </set>
       <set comment="band 2">
        <r>  0.2217  0.1651  0.0000 </r>
        <r>  0.2217  0.1651  0.0000 </r>
       </set>
       <set comment="band 3">
        <r>  0.0203  0.3280  0.0000 </r>
        <r>  0.0203  0.3280  0.0000 </r>
       </set>
       <set comment="band 4">
        <r>  0.1020  0.2245  0.0000 </r>
        <r>  0.1020  0.2245  0.0000 </r>
       </set>
       <set comment="band 5">
        <r>  0.0614  0.3048  0.0000 </r>
        <r>  0.0614  0.3048  0.0000 </r>
       </set>
       <set comment="band 6">
        <r>  0.0116  0.3150  0.0000 </r>
        <r>  0.0116  0.3150  0.0000 </r>
       </set>
       <set comment="band 7">
        <r>  0.0540  0.3098  0.0000 </r>
        <r>  0.0540  0.3098  0.0000 </r>
       </set>
       <set comment="band 8">
        <r>  0.0594  0.3395  0.0000 </r>
        <r>  0.0594  0.3395  0.0000 </r>
       </set>
       <set comment="band 9">
        <r>  0.0005  0.0409  0.0000 </r>
        <r>  0.0005  0.0409  0.0000 </r>
       </set>
       <set comment="band 10">
        <r>  0.0043  0.0194  0.0000 </r>
        <r>  0.0043  0.0194  0.0000 </r>
       </set>
       <set comment="band 11">
        <r>  0.0000  0.0025  0.0000 </r>
        <r>  0.0000  0.0025  0.0000 </r>
       </set>
       <set comment="band 12">
        <r>  0.0011  0.0042  0.0000 </r>
        <r>  0.0011  0.0042  0.0000 </r>
       </set>
       <set comment="band 13">
        <r>  0.0002  0.0097  0.0000 </r>
        <r>  0.0002  0.0097  0.0000 </r>
       </set>
       <set comment="band 14">
        <r>  0.0022  0.0098  0.0000 </r>
        <r>  0.0022  0.0098  0.0000 </r>
       </set>
       <set comment="band 15">
        <r>  0.0003  0.0113  0.0000 </r>
        <r>  0.0003  0.0113  0.0000 </r>
       </set>
       <set comment="band 16">
        <r>  0.0028  0.0219  0.0000 </r>
        <r>  0.0028  0.0219  0.0000 </r>
       </set>
      </set>
      <set comment="kpoint 38">
       <set comment="band 1">
        <r>  0.2853  0.0914  0.0000 </r>
        <r>  0.2853  0.0914  0.0000 </r>
       </set>
       <set comment="band 2">
        <r>  0.2206  0.1571  0.0000 </r>
        <r>  0.2206  0.1571  0.0000 </r>
       </set>
       <set comment="band 3">
        <r>  0.0239  0.3230  0.0000 </r>
        <r>  0.0239  0.3230  0.0000 </r>
       </set>
       <set comment="band 4">
        <r>  0.1014  0.2375  0.0000 </r>
        <r>  0.1014  0.2375  0.0000 </r>
       </set>
       <set comment="band 5">
        <r>  0.0680  0.2904  0.0000 </r>
        <r>  0.0680  0.2904  0.0000 </r>
       </set>
       <set comment="band 6">
        <r>  0.0030  0.3077  0.0000 </r>
        <r>  0.0030  0.3077  0.0000 </r>
       </set>
       <set comment="band 7">
        <r>  0.0734  0.3123  0.0000 </r>
        <r>  0.0734  0.3123  0.0000 </r>
       </set>
       <set comment="band 8">
        <r>  0.0410  0.3469  0.0000 </r>
        <r>  0.0410  0.3469  0.0000 </r>
       </set>
       <set comment="band 9">
        <r>  0.0006  0.0374  0.0000 </r>
        <r>  0.0006  0.0374  0.0000 </r>
       </set>
       <set comment="band 10">
        <r>  0.0036  0.0265  0.0000 </r>
        <r>  0.0036  0.0265  0.0000 </r>
       </set>
       <set comment="band 11">
        <r>  0.0000  0.0015  0.0000 </r>
        <r>  0.0000  0.0015  0.0000 </r>
       </set>
       <set comment="band 12">
        <r>  0.0008  0.0062  0.0000 </r>
        <r>  0.0008  0.0062  0.0000 </r>
       </set>
       <set comment="band 13">
        <r>  0.0000  0.0067  0.0000 </r>
        <r>  0.0000  0.0067  0.0000 </r>
       </set>
       <set comment="band 14">
        <r>  0.0005  0.0295  0.0000 </r>
        <r>  0.0005  0.0296  0.0000 </r>
       </set>
       <set comment="band 15">
        <r>  0.0012  0.0149  0.0000 </r>
        <r>  0.0012  0.0149  0.0000 </r>
       </set>
       <set comment="band 16">
        <r>  0.0002  0.0273  0.0000 </r>
        <r>  0.0002  0.0273  0.0000 </r>
       </set>
      </set>
      <set comment="kpoint 39">
       <set comment="band 1">
        <r>  0.2921  0.0911  0.0000 </r>
        <r>  0.2921  0.0911  0.0000 </r>
       </set>
       <set comment="band 2">
        <r>  0.2137  0.1568  0.0000 </r>
        <r>  0.2137  0.1568  0.0000 </r>
       </set>
       <set comment="band 3">
        <r>  0.0252  0.3214  0.0000 </r>
        <r>  0.0252  0.3214  0.0000 </r>
       </set>
       <set comment="band 4">
        <r>  0.1019  0.2448  0.0000 </r>
        <r>  0.1019  0.2448  0.0000 </r>
       </set>
       <set comment="band 5">
        <r>  0.0696  0.2824  0.0000 </r>
        <r>  0.0696  0.2824  0.0000 </r>
       </set>
       <set comment="band 6">
        <r>  0.0001  0.3052  0.0000 </r>
        <r>  0.0001  0.3052  0.0000 </r>
       </set>
       <set comment="band 7">
        <r>  0.0800  0.3132  0.0000 </r>
        <r>  0.0800  0.3132  0.0000 </r>
       </set>
       <set comment="band 8">
        <r>  0.0347  0.3509  0.0000 </r>
        <r>  0.0347  0.3509  0.0000 </r>
       </set>
       <set comment="band 9">
        <r>  0.0009  0.0232  0.0000 </r>
        <r>  0.0009  0.0232  0.0000 </r>
       </set>
       <set comment="band 10">
        <r>  0.0001  0.0668  0.0000 </r>
        <r>  0.0001  0.0668  0.0000 </r>
       </set>
       <set comment="band 11">
        <r>  0.0037  0.0203  0.0000 </r>
        <r>  0.0037  0.0202  0.0000 </r>
       </set>
       <set comment="band 12">
        <r>  0.0019  0.0163  0.0000 </r>
        <r>  0.0019  0.0163  0.0000 </r>
       </set>
       <set comment="band 13">
        <r>  0.0000  0.0005  0.0000 </r>
        <r>  0.0000  0.0005  0.0000 </r>
       </set>
       <set comment="band 14">
        <r>  0.0000  0.0019  0.0000 </r>
        <r>  0.0000  0.0018  0.0000 </r>
       </set>
       <set comment="band 15">
        <r>  0.0002  0.0063  0.0000 </r>
        <r>  0.0002  0.0061  0.0000 </r>
       </set>
       <set comment="band 16">
        <r>  0.0006  0.0066  0.0000 </r>
        <r>  0.0006  0.0069  0.0000 </r>
       </set>
      </set>
      <set comment="kpoint 40">
       <set comment="band 1">
        <r>  0.2831  0.0856  0.0000 </r>
        <r>  0.2831  0.0856  0.0000 </r>
       </set>
       <set comment="band 2">
        <r>  0.2321  0.1614  0.0000 </r>
        <r>  0.2321  0.1614  0.0000 </r>
       </set>
       <set comment="band 3">
        <r>  0.0132  0.3276  0.0000 </r>
        <r>  0.0132  0.3276  0.0000 </r>
       </set>
       <set comment="band 4">
        <r>  0.1012  0.2242  0.0000 </r>
        <r>  0.1012  0.2242  0.0000 </r>
       </set>
       <set comment="band 5">
        <r>  0.0610  0.3081  0.0000 </r>
        <r>  0.0610  0.3081  0.0000 </r>
       </set>
       <set comment="band 6">
        <r>  0.0053  0.3187  0.0000 </r>
        <r>  0.0053  0.3187  0.0000 </r>
       </set>
       <set comment="band 7">
        <r>  0.0431  0.3055  0.0000 </r>
        <r>  0.0431  0.3055  0.0000 </r>
       </set>
       <set comment="band 8">
        <r>  0.0775  0.3503  0.0000 </r>
        <r>  0.0775  0.3503  0.0000 </r>
       </set>
       <set comment="band 9">
        <r>  0.0002  0.0433  0.0000 </r>
        <r>  0.0002  0.0433  0.0000 </r>
       </set>
       <set comment="band 10">
        <r>  0.0045  0.0161  0.0000 </r>
        <r>  0.0045  0.0162  0.0000 </r>
       </set>
       <set comment="band 11">
        <r>  0.0000  0.0025  0.0000 </r>
        <r>  0.0000  0.0025  0.0000 </r>
       </set>
       <set comment="band 12">
        <r>  0.0011  0.0041  0.0000 </r>
        <r>  0.0011  0.0041  0.0000 </r>
       </set>
       <set comment="band 13">
        <r>  0.0002  0.0096  0.0000 </r>
        <r>  0.0002  0.0096  0.0000 </r>
       </set>
       <set comment="band 14">
        <r>  0.0022  0.0094  0.0000 </r>
        <r>  0.0022  0.0094  0.0000 </r>
       </set>
       <set comment="band 15">
        <r>  0.0003  0.0107  0.0000 </r>
        <r>  0.0003  0.0107  0.0000 </r>
       </set>
       <set comment="band 16">
        <r>  0.0028  0.0175  0.0000 </r>
        <r>  0.0028  0.0175  0.0000 </r>
       </set>
      </set>
      <set comment="kpoint 41">
       <set comment="band 1">
        <r>  0.2804  0.0943  0.0000 </r>
        <r>  0.2804  0.0943  0.0000 </r>
       </set>
       <set comment="band 2">
        <r>  0.2412  0.1481  0.0000 </r>
        <r>  0.2412  0.1481  0.0000 </r>
       </set>
       <set comment="band 3">
        <r>  0.0127  0.3217  0.0000 </r>
        <r>  0.0127  0.3217  0.0000 </r>
       </set>
       <set comment="band 4">
        <r>  0.0986  0.2380  0.0000 </r>
        <r>  0.0986  0.2380  0.0000 </r>
       </set>
       <set comment="band 5">
        <r>  0.0697  0.2958  0.0000 </r>
        <r>  0.0697  0.2958  0.0000 </r>
       </set>
       <set comment="band 6">
        <r>  0.0019  0.3022  0.0000 </r>
        <r>  0.0019  0.3022  0.0000 </r>
       </set>
       <set comment="band 7">
        <r>  0.0526  0.3256  0.0000 </r>
        <r>  0.0526  0.3256  0.0000 </r>
       </set>
       <set comment="band 8">
        <r>  0.0627  0.3554  0.0000 </r>
        <r>  0.0627  0.3554  0.0000 </r>
       </set>
       <set comment="band 9">
        <r>  0.0001  0.0453  0.0000 </r>
        <r>  0.0001  0.0453  0.0000 </r>
       </set>
       <set comment="band 10">
        <r>  0.0040  0.0213  0.0000 </r>
        <r>  0.0040  0.0213  0.0000 </r>
       </set>
       <set comment="band 11">
        <r>  0.0000  0.0018  0.0000 </r>
        <r>  0.0000  0.0018  0.0000 </r>
       </set>
       <set comment="band 12">
        <r>  0.0008  0.0050  0.0000 </r>
        <r>  0.0008  0.0050  0.0000 </r>
       </set>
       <set comment="band 13">
        <r>  0.0000  0.0084  0.0000 </r>
        <r>  0.0000  0.0084  0.0000 </r>
       </set>
       <set comment="band 14">
        <r>  0.0015  0.0145  0.0000 </r>
        <r>  0.0015  0.0145  0.0000 </r>
       </set>
       <set comment="band 15">
        <r>  0.0000  0.0303  0.0000 </r>
        <r>  0.0000  0.0303  0.0000 </r>
       </set>
       <set comment="band 16">
        <r>  0.0000  0.0378  0.0000 </r>
        <r>  0.0000  0.0378  0.0000 </r>
       </set>
      </set>
      <set comment="kpoint 42">
       <set comment="band 1">
        <r>  0.2830  0.0992  0.0000 </r>
        <r>  0.2830  0.0992  0.0000 </r>
       </set>
       <set comment="band 2">
        <r>  0.2408  0.1414  0.0000 </r>
        <r>  0.2408  0.1414  0.0000 </r>
       </set>
       <set comment="band 3">
        <r>  0.0134  0.3184  0.0000 </r>
        <r>  0.0134  0.3184  0.0000 </r>
       </set>
       <set comment="band 4">
        <r>  0.0965  0.2507  0.0000 </r>
        <r>  0.0965  0.2507  0.0000 </r>
       </set>
       <set comment="band 5">
        <r>  0.0751  0.2836  0.0000 </r>
        <r>  0.0751  0.2836  0.0000 </r>
       </set>
       <set comment="band 6">
        <r>  0.0004  0.2936  0.0000 </r>
        <r>  0.0004  0.2936  0.0000 </r>
       </set>
       <set comment="band 7">
        <r>  0.0674  0.3421  0.0000 </r>
        <r>  0.0674  0.3421  0.0000 </r>
       </set>
       <set comment="band 8">
        <r>  0.0446  0.3550  0.0000 </r>
        <r>  0.0446  0.3550  0.0000 </r>
       </set>
       <set comment="band 9">
        <r>  0.0004  0.0399  0.0000 </r>
        <r>  0.0004  0.0399  0.0000 </r>
       </set>
       <set comment="band 10">
        <r>  0.0026  0.0388  0.0000 </r>
        <r>  0.0026  0.0388  0.0000 </r>
       </set>
       <set comment="band 11">
        <r>  0.0003  0.0339  0.0000 </r>
        <r>  0.0003  0.0339  0.0000 </r>
       </set>
       <set comment="band 12">
        <r>  0.0000  0.0030  0.0000 </r>
        <r>  0.0000  0.0030  0.0000 </r>
       </set>
       <set comment="band 13">
        <r>  0.0004  0.0210  0.0000 </r>
        <r>  0.0004  0.0210  0.0000 </r>
       </set>
       <set comment="band 14">
        <r>  0.0010  0.0163  0.0000 </r>
        <r>  0.0010  0.0163  0.0000 </r>
       </set>
       <set comment="band 15">
        <r>  0.0004  0.0197  0.0000 </r>
        <r>  0.0004  0.0197  0.0000 </r>
       </set>
       <set comment="band 16">
        <r>  0.0011  0.0273  0.0000 </r>
        <r>  0.0011  0.0273  0.0000 </r>
       </set>
      </set>
      <set comment="kpoint 43">
       <set comment="band 1">
        <r>  0.2774  0.1034  0.0000 </r>
        <r>  0.2774  0.1034  0.0000 </r>
       </set>
       <set comment="band 2">
        <r>  0.2566  0.1327  0.0000 </r>
        <r>  0.2566  0.1327  0.0000 </r>
       </set>
       <set comment="band 3">
        <r>  0.0052  0.3196  0.0000 </r>
        <r>  0.0052  0.3196  0.0000 </r>
       </set>
       <set comment="band 4">
        <r>  0.0940  0.2525  0.0000 </r>
        <r>  0.0940  0.2525  0.0000 </r>
       </set>
       <set comment="band 5">
        <r>  0.0776  0.2847  0.0000 </r>
        <r>  0.0776  0.2847  0.0000 </r>
       </set>
       <set comment="band 6">
        <r>  0.0005  0.2890  0.0000 </r>
        <r>  0.0005  0.2890  0.0000 </r>
       </set>
       <set comment="band 7">
        <r>  0.0468  0.3458  0.0000 </r>
        <r>  0.0468  0.3458  0.0000 </r>
       </set>
       <set comment="band 8">
        <r>  0.0644  0.3660  0.0000 </r>
        <r>  0.0644  0.3660  0.0000 </r>
       </set>
       <set comment="band 9">
        <r>  0.0000  0.0477  0.0000 </r>
        <r>  0.0000  0.0477  0.0000 </r>
       </set>
       <set comment="band 10">
        <r>  0.0033  0.0291  0.0000 </r>
        <r>  0.0033  0.0291  0.0000 </r>
       </set>
       <set comment="band 11">
        <r>  0.0000  0.0015  0.0000 </r>
        <r>  0.0000  0.0015  0.0000 </r>
       </set>
       <set comment="band 12">
        <r>  0.0000  0.0533  0.0000 </r>
        <r>  0.0000  0.0533  0.0000 </r>
       </set>
       <set comment="band 13">
        <r>  0.0003  0.0095  0.0000 </r>
        <r>  0.0003  0.0095  0.0000 </r>
       </set>
       <set comment="band 14">
        <r>  0.0000  0.0084  0.0000 </r>
        <r>  0.0000  0.0084  0.0000 </r>
       </set>
       <set comment="band 15">
        <r>  0.0001  0.0173  0.0000 </r>
        <r>  0.0001  0.0173  0.0000 </r>
       </set>
       <set comment="band 16">
        <r>  0.0010  0.0182  0.0000 </r>
        <r>  0.0010  0.0182  0.0000 </r>
       </set>
      </set>
      <set comment="kpoint 44">
       <set comment="band 1">
        <r>  0.2769  0.1088  0.0000 </r>
        <r>  0.2769  0.1088  0.0000 </r>
       </set>
       <set comment="band 2">
        <r>  0.2616  0.1249  0.0000 </r>
        <r>  0.2616  0.1249  0.0000 </r>
       </set>
       <set comment="band 3">
        <r>  0.0023  0.3192  0.0000 </r>
        <r>  0.0023  0.3192  0.0000 </r>
       </set>
       <set comment="band 4">
        <r>  0.0906  0.2626  0.0000 </r>
        <r>  0.0906  0.2626  0.0000 </r>
       </set>
       <set comment="band 5">
        <r>  0.0823  0.2757  0.0000 </r>
        <r>  0.0823  0.2757  0.0000 </r>
       </set>
       <set comment="band 6">
        <r>  0.0001  0.2842  0.0000 </r>
        <r>  0.0001  0.2842  0.0000 </r>
       </set>
       <set comment="band 7">
        <r>  0.0599  0.3630  0.0000 </r>
        <r>  0.0599  0.3630  0.0000 </r>
       </set>
       <set comment="band 8">
        <r>  0.0497  0.3616  0.0000 </r>
        <r>  0.0497  0.3616  0.0000 </r>
       </set>
       <set comment="band 9">
        <r>  0.0003  0.0425  0.0000 </r>
        <r>  0.0003  0.0425  0.0000 </r>
       </set>
       <set comment="band 10">
        <r>  0.0001  0.0507  0.0000 </r>
        <r>  0.0001  0.0507  0.0000 </r>
       </set>
       <set comment="band 11">
        <r>  0.0008  0.0426  0.0000 </r>
        <r>  0.0008  0.0426  0.0000 </r>
       </set>
       <set comment="band 12">
        <r>  0.0014  0.0352  0.0000 </r>
        <r>  0.0014  0.0352  0.0000 </r>
       </set>
       <set comment="band 13">
        <r>  0.0018  0.0098  0.0000 </r>
        <r>  0.0018  0.0098  0.0000 </r>
       </set>
       <set comment="band 14">
        <r>  0.0000  0.0023  0.0000 </r>
        <r>  0.0000  0.0024  0.0000 </r>
       </set>
       <set comment="band 15">
        <r>  0.0000  0.0013  0.0000 </r>
        <r>  0.0000  0.0012  0.0000 </r>
       </set>
       <set comment="band 16">
        <r>  0.0002  0.0072  0.0000 </r>
        <r>  0.0002  0.0073  0.0000 </r>
       </set>
      </set>
     </set>
    </set>
   </array>
  </projected>
 </calculation>
 <structure name="finalpos" >
  <crystal>
   <varray name="basis" >
    <v>       2.29449868       0.00000000       0.00000000 </v>
    <v>      -1.14724934       1.98709415       0.00000000 </v>
    <v>       0.00000000       0.00000000      24.00000000 </v>
   </varray>
   <i name="volume">    109.42523766 </i>
   <varray name="rec_basis" >
    <v>       0.43582505       0.25162371       0.00000000 </v>
    <v>       0.00000000       0.50324742       0.00000000 </v>
    <v>       0.00000000       0.00000000       0.04166667 </v>
   </varray>
  </crystal>
  <varray name="positions" >
   <v>       0.66666669       0.33333334       0.31881458 </v>
   <v>       0.33333334       0.66666669       0.34785211 </v>
  </varray>
 </structure>
</modeling>
