unknown system                          
           1
     2.294499    0.000000    0.000000
    -1.147249    1.987094    0.000000
     0.000000    0.000000   24.000000
   N 
     2
Direct configuration=     1
   0.66666669  0.33333334  0.31881458
   0.33333334  0.66666669  0.34785211
