 running   16 mpi-ranks, on    1 nodes
 distrk:  each k-point on   16 cores,    1 groups
 distr:  one band on    1 cores,   16 groups
 vasp.6.4.2 20Jul23 (build Nov 14 2023 12:59:38) complex                        
  
 POSCAR found type information on POSCAR H 
 POSCAR found :  1 types and      18 ions
 Reading from existing POTCAR
 scaLAPACK will be used
 -----------------------------------------------------------------------------
|                                                                             |
|           W    W    AA    RRRRR   N    N  II  N    N   GGGG   !!!           |
|           W    W   A  A   R    R  NN   N  II  NN   N  G    G  !!!           |
|           W    W  A    A  R    R  N N  N  II  N N  N  G       !!!           |
|           W WW W  AAAAAA  RRRRR   N  N N  II  N  N N  G  GGG   !            |
|           WW  WW  A    A  R   R   N   NN  II  N   NN  G    G                |
|           W    W  A    A  R    R  N    N  II  N    N   GGGG   !!!           |
|                                                                             |
|     For optimal performance we recommend to set                             |
|       NCORE = 2 up to number-of-cores-per-socket                            |
|     NCORE specifies how many cores store one orbital (NPAR=cpu/NCORE).      |
|     This setting can greatly improve the performance of VASP for DFT.       |
|     The default, NCORE=1 might be grossly inefficient on modern             |
|     multi-core architectures or massively parallel machines. Do your        |
|     own testing! More info at https://www.vasp.at/wiki/index.php/NCORE      |
|     Unfortunately you need to use the default for GW and RPA                |
|     calculations (for HF NCORE is supported but not extensively tested      |
|     yet).                                                                   |
|                                                                             |
 -----------------------------------------------------------------------------

 Reading from existing POTCAR
 WARNING: type information on POSCAR and POTCAR are incompatible
 POTCAR overwrites the type information in POSCAR
 typ   1 type information:  H  As
 -----------------------------------------------------------------------------
|                                                                             |
|               ----> ADVICE to this user running VASP <----                  |
|                                                                             |
|     You have a (more or less) 'large supercell' and for larger cells it     |
|     might be more efficient to use real-space projection operators.         |
|     Therefore, try LREAL= Auto in the INCAR file.                           |
|     Mind: For very accurate calculation, you might also keep the            |
|     reciprocal projection scheme (i.e. LREAL=.FALSE.).                      |
|                                                                             |
 -----------------------------------------------------------------------------

 LDA part: xc-table for Pade appr. of Perdew
 POSCAR, INCAR and KPOINTS ok, starting setup
 FFT: planning ... GRIDC
 FFT: planning ... GRID_SOFT
 FFT: planning ... GRID
 WAVECAR not read
 entering main loop
       N       E                     dE             d eps       ncg     rms          rms(c)
DAV:   1     0.436329770072E+03    0.43633E+03   -0.18668E+04  1200   0.529E+02
DAV:   2    -0.191389305536E+02   -0.45547E+03   -0.44295E+03  1680   0.143E+02
DAV:   3    -0.801084839522E+02   -0.60970E+02   -0.60542E+02  1472   0.566E+01
DAV:   4    -0.845896077418E+02   -0.44811E+01   -0.44772E+01  1968   0.180E+01
DAV:   5    -0.846187444952E+02   -0.29137E-01   -0.29124E-01  1712   0.150E+00
DAV:   6    -0.846197044064E+02   -0.95991E-03   -0.95985E-03  1888   0.246E-01
DAV:   7    -0.846197283382E+02   -0.23932E-04   -0.23930E-04  1792   0.285E-02
DAV:   8    -0.846197295380E+02   -0.11998E-05   -0.11994E-05  1744   0.574E-03
DAV:   9    -0.846197296067E+02   -0.68728E-07   -0.68555E-07  1664   0.898E-04
DAV:  10    -0.846197296112E+02   -0.44583E-08   -0.45340E-08  1216   0.269E-04
DAV:  11    -0.846197296116E+02   -0.41973E-09   -0.19776E-09  1040   0.815E-05
DAV:  12    -0.846197296113E+02    0.28786E-09   -0.63343E-10   944   0.523E-05    0.579E+00
DAV:  13    -0.844879963499E+02    0.13173E+00   -0.24847E-02  1440   0.369E-01    0.516E+00
DAV:  14    -0.841046522528E+02    0.38334E+00   -0.14654E+00  1328   0.281E+00    0.666E-01
DAV:  15    -0.840722407662E+02    0.32411E-01   -0.14806E-01  1360   0.932E-01    0.344E-01
DAV:  16    -0.840739792683E+02   -0.17385E-02   -0.11520E-02  1552   0.294E-01    0.152E-01
DAV:  17    -0.840728446824E+02    0.11346E-02   -0.51770E-03  1440   0.190E-01    0.128E-01
DAV:  18    -0.840729760428E+02   -0.13136E-03   -0.15861E-03  1520   0.960E-02    0.207E-02
DAV:  19    -0.840729713884E+02    0.46543E-05   -0.11690E-04  1728   0.301E-02    0.185E-02
DAV:  20    -0.840729781166E+02   -0.67281E-05   -0.19534E-05  1440   0.114E-02    0.886E-03
DAV:  21    -0.840729779389E+02    0.17771E-06   -0.12205E-05  1488   0.103E-02    0.264E-03
DAV:  22    -0.840729763864E+02    0.15525E-05   -0.21396E-06  1456   0.352E-03    0.182E-03
DAV:  23    -0.840729750149E+02    0.13715E-05   -0.75122E-07  1472   0.211E-03    0.797E-04
DAV:  24    -0.840729753637E+02   -0.34877E-06   -0.19491E-07  1152   0.979E-04    0.320E-04
DAV:  25    -0.840729754530E+02   -0.89275E-07   -0.15476E-08  1008   0.365E-04
   1 F= -.84072975E+02 E0= -.84072975E+02  d E =-.423067E-12
 Linear response reoptimize wavefunctions to high precision
DAV:   1    -0.840729755748E+02   -0.12185E-06   -0.39880E-09  1136   0.213E-04
DAV:   2    -0.840729755747E+02    0.93678E-10   -0.10363E-09  1008   0.103E-04
DAV:   3    -0.840729755747E+02    0.40927E-10   -0.43750E-10  1008   0.660E-05
 Linear response DOF=           2
 Linear response progress:
  Degree of freedom:   1/  2
       N       E                     dE             d eps       ncg     rms          rms(c)
RMM:   1    -0.388322884628E-01   -0.38832E-01    0.19942E-02  8273   0.615E-01
RMM:   2    -0.343826500701E-01    0.44496E-02   -0.43681E-03  5603   0.177E-01    0.544E-02
RMM:   3    -0.344506776513E-01   -0.68028E-04   -0.28128E-04  6345   0.489E-02    0.471E-02
RMM:   4    -0.343644234472E-01    0.86254E-04   -0.10438E-04  6210   0.222E-02    0.220E-02
RMM:   5    -0.343446456167E-01    0.19778E-04   -0.97370E-06  6266   0.837E-03    0.131E-02
RMM:   6    -0.343370466563E-01    0.75990E-05   -0.11898E-05  5908   0.699E-03    0.399E-03
RMM:   7    -0.343307555683E-01    0.62911E-05   -0.16810E-06  6030   0.279E-03    0.221E-03
RMM:   8    -0.343383587263E-01   -0.76032E-05   -0.63124E-07  6514   0.132E-03    0.154E-03
RMM:   9    -0.343418080786E-01   -0.34494E-05   -0.46037E-07  5865   0.133E-03    0.768E-04
RMM:  10    -0.343440049431E-01   -0.21969E-05   -0.12014E-07  6201   0.517E-04    0.396E-04
RMM:  11    -0.343444422462E-01   -0.43730E-06   -0.10654E-07  6232   0.449E-04    0.264E-04
RMM:  12    -0.343440597331E-01    0.38251E-06   -0.20799E-07  6088   0.257E-04    0.782E-05
RMM:  13    -0.343439737922E-01    0.85941E-07   -0.14477E-07  6617   0.104E-04    0.332E-05
 first order change of Fermi-energy -1.724640290019508E-002
 force on displaced ion       1 direction 1 :  -8.153  -0.000  -0.000
 Linear response progress:
  Degree of freedom:   2/  2
       N       E                     dE             d eps       ncg     rms          rms(c)
RMM:   1    -0.397255430803E-01   -0.39726E-01    0.12463E-02  2853   0.621E-01
RMM:   2    -0.342973760291E-01    0.54282E-02   -0.45670E-03  1957   0.172E-01    0.658E-02
RMM:   3    -0.344481066028E-01   -0.15073E-03   -0.31991E-04  2171   0.468E-02    0.561E-02
RMM:   4    -0.346682505321E-01   -0.22014E-03   -0.18818E-04  2159   0.266E-02    0.350E-02
RMM:   5    -0.348771284809E-01   -0.20888E-03   -0.12378E-04  2145   0.224E-02    0.173E-02
RMM:   6    -0.348606735620E-01    0.16455E-04   -0.20027E-05  2020   0.959E-03    0.929E-03
RMM:   7    -0.347898681259E-01    0.70805E-04   -0.74733E-06  2046   0.557E-03    0.357E-03
RMM:   8    -0.347737680940E-01    0.16100E-04   -0.10374E-06  2146   0.214E-03    0.268E-03
RMM:   9    -0.347599589313E-01    0.13809E-04   -0.12489E-06  2041   0.214E-03    0.105E-03
RMM:  10    -0.347526407099E-01    0.73182E-05    0.39381E-07  2097   0.831E-04    0.718E-04
RMM:  11    -0.347543974080E-01   -0.17567E-05    0.33654E-07  2220   0.375E-04    0.495E-04
RMM:  12    -0.347564591530E-01   -0.20617E-05    0.21170E-07  2098   0.415E-04    0.225E-04
RMM:  13    -0.347562723045E-01    0.18685E-06    0.20227E-07  2116   0.223E-04    0.130E-04
RMM:  14    -0.347561662169E-01    0.10609E-06    0.37096E-07  2239   0.146E-04    0.768E-05
RMM:  15    -0.347565261291E-01   -0.35991E-06   -0.53345E-08  2327   0.808E-05    0.282E-05
RMM:  16    -0.347565984471E-01   -0.72318E-07    0.11285E-08  2517   0.502E-05    0.141E-05
 first order change of Fermi-energy -0.760845198720705     
 force on displaced ion       1 direction 3 :  -0.000   0.000  -9.664
 Linear response finished
IPL WARN> IPL_init_numa_nodes: can not define numa node num
