 vasp.6.4.2 20Jul23 (build Nov 14 2023 12:59:38) complex                        
  
 executed on             LinuxIFC date 2023.12.16  19:35:32
 running   16 mpi-ranks, on    1 nodes
 distrk:  each k-point on   16 cores,    1 groups
 distr:  one band on NCORE=   1 cores,   16 groups


--------------------------------------------------------------------------------------------------------


 INCAR:
   ENCUT = 234.789750
   ALGO = Normal
   NELM = 200
   NELMIN = 6
   NELMDL = -12
   EDIFF = 1.0E-7
   AMIX = 0.1
   BMIX = 0.0001
   PREC = Accurate
   IVDW = 0
   ISPIN = 1
   ADDGRID = .TRUE.
   LASPH = .TRUE.
   EDIFFG = -0.010
   IBRION = 8
   STRESSTYPE = 2
   ISMEAR = 0
   SIGMA = 0.01
   LORBIT = 10
   NEDOS = 6001
   NWRITE = 1
   LWAVE = .FALSE.
   LCHARG = .FALSE.
   LPLANE = .TRUE.

 POTCAR:    PAW_PBE As_GW 20Mar2012               
 -----------------------------------------------------------------------------
|                                                                             |
|           W    W    AA    RRRRR   N    N  II  N    N   GGGG   !!!           |
|           W    W   A  A   R    R  NN   N  II  NN   N  G    G  !!!           |
|           W    W  A    A  R    R  N N  N  II  N N  N  G       !!!           |
|           W WW W  AAAAAA  RRRRR   N  N N  II  N  N N  G  GGG   !            |
|           WW  WW  A    A  R   R   N   NN  II  N   NN  G    G                |
|           W    W  A    A  R    R  N    N  II  N    N   GGGG   !!!           |
|                                                                             |
|     For optimal performance we recommend to set                             |
|       NCORE = 2 up to number-of-cores-per-socket                            |
|     NCORE specifies how many cores store one orbital (NPAR=cpu/NCORE).      |
|     This setting can greatly improve the performance of VASP for DFT.       |
|     The default, NCORE=1 might be grossly inefficient on modern             |
|     multi-core architectures or massively parallel machines. Do your        |
|     own testing! More info at https://www.vasp.at/wiki/index.php/NCORE      |
|     Unfortunately you need to use the default for GW and RPA                |
|     calculations (for HF NCORE is supported but not extensively tested      |
|     yet).                                                                   |
|                                                                             |
 -----------------------------------------------------------------------------

 POTCAR:    PAW_PBE As_GW 20Mar2012               
  local pseudopotential read in
  partial core-charges read in
  partial kinetic energy density read in
  kinetic energy density of atom read in
  atomic valenz-charges read in
  non local Contribution for L=           0  read in
    real space projection operators read in
  non local Contribution for L=           0  read in
    real space projection operators read in
  non local Contribution for L=           1  read in
    real space projection operators read in
  non local Contribution for L=           1  read in
    real space projection operators read in
  non local Contribution for L=           2  read in
    real space projection operators read in
    PAW grid and wavefunctions read in
 
   number of l-projection  operators is LMAX  =           5
   number of lm-projection operators is LMMAX =          13
 
 -----------------------------------------------------------------------------
|                                                                             |
|               ----> ADVICE to this user running VASP <----                  |
|                                                                             |
|     You have a (more or less) 'large supercell' and for larger cells it     |
|     might be more efficient to use real-space projection operators.         |
|     Therefore, try LREAL= Auto in the INCAR file.                           |
|     Mind: For very accurate calculation, you might also keep the            |
|     reciprocal projection scheme (i.e. LREAL=.FALSE.).                      |
|                                                                             |
 -----------------------------------------------------------------------------

  PAW_PBE As_GW 20Mar2012               :
 energy of atom  1       EATOM= -170.1867
 kinetic energy error for atom=    0.0047 (will be added to EATOM!!)
 
 
 POSCAR: generated by phonopy
  positions in direct lattice
  No initial velocities read in
 exchange correlation table for  LEXCH =        8
   RHO(1)=    0.500       N(1)  =     2000
   RHO(2)=  100.500       N(2)  =     4000
 


--------------------------------------------------------------------------------------------------------


 ion  position               nearest neighbor table
   1  0.222  0.111  0.456-  10 2.51  11 2.51  16 2.51
   2  0.556  0.111  0.456-  11 2.51  12 2.51  17 2.51
   3  0.889  0.111  0.456-  12 2.51  18 2.51  10 2.51
   4  0.222  0.444  0.456-  10 2.51  13 2.51  14 2.51
   5  0.556  0.444  0.456-  11 2.51  15 2.51  14 2.51
   6  0.889  0.444  0.456-  12 2.51  15 2.51  13 2.51
   7  0.222  0.778  0.456-  16 2.51  13 2.51  17 2.51
   8  0.556  0.778  0.456-  14 2.51  17 2.51  18 2.51
   9  0.889  0.778  0.456-  18 2.51  15 2.51  16 2.51
  10  0.111  0.222  0.544-   1 2.51   4 2.51   3 2.51
  11  0.444  0.222  0.544-   5 2.51   2 2.51   1 2.51
  12  0.778  0.222  0.544-   3 2.51   6 2.51   2 2.51
  13  0.111  0.556  0.544-   4 2.51   7 2.51   6 2.51
  14  0.444  0.556  0.544-   8 2.51   4 2.51   5 2.51
  15  0.778  0.556  0.544-   6 2.51   9 2.51   5 2.51
  16  0.111  0.889  0.544-   7 2.51   1 2.51   9 2.51
  17  0.444  0.889  0.544-   7 2.51   8 2.51   2 2.51
  18  0.778  0.889  0.544-   9 2.51   8 2.51   3 2.51
 
  LATTYP: Found a hexagonal cell.
 ALAT       =    10.8206776169
 C/A-ratio  =     1.4786504659
  
  Lattice vectors:
  
 A1 = (  10.8206776169,   0.0000000000,   0.0000000000)
 A2 = (  -5.4103388084,   9.3709817024,   0.0000000000)
 A3 = (   0.0000000000,   0.0000000000,  16.0000000000)


Analysis of symmetry for initial positions (statically):
=====================================================================
 Subroutine PRICEL returns following result:
 
  LATTYP: Found a hexagonal cell.
 ALAT       =     3.6068925390
 C/A-ratio  =     4.4359513978
  
  Lattice vectors:
  
 A1 = (   3.6068925390,   0.0000000000,   0.0000000000)
 A2 = (  -1.8034462695,   3.1236605675,   0.0000000000)
 A3 = (   0.0000000000,   0.0000000000,  16.0000000000)
 
   9 primitive cells build up your supercell.
 

 Routine SETGRP: Setting up the symmetry group for a 
 hexagonal supercell.


 Subroutine GETGRP returns: Found 12 space group operations
 (whereof 12 operations were pure point group operations)
 out of a pool of 24 trial point group operations.


The static configuration has the point symmetry D_3d.


Analysis of symmetry for dynamics (positions and initial velocities):
=====================================================================
 Subroutine PRICEL returns following result:
 
  LATTYP: Found a hexagonal cell.
 ALAT       =     3.6068925390
 C/A-ratio  =     4.4359513978
  
  Lattice vectors:
  
 A1 = (   3.6068925390,   0.0000000000,   0.0000000000)
 A2 = (  -1.8034462695,   3.1236605675,   0.0000000000)
 A3 = (   0.0000000000,   0.0000000000,  16.0000000000)
 
   9 primitive cells build up your supercell.
 

 Routine SETGRP: Setting up the symmetry group for a 
 hexagonal supercell.


 Subroutine GETGRP returns: Found 12 space group operations
 (whereof 12 operations were pure point group operations)
 out of a pool of 24 trial point group operations.


The dynamic configuration has the point symmetry D_3d.


 Subroutine INISYM returns: Found 12 space group operations
 (whereof 12 operations are pure point group operations),
 and found     9 'primitive' translations


----------------------------------------------------------------------------------------

                                     Primitive cell                                     

  volume of cell :     180.2673

  direct lattice vectors                    reciprocal lattice vectors
     3.606892539  0.000000000  0.000000000     0.277246962  0.160068608  0.000000000
    -1.803446269  3.123660567  0.000000000     0.000000000  0.320137217  0.000000000
     0.000000000  0.000000000 16.000000000     0.000000000  0.000000000  0.062500000

  length of vectors
     3.606892539  3.606892539 16.000000000     0.320137217  0.320137217  0.062500000

  position of ions in fractional coordinates (direct lattice)
     0.666666667  0.333333333  0.456343136
     0.333333333  0.666666667  0.543656864

  ion indices of the primitive-cell ions
   primitive index   ion index
                 1           1
                 2          10

----------------------------------------------------------------------------------------

 
 
 KPOINTS: Fully automatic mesh                    

Automatic generation of k-mesh.
 Grid dimensions derived from RKLEN:
 generate k-points for:    4    4    3

 Generating k-lattice:

  Cartesian coordinates                     Fractional coordinates (reciprocal lattice)
     0.023103914  0.013339051  0.000000000     0.250000000  0.000000000  0.000000000
     0.000000000  0.026678101  0.000000000     0.000000000  0.250000000  0.000000000
     0.000000000  0.000000000  0.020833333     0.000000000  0.000000000  0.333333333

  Length of vectors
     0.026678101  0.026678101  0.020833333

  Shift w.r.t. Gamma in fractional coordinates (k-lattice)
     0.000000000  0.000000000  0.000000000

 
 Subroutine IBZKPT returns following result:
 ===========================================
 
 Found      9 irreducible k-points:
 
 Following reciprocal coordinates:
            Coordinates               Weight
  0.000000  0.000000  0.000000      1.000000
  0.250000 -0.000000  0.000000      6.000000
  0.500000 -0.000000  0.000000      3.000000
  0.250000  0.250000  0.000000      6.000000
  0.000000  0.000000  0.333333      2.000000
  0.250000 -0.000000  0.333333      6.000000
  0.000000  0.250000  0.333333      6.000000
  0.500000 -0.000000  0.333333      6.000000
  0.250000  0.250000  0.333333     12.000000
 
 Following cartesian coordinates:
            Coordinates               Weight
  0.000000  0.000000  0.000000      1.000000
  0.023104  0.013339  0.000000      6.000000
  0.046208  0.026678  0.000000      3.000000
  0.023104  0.040017  0.000000      6.000000
  0.000000  0.000000  0.020833      2.000000
  0.023104  0.013339  0.020833      6.000000
  0.000000  0.026678  0.020833      6.000000
  0.046208  0.026678  0.020833      6.000000
  0.023104  0.040017  0.020833     12.000000
 
 
 Subroutine IBZKPT_HF returns following result:
 ==============================================
 
 Found     48 k-points in 1st BZ
 the following     48 k-points will be used (e.g. in the exchange kernel)
 Following reciprocal coordinates:   # in IRBZ
  0.000000  0.000000  0.000000    0.02083333   1 t-inv F
  0.250000 -0.000000  0.000000    0.02083333   2 t-inv F
  0.500000 -0.000000  0.000000    0.02083333   3 t-inv F
  0.250000  0.250000  0.000000    0.02083333   4 t-inv F
  0.000000  0.000000  0.333333    0.02083333   5 t-inv F
  0.250000 -0.000000  0.333333    0.02083333   6 t-inv F
  0.000000  0.250000  0.333333    0.02083333   7 t-inv F
  0.500000 -0.000000  0.333333    0.02083333   8 t-inv F
  0.250000  0.250000  0.333333    0.02083333   9 t-inv F
 -0.250000  0.000000  0.000000    0.02083333   2 t-inv F
 -0.250000  0.250000  0.000000    0.02083333   2 t-inv F
  0.250000 -0.250000  0.000000    0.02083333   2 t-inv F
 -0.000000 -0.250000  0.000000    0.02083333   2 t-inv F
  0.000000  0.250000  0.000000    0.02083333   2 t-inv F
 -0.500000  0.500000  0.000000    0.02083333   3 t-inv F
 -0.000000 -0.500000  0.000000    0.02083333   3 t-inv F
 -0.250000 -0.250000  0.000000    0.02083333   4 t-inv F
 -0.500000  0.250000  0.000000    0.02083333   4 t-inv F
  0.500000 -0.250000  0.000000    0.02083333   4 t-inv F
  0.250000 -0.500000  0.000000    0.02083333   4 t-inv F
 -0.250000  0.500000  0.000000    0.02083333   4 t-inv F
  0.000000  0.000000 -0.333333    0.02083333   5 t-inv F
 -0.250000  0.000000 -0.333333    0.02083333   6 t-inv F
 -0.250000  0.250000  0.333333    0.02083333   6 t-inv F
  0.250000 -0.250000 -0.333333    0.02083333   6 t-inv F
 -0.000000 -0.250000  0.333333    0.02083333   6 t-inv F
  0.000000  0.250000 -0.333333    0.02083333   6 t-inv F
  0.000000 -0.250000 -0.333333    0.02083333   7 t-inv F
 -0.250000  0.000000  0.333333    0.02083333   7 t-inv F
  0.250000  0.000000 -0.333333    0.02083333   7 t-inv F
  0.250000 -0.250000  0.333333    0.02083333   7 t-inv F
 -0.250000  0.250000 -0.333333    0.02083333   7 t-inv F
 -0.500000  0.000000 -0.333333    0.02083333   8 t-inv F
 -0.500000  0.500000  0.333333    0.02083333   8 t-inv F
  0.500000 -0.500000 -0.333333    0.02083333   8 t-inv F
 -0.000000 -0.500000  0.333333    0.02083333   8 t-inv F
  0.000000  0.500000 -0.333333    0.02083333   8 t-inv F
 -0.250000 -0.250000 -0.333333    0.02083333   9 t-inv F
 -0.500000  0.250000  0.333333    0.02083333   9 t-inv F
  0.500000 -0.250000 -0.333333    0.02083333   9 t-inv F
  0.250000 -0.500000  0.333333    0.02083333   9 t-inv F
 -0.250000  0.500000 -0.333333    0.02083333   9 t-inv F
  0.250000 -0.500000 -0.333333    0.02083333   9 t-inv F
 -0.250000  0.500000  0.333333    0.02083333   9 t-inv F
 -0.500000  0.250000 -0.333333    0.02083333   9 t-inv F
  0.500000 -0.250000  0.333333    0.02083333   9 t-inv F
  0.250000  0.250000 -0.333333    0.02083333   9 t-inv F
 -0.250000 -0.250000  0.333333    0.02083333   9 t-inv F


--------------------------------------------------------------------------------------------------------




 Dimension of arrays:
   k-points           NKPTS =      9   k-points in BZ     NKDIM =      9   number of bands    NBANDS=     64
   number of dos      NEDOS =   6001   number of ions     NIONS =     18
   non local maximal  LDIM  =      5   non local SUM 2l+1 LMDIM =     13
   total plane-waves  NPLWV = 233280
   max r-space proj   IRMAX =      1   max aug-charges    IRDMAX=  47793
   dimension x,y,z NGX =    54 NGY =   54 NGZ =   80
   dimension x,y,z NGXF=   108 NGYF=  108 NGZF=  160
   support grid    NGXF=   216 NGYF=  216 NGZF=  320
   ions per type =              18
   NGX,Y,Z   is equivalent  to a cutoff of   8.30,  8.30,  8.31 a.u.
   NGXF,Y,Z  is equivalent  to a cutoff of  16.59, 16.59, 16.62 a.u.

 SYSTEM =  unknown system                          
 POSCAR =  generated by phonopy                    

 Startparameter for this run:
   NWRITE =      1    write-flag & timer
   PREC   = accura    normal or accurate (medium, high low for compatibility)
   ISTART =      0    job   : 0-new  1-cont  2-samecut
   ICHARG =      2    charge: 1-file 2-atom 10-const
   ISPIN  =      1    spin polarized calculation?
   LNONCOLLINEAR =      F non collinear calculations
   LSORBIT =      F    spin-orbit coupling
   INIWAV =      1    electr: 0-lowe 1-rand  2-diag
   LASPH  =      T    aspherical Exc in radial PAW
 Electronic Relaxation 1
   ENCUT  =  234.8 eV  17.26 Ry    4.15 a.u.  13.52 13.52 19.99*2*pi/ulx,y,z
   ENINI  =  234.8     initial cutoff
   ENAUG  =  462.8 eV  augmentation charge cutoff
   NELM   =    200;   NELMIN=  6; NELMDL=-12     # of ELM steps 
   EDIFF  = 0.1E-06   stopping-criterion for ELM
   LREAL  =      F    real-space projection
   NLSPLINE    = F    spline interpolate recip. space projectors
   LCOMPAT=      F    compatible to vasp.4.4
   GGA_COMPAT  = T    GGA compatible to vasp.4.4-vasp.4.6
   LMAXPAW     = -100 max onsite density
   LMAXMIX     =    2 max onsite mixed and CHGCAR
   VOSKOWN=      0    Vosko Wilk Nusair interpolation
   ROPT   =    0.00000
 Ionic relaxation
   EDIFFG = -.1E-01   stopping-criterion for IOM
   NSW    =      1    number of steps for IOM
   NBLOCK =      1;   KBLOCK =      1    inner block; outer block 
   IBRION =      8    ionic relax: 0-MD 1-quasi-New 2-CG
   NFREE  =      0    steps in history (QN), initial steepest desc. (CG)
   ISIF   =      2    stress and relaxation
   IWAVPR =     11    prediction:  0-non 1-charg 2-wave 3-comb
   ISYM   =      2    0-nonsym 1-usesym 2-fastsym
   LCORR  =      T    Harris-Foulkes like correction to forces

   POTIM  = 0.5000    time-step for ionic-motion
   TEIN   =    0.0    initial temperature
   TEBEG  =    0.0;   TEEND  =   0.0 temperature during run
   SMASS  =  -3.00    Nose mass-parameter (am)
   estimated Nose-frequenzy (Omega)   =  0.10E-29 period in steps = 0.13E+47 mass=  -0.268E-26a.u.
   SCALEE = 1.0000    scale energy and forces
   NPACO  =    256;   APACO  = 10.0  distance and # of slots for P.C.
   PSTRESS=    0.0 pullay stress

  Mass of Ions in am
   POMASS =  74.92
  Ionic Valenz
   ZVAL   =   5.00
  Atomic Wigner-Seitz radii
   RWIGS  =  -1.00
  virtual crystal weights 
   VCA    =   1.00
   NELECT =      90.0000    total number of electrons
   NUPDOWN=      -1.0000    fix difference up-down

 DOS related values:
   EMIN   =  10.00;   EMAX   =-10.00  energy-range for DOS
   EFERMI =   0.00;   METHOD = LEGACY      
   ISMEAR =     0;   SIGMA  =   0.01  broadening in eV -4-tet -1-fermi 0-gaus

 Electronic relaxation 2 (details)
   IALGO  =     38    algorithm
   LDIAG  =      T    sub-space diagonalisation (order eigenvalues)
   LSUBROT=      F    optimize rotation matrix (better conditioning)
   TURBO    =      0    0=normal 1=particle mesh
   IRESTART =      0    0=no restart 2=restart with 2 vectors
   NREBOOT  =      0    no. of reboots
   NMIN     =      0    reboot dimension
   EREF     =   0.00    reference energy to select bands
   IMIX   =      4    mixing-type and parameters
     AMIX     =   0.10;   BMIX     =  0.00
     AMIX_MAG =   0.40;   BMIX_MAG =  0.00
     AMIN     =   0.10
     WC   =   100.;   INIMIX=   1;  MIXPRE=   1;  MAXMIX= -45

 Intra band minimization:
   WEIMIN = 0.0010     energy-eigenvalue tresh-hold
   EBREAK =  0.39E-09  absolut break condition
   DEPER  =   0.30     relativ break condition  

   TIME   =   0.40     timestep for ELM

  volume/ion in A,a.u.               =      90.13       608.25
  Fermi-wavevector in a.u.,A,eV,Ry     =   0.624361  1.179871  5.303915  0.389827
  Thomas-Fermi vector in A             =   1.684891
 
 Write flags
   LWAVE        =      F    write WAVECAR
   LDOWNSAMPLE  =      F    k-point downsampling of WAVECAR
   LCHARG       =      F    write CHGCAR
   LVTOT        =      F    write LOCPOT, total local potential
   LVHAR        =      F    write LOCPOT, Hartree potential only
   LELF         =      F    write electronic localiz. function (ELF)
   LORBIT       =     10    0 simple, 1 ext, 2 COOP (PROOUT), +10 PAW based schemes


 Dipole corrections
   LMONO  =      F    monopole corrections only (constant potential shift)
   LDIPOL =      F    correct potential (dipole corrections)
   IDIPOL =      0    1-x, 2-y, 3-z, 4-all directions 
   EPSILON=  1.0000000 bulk dielectric constant

 Exchange correlation treatment:
   GGA     =    --    GGA type
   LEXCH   =     8    internal setting for exchange type
   LIBXC   =     F    Libxc                    
   VOSKOWN =     0    Vosko Wilk Nusair interpolation
   LHFCALC =     F    Hartree Fock is set to
   LHFONE  =     F    Hartree Fock one center treatment
   AEXX    =    0.0000 exact exchange contribution

 Linear response parameters
   LEPSILON=     F    determine dielectric tensor
   LRPA    =     F    only Hartree local field effects (RPA)
   LNABLA  =     F    use nabla operator in PAW spheres
   LVEL    =     F    velocity operator in full k-point grid
   CSHIFT  =0.1000    complex shift for real part using Kramers Kronig
   OMEGAMAX=  -1.0    maximum frequency
   DEG_THRESHOLD= 0.2000000E-02 threshold for treating states as degnerate
   RTIME   =   -0.100 relaxation time in fs
  (WPLASMAI=    0.000 imaginary part of plasma frequency in eV, 0.658/RTIME)
   DFIELD  = 0.0000000 0.0000000 0.0000000 field for delta impulse in time
 
  Optional k-point grid parameters
   LKPOINTS_OPT  =     F    use optional k-point grid
   KPOINTS_OPT_MODE=     1    mode for optional k-point grid
 
 Orbital magnetization related:
   ORBITALMAG=     F  switch on orbital magnetization
   LCHIMAG   =     F  perturbation theory with respect to B field
   DQ        =  0.001000  dq finite difference perturbation B field
   LLRAUG    =     F  two centre corrections for induced B field
   LBONE     =     F  B-component reconstruction in AE one-centre
   LVGVCALC  =     T  calculate vGv susceptibility
   LVGVAPPL  =     F  apply vGv susceptibility instead of pGv for G=0

 Random number generation:
   RANDOM_GENERATOR = DEFAULT
   PCG_SEED         = not used


--------------------------------------------------------------------------------------------------------


 linear response using symmetry
 charge density and potential will be updated during run
 non-spin polarized calculation
 Variant of blocked Davidson
 Davidson routine will perform the subspace rotation
 perform sub-space diagonalisation
    after iterative eigenvector-optimisation
 modified Broyden-mixing scheme, WC =      100.0
 initial mixing is a Kerker type mixing with AMIX =  0.1000 and BMIX =      0.0001
 Hartree-type preconditioning will be used
 using additional bands           19
 reciprocal scheme for non local part
 use partial core corrections
 calculate Harris-corrections to forces 
   (improved forces if not selfconsistent)
 use gradient corrections 
 use of overlap-Matrix (Vanderbilt PP)
 Gauss-broadening in eV      SIGMA  =   0.01


--------------------------------------------------------------------------------------------------------


  energy-cutoff  :      234.79
  volume of cell :     1622.41
      direct lattice vectors                 reciprocal lattice vectors
    10.820677617  0.000000000  0.000000000     0.092415654  0.053356203  0.000000000
    -5.410338808  9.370981702  0.000000000     0.000000000  0.106712406  0.000000000
     0.000000000  0.000000000 16.000000000     0.000000000  0.000000000  0.062500000

  length of vectors
    10.820677617 10.820677617 16.000000000     0.106712406  0.106712406  0.062500000


 
 k-points in units of 2pi/SCALE and weight: Fully automatic mesh                    
   0.00000000  0.00000000  0.00000000       0.021
   0.02310391  0.01333905  0.00000000       0.125
   0.04620783  0.02667810  0.00000000       0.062
   0.02310391  0.04001715  0.00000000       0.125
   0.00000000  0.00000000  0.02083333       0.042
   0.02310391  0.01333905  0.02083333       0.125
   0.00000000  0.02667810  0.02083333       0.125
   0.04620783  0.02667810  0.02083333       0.125
   0.02310391  0.04001715  0.02083333       0.250
 
 k-points in reciprocal lattice and weights: Fully automatic mesh                    
   0.00000000  0.00000000  0.00000000       0.021
   0.25000000 -0.00000000  0.00000000       0.125
   0.50000000 -0.00000000  0.00000000       0.062
   0.25000000  0.25000000  0.00000000       0.125
   0.00000000  0.00000000  0.33333333       0.042
   0.25000000 -0.00000000  0.33333333       0.125
   0.00000000  0.25000000  0.33333333       0.125
   0.50000000 -0.00000000  0.33333333       0.125
   0.25000000  0.25000000  0.33333333       0.250
 
 position of ions in fractional coordinates (direct lattice) 
   0.22222222  0.11111111  0.45634314
   0.55555556  0.11111111  0.45634314
   0.88888889  0.11111111  0.45634314
   0.22222222  0.44444444  0.45634314
   0.55555556  0.44444444  0.45634314
   0.88888889  0.44444444  0.45634314
   0.22222222  0.77777778  0.45634314
   0.55555556  0.77777778  0.45634314
   0.88888889  0.77777778  0.45634314
   0.11111111  0.22222222  0.54365686
   0.44444444  0.22222222  0.54365686
   0.77777778  0.22222222  0.54365686
   0.11111111  0.55555556  0.54365686
   0.44444444  0.55555556  0.54365686
   0.77777778  0.55555556  0.54365686
   0.11111111  0.88888889  0.54365686
   0.44444444  0.88888889  0.54365686
   0.77777778  0.88888889  0.54365686
 
 position of ions in cartesian coordinates  (Angst):
   1.80344627  1.04122019  7.30149017
   5.41033881  1.04122019  7.30149017
   9.01723135  1.04122019  7.30149017
   0.00000000  4.16488076  7.30149017
   3.60689254  4.16488076  7.30149017
   7.21378508  4.16488076  7.30149017
  -1.80344627  7.28854132  7.30149017
   1.80344627  7.28854132  7.30149017
   5.41033881  7.28854132  7.30149017
   0.00000000  2.08244038  8.69850983
   3.60689254  2.08244038  8.69850983
   7.21378508  2.08244038  8.69850983
  -1.80344627  5.20610095  8.69850983
   1.80344627  5.20610095  8.69850983
   5.41033881  5.20610095  8.69850983
  -3.60689254  8.32976151  8.69850983
   0.00000000  8.32976151  8.69850983
   3.60689254  8.32976151  8.69850983
 


--------------------------------------------------------------------------------------------------------


 k-point   1 :   0.0000 0.0000 0.0000  plane waves:   13293
 k-point   2 :   0.2500-0.0000 0.0000  plane waves:   13247
 k-point   3 :   0.5000-0.0000 0.0000  plane waves:   13254
 k-point   4 :   0.2500 0.2500 0.0000  plane waves:   13226
 k-point   5 :   0.0000 0.0000 0.3333  plane waves:   13318
 k-point   6 :   0.2500-0.0000 0.3333  plane waves:   13263
 k-point   7 :   0.0000 0.2500 0.3333  plane waves:   13263
 k-point   8 :   0.5000-0.0000 0.3333  plane waves:   13214
 k-point   9 :   0.2500 0.2500 0.3333  plane waves:   13249

 maximum and minimum number of plane-waves per node :     13318    13214

 maximum number of plane-waves:     13318
 maximum index in each direction: 
   IXMAX=   13   IYMAX=   13   IZMAX=   19
   IXMIN=  -14   IYMIN=  -13   IZMIN=  -20


 serial   3D FFT for wavefunctions
 parallel 3D FFT for charge:
    minimum data exchange during FFTs selected (reduces bandwidth)


 total amount of memory used by VASP MPI-rank0    88033. kBytes
=======================================================================

   base      :      30000. kBytes
   nonl-proj :      16313. kBytes
   fftplans  :      18527. kBytes
   grid      :      15232. kBytes
   one-center:        146. kBytes
   wavefun   :       7815. kBytes
 
     INWAV:  cpu time      0.0000: real time      0.0000
 Broyden mixing: mesh for mixing (old mesh)
   NGX = 27   NGY = 27   NGZ = 39
  (NGX  =108   NGY  =108   NGZ  =160)
  gives a total of  28431 points

 initial charge density was supplied:
 charge density of overlapping atoms calculated
 number of electron      90.0000000 magnetization 
 keeping initial charge density in first step


--------------------------------------------------------------------------------------------------------


 Maximum index for augmentation-charges         3084 (set IRDMAX)


--------------------------------------------------------------------------------------------------------


 First call to EWALD:  gamma=   0.151
 Maximum number of real-space cells 3x 3x 2
 Maximum number of reciprocal cells 3x 3x 4

    FEWALD:  cpu time      0.0012: real time      0.0012


--------------------------------------- Ionic step        1  -------------------------------------------




--------------------------------------- Iteration      1(   1)  ---------------------------------------


    POTLOK:  cpu time      0.1285: real time      0.2486
    SETDIJ:  cpu time      0.3831: real time      0.3836
     EDDAV:  cpu time      5.1143: real time      5.1254
       DOS:  cpu time      0.0024: real time      0.0024
    --------------------------------------------
      LOOP:  cpu time      5.6283: real time      5.7600

 eigenvalue-minimisations  :  1200
 total energy-change (2. order) : 0.4363298E+03  (-0.1866773E+04)
 number of electron      90.0000000 magnetization 
 augmentation part       90.0000000 magnetization 

 Free energy of the ion-electron system (eV)
  ---------------------------------------------------
  alpha Z        PSCENC =        47.37454345
  Ewald energy   TEWEN  =      3403.98268447
  -Hartree energ DENC   =     -5978.51794978
  -exchange      EXHF   =         0.00000000
  -V(xc)+E(xc)   XCENC  =      -215.49728813
  PAW double counting   =      2647.15941270    -2261.29534172
  entropy T*S    EENTRO =        -0.00054842
  eigenvalues    EBANDS =      -270.15116418
  atomic energy  EATOM  =      3063.27542168
  Solvation  Ediel_sol  =         0.00000000
  ---------------------------------------------------
  free energy    TOTEN  =       436.32977007 eV

  energy without entropy =      436.33031849  energy(sigma->0) =      436.33004428


--------------------------------------------------------------------------------------------------------




--------------------------------------- Iteration      1(   2)  ---------------------------------------


     EDDAV:  cpu time      6.7553: real time      6.7729
       DOS:  cpu time      0.0008: real time      0.0008
    --------------------------------------------
      LOOP:  cpu time      6.7561: real time      6.7736

 eigenvalue-minimisations  :  1680
 total energy-change (2. order) :-0.4554687E+03  (-0.4429458E+03)
 number of electron      90.0000000 magnetization 
 augmentation part       90.0000000 magnetization 

 Free energy of the ion-electron system (eV)
  ---------------------------------------------------
  alpha Z        PSCENC =        47.37454345
  Ewald energy   TEWEN  =      3403.98268447
  -Hartree energ DENC   =     -5978.51794978
  -exchange      EXHF   =         0.00000000
  -V(xc)+E(xc)   XCENC  =      -215.49728813
  PAW double counting   =      2647.15941270    -2261.29534172
  entropy T*S    EENTRO =        -0.00000000
  eigenvalues    EBANDS =      -725.62041323
  atomic energy  EATOM  =      3063.27542168
  Solvation  Ediel_sol  =         0.00000000
  ---------------------------------------------------
  free energy    TOTEN  =       -19.13893055 eV

  energy without entropy =      -19.13893055  energy(sigma->0) =      -19.13893055


--------------------------------------------------------------------------------------------------------




--------------------------------------- Iteration      1(   3)  ---------------------------------------


     EDDAV:  cpu time      6.0060: real time      6.0203
       DOS:  cpu time      0.0005: real time      0.0005
    --------------------------------------------
      LOOP:  cpu time      6.0065: real time      6.0207

 eigenvalue-minimisations  :  1472
 total energy-change (2. order) :-0.6096955E+02  (-0.6054174E+02)
 number of electron      90.0000000 magnetization 
 augmentation part       90.0000000 magnetization 

 Free energy of the ion-electron system (eV)
  ---------------------------------------------------
  alpha Z        PSCENC =        47.37454345
  Ewald energy   TEWEN  =      3403.98268447
  -Hartree energ DENC   =     -5978.51794978
  -exchange      EXHF   =         0.00000000
  -V(xc)+E(xc)   XCENC  =      -215.49728813
  PAW double counting   =      2647.15941270    -2261.29534172
  entropy T*S    EENTRO =        -0.00000000
  eigenvalues    EBANDS =      -786.58996662
  atomic energy  EATOM  =      3063.27542168
  Solvation  Ediel_sol  =         0.00000000
  ---------------------------------------------------
  free energy    TOTEN  =       -80.10848395 eV

  energy without entropy =      -80.10848395  energy(sigma->0) =      -80.10848395


--------------------------------------------------------------------------------------------------------




--------------------------------------- Iteration      1(   4)  ---------------------------------------


     EDDAV:  cpu time      7.4801: real time      7.4978
       DOS:  cpu time      0.0027: real time      0.0027
    --------------------------------------------
      LOOP:  cpu time      7.4828: real time      7.5005

 eigenvalue-minimisations  :  1968
 total energy-change (2. order) :-0.4481124E+01  (-0.4477246E+01)
 number of electron      90.0000000 magnetization 
 augmentation part       90.0000000 magnetization 

 Free energy of the ion-electron system (eV)
  ---------------------------------------------------
  alpha Z        PSCENC =        47.37454345
  Ewald energy   TEWEN  =      3403.98268447
  -Hartree energ DENC   =     -5978.51794978
  -exchange      EXHF   =         0.00000000
  -V(xc)+E(xc)   XCENC  =      -215.49728813
  PAW double counting   =      2647.15941270    -2261.29534172
  entropy T*S    EENTRO =        -0.00000000
  eigenvalues    EBANDS =      -791.07109041
  atomic energy  EATOM  =      3063.27542168
  Solvation  Ediel_sol  =         0.00000000
  ---------------------------------------------------
  free energy    TOTEN  =       -84.58960774 eV

  energy without entropy =      -84.58960774  energy(sigma->0) =      -84.58960774


--------------------------------------------------------------------------------------------------------




--------------------------------------- Iteration      1(   5)  ---------------------------------------


     EDDAV:  cpu time      6.7900: real time      6.8063
       DOS:  cpu time      0.0005: real time      0.0005
    --------------------------------------------
      LOOP:  cpu time      6.7905: real time      6.8068

 eigenvalue-minimisations  :  1712
 total energy-change (2. order) :-0.2913675E-01  (-0.2912380E-01)
 number of electron      90.0000000 magnetization 
 augmentation part       90.0000000 magnetization 

 Free energy of the ion-electron system (eV)
  ---------------------------------------------------
  alpha Z        PSCENC =        47.37454345
  Ewald energy   TEWEN  =      3403.98268447
  -Hartree energ DENC   =     -5978.51794978
  -exchange      EXHF   =         0.00000000
  -V(xc)+E(xc)   XCENC  =      -215.49728813
  PAW double counting   =      2647.15941270    -2261.29534172
  entropy T*S    EENTRO =        -0.00000000
  eigenvalues    EBANDS =      -791.10022717
  atomic energy  EATOM  =      3063.27542168
  Solvation  Ediel_sol  =         0.00000000
  ---------------------------------------------------
  free energy    TOTEN  =       -84.61874450 eV

  energy without entropy =      -84.61874450  energy(sigma->0) =      -84.61874450


--------------------------------------------------------------------------------------------------------




--------------------------------------- Iteration      1(   6)  ---------------------------------------


     EDDAV:  cpu time      7.2161: real time      7.2329
       DOS:  cpu time      0.0008: real time      0.0008
    --------------------------------------------
      LOOP:  cpu time      7.2169: real time      7.2337

 eigenvalue-minimisations  :  1888
 total energy-change (2. order) :-0.9599112E-03  (-0.9598521E-03)
 number of electron      90.0000000 magnetization 
 augmentation part       90.0000000 magnetization 

 Free energy of the ion-electron system (eV)
  ---------------------------------------------------
  alpha Z        PSCENC =        47.37454345
  Ewald energy   TEWEN  =      3403.98268447
  -Hartree energ DENC   =     -5978.51794978
  -exchange      EXHF   =         0.00000000
  -V(xc)+E(xc)   XCENC  =      -215.49728813
  PAW double counting   =      2647.15941270    -2261.29534172
  entropy T*S    EENTRO =        -0.00000000
  eigenvalues    EBANDS =      -791.10118708
  atomic energy  EATOM  =      3063.27542168
  Solvation  Ediel_sol  =         0.00000000
  ---------------------------------------------------
  free energy    TOTEN  =       -84.61970441 eV

  energy without entropy =      -84.61970441  energy(sigma->0) =      -84.61970441


--------------------------------------------------------------------------------------------------------




--------------------------------------- Iteration      1(   7)  ---------------------------------------


     EDDAV:  cpu time      7.0283: real time      7.0453
       DOS:  cpu time      0.0007: real time      0.0007
    --------------------------------------------
      LOOP:  cpu time      7.0289: real time      7.0460

 eigenvalue-minimisations  :  1792
 total energy-change (2. order) :-0.2393181E-04  (-0.2393033E-04)
 number of electron      90.0000000 magnetization 
 augmentation part       90.0000000 magnetization 

 Free energy of the ion-electron system (eV)
  ---------------------------------------------------
  alpha Z        PSCENC =        47.37454345
  Ewald energy   TEWEN  =      3403.98268447
  -Hartree energ DENC   =     -5978.51794978
  -exchange      EXHF   =         0.00000000
  -V(xc)+E(xc)   XCENC  =      -215.49728813
  PAW double counting   =      2647.15941270    -2261.29534172
  entropy T*S    EENTRO =        -0.00000000
  eigenvalues    EBANDS =      -791.10121101
  atomic energy  EATOM  =      3063.27542168
  Solvation  Ediel_sol  =         0.00000000
  ---------------------------------------------------
  free energy    TOTEN  =       -84.61972834 eV

  energy without entropy =      -84.61972834  energy(sigma->0) =      -84.61972834


--------------------------------------------------------------------------------------------------------




--------------------------------------- Iteration      1(   8)  ---------------------------------------


     EDDAV:  cpu time      6.7951: real time      6.8108
       DOS:  cpu time      0.0006: real time      0.0007
    --------------------------------------------
      LOOP:  cpu time      6.7958: real time      6.8114

 eigenvalue-minimisations  :  1744
 total energy-change (2. order) :-0.1199766E-05  (-0.1199367E-05)
 number of electron      90.0000000 magnetization 
 augmentation part       90.0000000 magnetization 

 Free energy of the ion-electron system (eV)
  ---------------------------------------------------
  alpha Z        PSCENC =        47.37454345
  Ewald energy   TEWEN  =      3403.98268447
  -Hartree energ DENC   =     -5978.51794978
  -exchange      EXHF   =         0.00000000
  -V(xc)+E(xc)   XCENC  =      -215.49728813
  PAW double counting   =      2647.15941270    -2261.29534172
  entropy T*S    EENTRO =        -0.00000000
  eigenvalues    EBANDS =      -791.10121221
  atomic energy  EATOM  =      3063.27542168
  Solvation  Ediel_sol  =         0.00000000
  ---------------------------------------------------
  free energy    TOTEN  =       -84.61972954 eV

  energy without entropy =      -84.61972954  energy(sigma->0) =      -84.61972954


--------------------------------------------------------------------------------------------------------




--------------------------------------- Iteration      1(   9)  ---------------------------------------


     EDDAV:  cpu time      6.6374: real time      6.6523
       DOS:  cpu time      0.0007: real time      0.0007
    --------------------------------------------
      LOOP:  cpu time      6.6381: real time      6.6530

 eigenvalue-minimisations  :  1664
 total energy-change (2. order) :-0.6872779E-07  (-0.6855477E-07)
 number of electron      90.0000000 magnetization 
 augmentation part       90.0000000 magnetization 

 Free energy of the ion-electron system (eV)
  ---------------------------------------------------
  alpha Z        PSCENC =        47.37454345
  Ewald energy   TEWEN  =      3403.98268447
  -Hartree energ DENC   =     -5978.51794978
  -exchange      EXHF   =         0.00000000
  -V(xc)+E(xc)   XCENC  =      -215.49728813
  PAW double counting   =      2647.15941270    -2261.29534172
  entropy T*S    EENTRO =        -0.00000000
  eigenvalues    EBANDS =      -791.10121228
  atomic energy  EATOM  =      3063.27542168
  Solvation  Ediel_sol  =         0.00000000
  ---------------------------------------------------
  free energy    TOTEN  =       -84.61972961 eV

  energy without entropy =      -84.61972961  energy(sigma->0) =      -84.61972961


--------------------------------------------------------------------------------------------------------




--------------------------------------- Iteration      1(  10)  ---------------------------------------


     EDDAV:  cpu time      5.2464: real time      5.2588
       DOS:  cpu time      0.0034: real time      0.0034
    --------------------------------------------
      LOOP:  cpu time      5.2498: real time      5.2622

 eigenvalue-minimisations  :  1216
 total energy-change (2. order) :-0.4458343E-08  (-0.4534041E-08)
 number of electron      90.0000000 magnetization 
 augmentation part       90.0000000 magnetization 

 Free energy of the ion-electron system (eV)
  ---------------------------------------------------
  alpha Z        PSCENC =        47.37454345
  Ewald energy   TEWEN  =      3403.98268447
  -Hartree energ DENC   =     -5978.51794978
  -exchange      EXHF   =         0.00000000
  -V(xc)+E(xc)   XCENC  =      -215.49728813
  PAW double counting   =      2647.15941270    -2261.29534172
  entropy T*S    EENTRO =        -0.00000000
  eigenvalues    EBANDS =      -791.10121228
  atomic energy  EATOM  =      3063.27542168
  Solvation  Ediel_sol  =         0.00000000
  ---------------------------------------------------
  free energy    TOTEN  =       -84.61972961 eV

  energy without entropy =      -84.61972961  energy(sigma->0) =      -84.61972961


--------------------------------------------------------------------------------------------------------




--------------------------------------- Iteration      1(  11)  ---------------------------------------


     EDDAV:  cpu time      4.7121: real time      4.7227
       DOS:  cpu time      0.0009: real time      0.0008
    --------------------------------------------
      LOOP:  cpu time      4.7129: real time      4.7236

 eigenvalue-minimisations  :  1040
 total energy-change (2. order) :-0.4197318E-09  (-0.1977578E-09)
 number of electron      90.0000000 magnetization 
 augmentation part       90.0000000 magnetization 

 Free energy of the ion-electron system (eV)
  ---------------------------------------------------
  alpha Z        PSCENC =        47.37454345
  Ewald energy   TEWEN  =      3403.98268447
  -Hartree energ DENC   =     -5978.51794978
  -exchange      EXHF   =         0.00000000
  -V(xc)+E(xc)   XCENC  =      -215.49728813
  PAW double counting   =      2647.15941270    -2261.29534172
  entropy T*S    EENTRO =        -0.00000000
  eigenvalues    EBANDS =      -791.10121228
  atomic energy  EATOM  =      3063.27542168
  Solvation  Ediel_sol  =         0.00000000
  ---------------------------------------------------
  free energy    TOTEN  =       -84.61972961 eV

  energy without entropy =      -84.61972961  energy(sigma->0) =      -84.61972961


--------------------------------------------------------------------------------------------------------




--------------------------------------- Iteration      1(  12)  ---------------------------------------


     EDDAV:  cpu time      4.4327: real time      4.4431
       DOS:  cpu time      0.0005: real time      0.0005
    CHARGE:  cpu time      0.5197: real time      0.5208
    MIXING:  cpu time      0.0211: real time      0.0211
    --------------------------------------------
      LOOP:  cpu time      4.9740: real time      4.9855

 eigenvalue-minimisations  :   944
 total energy-change (2. order) : 0.2878551E-09  (-0.6334283E-10)
 number of electron      89.9999994 magnetization 
 augmentation part      -14.7949250 magnetization 

 Broyden mixing:
  rms(total) = 0.57922E+00    rms(broyden)= 0.57886E+00
  rms(prec ) = 0.65089E+00
  weight for this iteration     100.00

 Free energy of the ion-electron system (eV)
  ---------------------------------------------------
  alpha Z        PSCENC =        47.37454345
  Ewald energy   TEWEN  =      3403.98268447
  -Hartree energ DENC   =     -5978.51794978
  -exchange      EXHF   =         0.00000000
  -V(xc)+E(xc)   XCENC  =      -215.49728813
  PAW double counting   =      2647.15941270    -2261.29534172
  entropy T*S    EENTRO =        -0.00000000
  eigenvalues    EBANDS =      -791.10121228
  atomic energy  EATOM  =      3063.27542168
  Solvation  Ediel_sol  =         0.00000000
  ---------------------------------------------------
  free energy    TOTEN  =       -84.61972961 eV

  energy without entropy =      -84.61972961  energy(sigma->0) =      -84.61972961


--------------------------------------------------------------------------------------------------------




--------------------------------------- Iteration      1(  13)  ---------------------------------------


    POTLOK:  cpu time      0.1288: real time      0.1291
    SETDIJ:  cpu time      0.3812: real time      0.3818
     EDDAV:  cpu time      5.9959: real time      6.0099
       DOS:  cpu time      0.0012: real time      0.0012
    CHARGE:  cpu time      0.5138: real time      0.5150
    MIXING:  cpu time      0.0173: real time      0.0173
    --------------------------------------------
      LOOP:  cpu time      7.0382: real time      7.0544

 eigenvalue-minimisations  :  1440
 total energy-change (2. order) : 0.1317333E+00  (-0.2484738E-02)
 number of electron      89.9999995 magnetization 
 augmentation part      -14.7676466 magnetization 

 Broyden mixing:
  rms(total) = 0.51624E+00    rms(broyden)= 0.51623E+00
  rms(prec ) = 0.57923E+00
  weight for this iteration     100.00

 eigenvalues of (default mixing * dielectric matrix)
  average eigenvalue GAMMA=   9.0691
  9.0691

 Free energy of the ion-electron system (eV)
  ---------------------------------------------------
  alpha Z        PSCENC =        47.37454345
  Ewald energy   TEWEN  =      3403.98268447
  -Hartree energ DENC   =     -5986.26566959
  -exchange      EXHF   =         0.00000000
  -V(xc)+E(xc)   XCENC  =      -215.06653025
  PAW double counting   =      2686.09809300    -2300.38092693
  entropy T*S    EENTRO =        -0.00000000
  eigenvalues    EBANDS =      -783.50561219
  atomic energy  EATOM  =      3063.27542168
  Solvation  Ediel_sol  =         0.00000000
  ---------------------------------------------------
  free energy    TOTEN  =       -84.48799635 eV

  energy without entropy =      -84.48799635  energy(sigma->0) =      -84.48799635


--------------------------------------------------------------------------------------------------------




--------------------------------------- Iteration      1(  14)  ---------------------------------------


    POTLOK:  cpu time      0.1297: real time      0.1300
    SETDIJ:  cpu time      0.3653: real time      0.3657
     EDDAV:  cpu time      5.5344: real time      5.5478
       DOS:  cpu time      0.0008: real time      0.0008
    CHARGE:  cpu time      0.5078: real time      0.5088
    MIXING:  cpu time      0.0142: real time      0.0142
    --------------------------------------------
      LOOP:  cpu time      6.5522: real time      6.5674

 eigenvalue-minimisations  :  1328
 total energy-change (2. order) : 0.3833441E+00  (-0.1465383E+00)
 number of electron      89.9999995 magnetization 
 augmentation part      -14.5658715 magnetization 

 Broyden mixing:
  rms(total) = 0.66560E-01    rms(broyden)= 0.66545E-01
  rms(prec ) = 0.85553E-01
  weight for this iteration     100.00

 eigenvalues of (default mixing * dielectric matrix)
  average eigenvalue GAMMA=   7.2828
  6.7670  7.7986

 Free energy of the ion-electron system (eV)
  ---------------------------------------------------
  alpha Z        PSCENC =        47.37454345
  Ewald energy   TEWEN  =      3403.98268447
  -Hartree energ DENC   =     -6045.87879679
  -exchange      EXHF   =         0.00000000
  -V(xc)+E(xc)   XCENC  =      -211.41012408
  PAW double counting   =      2999.96413075    -2615.46054682
  entropy T*S    EENTRO =        -0.00000000
  eigenvalues    EBANDS =      -725.95196490
  atomic energy  EATOM  =      3063.27542168
  Solvation  Ediel_sol  =         0.00000000
  ---------------------------------------------------
  free energy    TOTEN  =       -84.10465225 eV

  energy without entropy =      -84.10465225  energy(sigma->0) =      -84.10465225


--------------------------------------------------------------------------------------------------------




--------------------------------------- Iteration      1(  15)  ---------------------------------------


    POTLOK:  cpu time      0.1232: real time      0.1235
    SETDIJ:  cpu time      0.3588: real time      0.3594
     EDDAV:  cpu time      5.7230: real time      5.7659
       DOS:  cpu time      0.0005: real time      0.0005
    CHARGE:  cpu time      0.5372: real time      0.5385
    MIXING:  cpu time      0.0196: real time      0.0196
    --------------------------------------------
      LOOP:  cpu time      6.7624: real time      6.8074

 eigenvalue-minimisations  :  1360
 total energy-change (2. order) : 0.3241149E-01  (-0.1480602E-01)
 number of electron      89.9999995 magnetization 
 augmentation part      -14.6191246 magnetization 

 Broyden mixing:
  rms(total) = 0.34409E-01    rms(broyden)= 0.34406E-01
  rms(prec ) = 0.37683E-01
  weight for this iteration     100.00

 eigenvalues of (default mixing * dielectric matrix)
  average eigenvalue GAMMA=   5.6428
  1.0613  9.7213  6.1459

 Free energy of the ion-electron system (eV)
  ---------------------------------------------------
  alpha Z        PSCENC =        47.37454345
  Ewald energy   TEWEN  =      3403.98268447
  -Hartree energ DENC   =     -6030.23582557
  -exchange      EXHF   =         0.00000000
  -V(xc)+E(xc)   XCENC  =      -211.63002048
  PAW double counting   =      2978.71309614    -2594.12607054
  entropy T*S    EENTRO =        -0.00000000
  eigenvalues    EBANDS =      -741.42606992
  atomic energy  EATOM  =      3063.27542168
  Solvation  Ediel_sol  =         0.00000000
  ---------------------------------------------------
  free energy    TOTEN  =       -84.07224077 eV

  energy without entropy =      -84.07224077  energy(sigma->0) =      -84.07224077


--------------------------------------------------------------------------------------------------------




--------------------------------------- Iteration      1(  16)  ---------------------------------------


    POTLOK:  cpu time      0.1241: real time      0.1244
    SETDIJ:  cpu time      0.3858: real time      0.3863
     EDDAV:  cpu time      6.1957: real time      6.2100
       DOS:  cpu time      0.0009: real time      0.0009
    CHARGE:  cpu time      0.4976: real time      0.4987
    MIXING:  cpu time      0.0178: real time      0.0178
    --------------------------------------------
      LOOP:  cpu time      7.2219: real time      7.2382

 eigenvalue-minimisations  :  1552
 total energy-change (2. order) :-0.1738502E-02  (-0.1151950E-02)
 number of electron      89.9999995 magnetization 
 augmentation part      -14.6332561 magnetization 

 Broyden mixing:
  rms(total) = 0.15174E-01    rms(broyden)= 0.15170E-01
  rms(prec ) = 0.18496E-01
  weight for this iteration     100.00

 eigenvalues of (default mixing * dielectric matrix)
  average eigenvalue GAMMA=   4.7144
  9.0400  1.0042  5.4914  3.3217

 Free energy of the ion-electron system (eV)
  ---------------------------------------------------
  alpha Z        PSCENC =        47.37454345
  Ewald energy   TEWEN  =      3403.98268447
  -Hartree energ DENC   =     -6029.87694317
  -exchange      EXHF   =         0.00000000
  -V(xc)+E(xc)   XCENC  =      -211.45572477
  PAW double counting   =      2991.48024840    -2606.93607340
  entropy T*S    EENTRO =        -0.00000000
  eigenvalues    EBANDS =      -741.91813593
  atomic energy  EATOM  =      3063.27542168
  Solvation  Ediel_sol  =         0.00000000
  ---------------------------------------------------
  free energy    TOTEN  =       -84.07397927 eV

  energy without entropy =      -84.07397927  energy(sigma->0) =      -84.07397927


--------------------------------------------------------------------------------------------------------




--------------------------------------- Iteration      1(  17)  ---------------------------------------


    POTLOK:  cpu time      0.1259: real time      0.1262
    SETDIJ:  cpu time      0.3715: real time      0.3720
     EDDAV:  cpu time      5.8737: real time      5.8875
       DOS:  cpu time      0.0009: real time      0.0009
    CHARGE:  cpu time      0.5581: real time      0.5592
    MIXING:  cpu time      0.0187: real time      0.0187
    --------------------------------------------
      LOOP:  cpu time      6.9488: real time      6.9646

 eigenvalue-minimisations  :  1440
 total energy-change (2. order) : 0.1134586E-02  (-0.5177026E-03)
 number of electron      89.9999995 magnetization 
 augmentation part      -14.6254643 magnetization 

 Broyden mixing:
  rms(total) = 0.12810E-01    rms(broyden)= 0.12810E-01
  rms(prec ) = 0.14195E-01
  weight for this iteration     100.00

 eigenvalues of (default mixing * dielectric matrix)
  average eigenvalue GAMMA=   5.0031
 10.2318  7.8034  4.9258  1.0272  1.0272

 Free energy of the ion-electron system (eV)
  ---------------------------------------------------
  alpha Z        PSCENC =        47.37454345
  Ewald energy   TEWEN  =      3403.98268447
  -Hartree energ DENC   =     -6031.65284748
  -exchange      EXHF   =         0.00000000
  -V(xc)+E(xc)   XCENC  =      -211.47799594
  PAW double counting   =      2989.01628103    -2604.46375840
  entropy T*S    EENTRO =        -0.00000000
  eigenvalues    EBANDS =      -740.12717350
  atomic energy  EATOM  =      3063.27542168
  Solvation  Ediel_sol  =         0.00000000
  ---------------------------------------------------
  free energy    TOTEN  =       -84.07284468 eV

  energy without entropy =      -84.07284468  energy(sigma->0) =      -84.07284468


--------------------------------------------------------------------------------------------------------




--------------------------------------- Iteration      1(  18)  ---------------------------------------


    POTLOK:  cpu time      0.1166: real time      0.1169
    SETDIJ:  cpu time      0.3771: real time      0.3777
     EDDAV:  cpu time      6.0723: real time      6.0860
       DOS:  cpu time      0.0006: real time      0.0006
    CHARGE:  cpu time      0.4625: real time      0.4633
    MIXING:  cpu time      0.0205: real time      0.0205
    --------------------------------------------
      LOOP:  cpu time      7.0495: real time      7.0652

 eigenvalue-minimisations  :  1520
 total energy-change (2. order) :-0.1313604E-03  (-0.1586075E-03)
 number of electron      89.9999995 magnetization 
 augmentation part      -14.6354446 magnetization 

 Broyden mixing:
  rms(total) = 0.20659E-02    rms(broyden)= 0.20643E-02
  rms(prec ) = 0.23798E-02
  weight for this iteration     100.00

 eigenvalues of (default mixing * dielectric matrix)
  average eigenvalue GAMMA=   4.3200
 10.0452  7.2562  5.0602  0.9255  1.1832  1.4498

 Free energy of the ion-electron system (eV)
  ---------------------------------------------------
  alpha Z        PSCENC =        47.37454345
  Ewald energy   TEWEN  =      3403.98268447
  -Hartree energ DENC   =     -6030.64979283
  -exchange      EXHF   =         0.00000000
  -V(xc)+E(xc)   XCENC  =      -211.43542178
  PAW double counting   =      2990.45483110    -2605.90503132
  entropy T*S    EENTRO =        -0.00000000
  eigenvalues    EBANDS =      -741.17021081
  atomic energy  EATOM  =      3063.27542168
  Solvation  Ediel_sol  =         0.00000000
  ---------------------------------------------------
  free energy    TOTEN  =       -84.07297604 eV

  energy without entropy =      -84.07297604  energy(sigma->0) =      -84.07297604


--------------------------------------------------------------------------------------------------------




--------------------------------------- Iteration      1(  19)  ---------------------------------------


    POTLOK:  cpu time      0.1188: real time      0.1190
    SETDIJ:  cpu time      0.3669: real time      0.3675
     EDDAV:  cpu time      6.7992: real time      6.8155
       DOS:  cpu time      0.0013: real time      0.0013
    CHARGE:  cpu time      0.5085: real time      0.5097
    MIXING:  cpu time      0.0166: real time      0.0167
    --------------------------------------------
      LOOP:  cpu time      7.8112: real time      7.8297

 eigenvalue-minimisations  :  1728
 total energy-change (2. order) : 0.4654343E-05  (-0.1169009E-04)
 number of electron      89.9999995 magnetization 
 augmentation part      -14.6361613 magnetization 

 Broyden mixing:
  rms(total) = 0.18485E-02    rms(broyden)= 0.18483E-02
  rms(prec ) = 0.20004E-02
  weight for this iteration     100.00

 eigenvalues of (default mixing * dielectric matrix)
  average eigenvalue GAMMA=   4.4833
 10.2443  8.4171  5.1726  4.3468  1.0029  1.0029  1.1964

 Free energy of the ion-electron system (eV)
  ---------------------------------------------------
  alpha Z        PSCENC =        47.37454345
  Ewald energy   TEWEN  =      3403.98268447
  -Hartree energ DENC   =     -6030.82352860
  -exchange      EXHF   =         0.00000000
  -V(xc)+E(xc)   XCENC  =      -211.43289228
  PAW double counting   =      2990.97908740    -2606.43129607
  entropy T*S    EENTRO =        -0.00000000
  eigenvalues    EBANDS =      -740.99699144
  atomic energy  EATOM  =      3063.27542168
  Solvation  Ediel_sol  =         0.00000000
  ---------------------------------------------------
  free energy    TOTEN  =       -84.07297139 eV

  energy without entropy =      -84.07297139  energy(sigma->0) =      -84.07297139


--------------------------------------------------------------------------------------------------------




--------------------------------------- Iteration      1(  20)  ---------------------------------------


    POTLOK:  cpu time      0.1276: real time      0.1279
    SETDIJ:  cpu time      0.3767: real time      0.3773
     EDDAV:  cpu time      5.8499: real time      5.8638
       DOS:  cpu time      0.0006: real time      0.0006
    CHARGE:  cpu time      0.5176: real time      0.5187
    MIXING:  cpu time      0.0237: real time      0.0237
    --------------------------------------------
      LOOP:  cpu time      6.8961: real time      6.9119

 eigenvalue-minimisations  :  1440
 total energy-change (2. order) :-0.6728143E-05  (-0.1953409E-05)
 number of electron      89.9999995 magnetization 
 augmentation part      -14.6367001 magnetization 

 Broyden mixing:
  rms(total) = 0.88649E-03    rms(broyden)= 0.88636E-03
  rms(prec ) = 0.10703E-02
  weight for this iteration     100.00

 eigenvalues of (default mixing * dielectric matrix)
  average eigenvalue GAMMA=   4.4636
 10.4329  8.5541  7.5283  4.8842  0.9465  1.0711  1.0711  1.2208

 Free energy of the ion-electron system (eV)
  ---------------------------------------------------
  alpha Z        PSCENC =        47.37454345
  Ewald energy   TEWEN  =      3403.98268447
  -Hartree energ DENC   =     -6030.68035893
  -exchange      EXHF   =         0.00000000
  -V(xc)+E(xc)   XCENC  =      -211.43882759
  PAW double counting   =      2990.60303812    -2606.05293036
  entropy T*S    EENTRO =        -0.00000000
  eigenvalues    EBANDS =      -741.13654896
  atomic energy  EATOM  =      3063.27542168
  Solvation  Ediel_sol  =         0.00000000
  ---------------------------------------------------
  free energy    TOTEN  =       -84.07297812 eV

  energy without entropy =      -84.07297812  energy(sigma->0) =      -84.07297812


--------------------------------------------------------------------------------------------------------




--------------------------------------- Iteration      1(  21)  ---------------------------------------


    POTLOK:  cpu time      0.1194: real time      0.1197
    SETDIJ:  cpu time      0.3661: real time      0.3667
     EDDAV:  cpu time      6.0583: real time      6.0735
       DOS:  cpu time      0.0007: real time      0.0007
    CHARGE:  cpu time      0.5245: real time      0.5257
    MIXING:  cpu time      0.0189: real time      0.0189
    --------------------------------------------
      LOOP:  cpu time      7.0880: real time      7.1052

 eigenvalue-minimisations  :  1488
 total energy-change (2. order) : 0.1777098E-06  (-0.1220500E-05)
 number of electron      89.9999995 magnetization 
 augmentation part      -14.6363917 magnetization 

 Broyden mixing:
  rms(total) = 0.26387E-03    rms(broyden)= 0.26351E-03
  rms(prec ) = 0.29242E-03
  weight for this iteration     100.00

 eigenvalues of (default mixing * dielectric matrix)
  average eigenvalue GAMMA=   4.4921
 10.2149  9.5508  7.8709  4.8884  3.7618  0.9790  0.9790  1.0922  1.0922

 Free energy of the ion-electron system (eV)
  ---------------------------------------------------
  alpha Z        PSCENC =        47.37454345
  Ewald energy   TEWEN  =      3403.98268447
  -Hartree energ DENC   =     -6030.72843275
  -exchange      EXHF   =         0.00000000
  -V(xc)+E(xc)   XCENC  =      -211.43722954
  PAW double counting   =      2991.01049072    -2606.46140928
  entropy T*S    EENTRO =        -0.00000000
  eigenvalues    EBANDS =      -741.08904668
  atomic energy  EATOM  =      3063.27542168
  Solvation  Ediel_sol  =         0.00000000
  ---------------------------------------------------
  free energy    TOTEN  =       -84.07297794 eV

  energy without entropy =      -84.07297794  energy(sigma->0) =      -84.07297794


--------------------------------------------------------------------------------------------------------




--------------------------------------- Iteration      1(  22)  ---------------------------------------


    POTLOK:  cpu time      0.1200: real time      0.1202
    SETDIJ:  cpu time      0.3728: real time      0.3733
     EDDAV:  cpu time      5.8902: real time      5.9039
       DOS:  cpu time      0.0008: real time      0.0008
    CHARGE:  cpu time      0.5169: real time      0.5182
    MIXING:  cpu time      0.0197: real time      0.0197
    --------------------------------------------
      LOOP:  cpu time      6.9205: real time      6.9362

 eigenvalue-minimisations  :  1456
 total energy-change (2. order) : 0.1552460E-05  (-0.2139632E-06)
 number of electron      89.9999995 magnetization 
 augmentation part      -14.6360551 magnetization 

 Broyden mixing:
  rms(total) = 0.18195E-03    rms(broyden)= 0.18158E-03
  rms(prec ) = 0.20622E-03
  weight for this iteration     100.00

 eigenvalues of (default mixing * dielectric matrix)
  average eigenvalue GAMMA=   4.8485
 11.0530 10.7328  9.1287  7.5591  4.8369  1.1989  1.0200  1.0200  0.9679  0.9679

 Free energy of the ion-electron system (eV)
  ---------------------------------------------------
  alpha Z        PSCENC =        47.37454345
  Ewald energy   TEWEN  =      3403.98268447
  -Hartree energ DENC   =     -6030.74304699
  -exchange      EXHF   =         0.00000000
  -V(xc)+E(xc)   XCENC  =      -211.43828755
  PAW double counting   =      2990.95219384    -2606.40269116
  entropy T*S    EENTRO =        -0.00000000
  eigenvalues    EBANDS =      -741.07379413
  atomic energy  EATOM  =      3063.27542168
  Solvation  Ediel_sol  =         0.00000000
  ---------------------------------------------------
  free energy    TOTEN  =       -84.07297639 eV

  energy without entropy =      -84.07297639  energy(sigma->0) =      -84.07297639


--------------------------------------------------------------------------------------------------------




--------------------------------------- Iteration      1(  23)  ---------------------------------------


    POTLOK:  cpu time      0.1221: real time      0.1224
    SETDIJ:  cpu time      0.3669: real time      0.3675
     EDDAV:  cpu time      6.0573: real time      6.0724
       DOS:  cpu time      0.0009: real time      0.0009
    CHARGE:  cpu time      0.5175: real time      0.5186
    MIXING:  cpu time      0.0220: real time      0.0221
    --------------------------------------------
      LOOP:  cpu time      7.0867: real time      7.1040

 eigenvalue-minimisations  :  1472
 total energy-change (2. order) : 0.1371476E-05  (-0.7512195E-07)
 number of electron      89.9999995 magnetization 
 augmentation part      -14.6361739 magnetization 

 Broyden mixing:
  rms(total) = 0.79744E-04    rms(broyden)= 0.78899E-04
  rms(prec ) = 0.10090E-03
  weight for this iteration     100.00

 eigenvalues of (default mixing * dielectric matrix)
  average eigenvalue GAMMA=   4.3471
 10.8393 10.0389  8.1829  7.3800  4.8620  1.3828  1.0805  1.0805  0.9592  1.0061
  1.0061

 Free energy of the ion-electron system (eV)
  ---------------------------------------------------
  alpha Z        PSCENC =        47.37454345
  Ewald energy   TEWEN  =      3403.98268447
  -Hartree energ DENC   =     -6030.70782861
  -exchange      EXHF   =         0.00000000
  -V(xc)+E(xc)   XCENC  =      -211.43940126
  PAW double counting   =      2990.76942316    -2606.21898468
  entropy T*S    EENTRO =        -0.00000000
  eigenvalues    EBANDS =      -741.10883322
  atomic energy  EATOM  =      3063.27542168
  Solvation  Ediel_sol  =         0.00000000
  ---------------------------------------------------
  free energy    TOTEN  =       -84.07297501 eV

  energy without entropy =      -84.07297501  energy(sigma->0) =      -84.07297501


--------------------------------------------------------------------------------------------------------




--------------------------------------- Iteration      1(  24)  ---------------------------------------


    POTLOK:  cpu time      0.1310: real time      0.1314
    SETDIJ:  cpu time      0.3671: real time      0.3677
     EDDAV:  cpu time      5.0650: real time      5.0770
       DOS:  cpu time      0.0005: real time      0.0005
    CHARGE:  cpu time      0.4544: real time      0.4558
    MIXING:  cpu time      0.0322: real time      0.0322
    --------------------------------------------
      LOOP:  cpu time      6.0503: real time      6.0647

 eigenvalue-minimisations  :  1152
 total energy-change (2. order) :-0.3487708E-06  (-0.1949131E-07)
 number of electron      89.9999995 magnetization 
 augmentation part      -14.6361093 magnetization 

 Broyden mixing:
  rms(total) = 0.32009E-04    rms(broyden)= 0.29923E-04
  rms(prec ) = 0.32774E-04
  weight for this iteration     100.00

 eigenvalues of (default mixing * dielectric matrix)
  average eigenvalue GAMMA=   4.3674
 10.9166  9.8366  8.3564  7.6244  4.8244  4.6758  1.1067  1.1067  1.0060  0.9838
  0.9858  0.9858

 Free energy of the ion-electron system (eV)
  ---------------------------------------------------
  alpha Z        PSCENC =        47.37454345
  Ewald energy   TEWEN  =      3403.98268447
  -Hartree energ DENC   =     -6030.72863897
  -exchange      EXHF   =         0.00000000
  -V(xc)+E(xc)   XCENC  =      -211.43893648
  PAW double counting   =      2990.82747198    -2606.27730792
  entropy T*S    EENTRO =        -0.00000000
  eigenvalues    EBANDS =      -741.08821357
  atomic energy  EATOM  =      3063.27542168
  Solvation  Ediel_sol  =         0.00000000
  ---------------------------------------------------
  free energy    TOTEN  =       -84.07297536 eV

  energy without entropy =      -84.07297536  energy(sigma->0) =      -84.07297536


--------------------------------------------------------------------------------------------------------




--------------------------------------- Iteration      1(  25)  ---------------------------------------


    POTLOK:  cpu time      0.1438: real time      0.1441
    SETDIJ:  cpu time      0.3320: real time      0.3325
     EDDAV:  cpu time      4.6963: real time      4.7077
       DOS:  cpu time      0.0008: real time      0.0008
    --------------------------------------------
      LOOP:  cpu time      5.1728: real time      5.1850

 eigenvalue-minimisations  :  1008
 total energy-change (2. order) :-0.8927464E-07  (-0.1547614E-08)
 number of electron      89.9999995 magnetization 
 augmentation part      -14.6361093 magnetization 

 Free energy of the ion-electron system (eV)
  ---------------------------------------------------
  alpha Z        PSCENC =        47.37454345
  Ewald energy   TEWEN  =      3403.98268447
  -Hartree energ DENC   =     -6030.72806778
  -exchange      EXHF   =         0.00000000
  -V(xc)+E(xc)   XCENC  =      -211.43883703
  PAW double counting   =      2990.82727596    -2606.27714711
  entropy T*S    EENTRO =        -0.00000000
  eigenvalues    EBANDS =      -741.08884910
  atomic energy  EATOM  =      3063.27542168
  Solvation  Ediel_sol  =         0.00000000
  ---------------------------------------------------
  free energy    TOTEN  =       -84.07297545 eV

  energy without entropy =      -84.07297545  energy(sigma->0) =      -84.07297545


--------------------------------------------------------------------------------------------------------




 average (electrostatic) potential at core
  the test charge radii are     1.0621
  (the norm of the test charge is              1.0000)
       1 -57.2642       2 -57.2642       3 -57.2642       4 -57.2642       5 -57.2642
       6 -57.2642       7 -57.2642       8 -57.2642       9 -57.2642      10 -57.2642
      11 -57.2642      12 -57.2642      13 -57.2642      14 -57.2642      15 -57.2642
      16 -57.2642      17 -57.2642      18 -57.2642
 
 
 
 E-fermi :  -2.9677     XC(G=0):  -3.2492     alpha+bet : -2.4472

 Fermi energy:        -2.9676689406

 k-point     1 :       0.0000    0.0000    0.0000
  band No.  band energies     occupation 
      1     -16.4747      2.00000
      2     -15.0761      2.00000
      3     -15.0761      2.00000
      4     -15.0761      2.00000
      5     -15.0761      2.00000
      6     -15.0761      2.00000
      7     -15.0761      2.00000
      8     -12.9449      2.00000
      9     -12.9449      2.00000
     10     -12.9449      2.00000
     11     -12.9449      2.00000
     12     -10.9242      2.00000
     13     -10.9242      2.00000
     14     -10.9242      2.00000
     15     -10.9242      2.00000
     16     -10.9242      2.00000
     17     -10.9242      2.00000
     18     -10.1869      2.00000
     19      -7.3580      2.00000
     20      -7.3580      2.00000
     21      -6.6181      2.00000
     22      -6.6181      2.00000
     23      -6.6181      2.00000
     24      -6.6181      2.00000
     25      -6.6181      2.00000
     26      -6.6181      2.00000
     27      -4.9923      2.00000
     28      -4.9923      2.00000
     29      -4.9923      2.00000
     30      -4.9923      2.00000
     31      -4.5496      2.00000
     32      -4.5496      2.00000
     33      -4.5496      2.00000
     34      -4.5496      2.00000
     35      -4.5496      2.00000
     36      -4.5496      2.00000
     37      -3.7708      2.00000
     38      -3.7708      2.00000
     39      -3.7708      2.00000
     40      -3.7708      2.00000
     41      -3.7708      2.00000
     42      -3.7708      2.00000
     43      -3.5627      2.00000
     44      -3.0137      2.00000
     45      -3.0137      2.00000
     46      -1.4022      0.00000
     47      -1.4022      0.00000
     48      -1.4022      0.00000
     49      -1.4022      0.00000
     50      -1.4022      0.00000
     51      -1.4022      0.00000
     52      -1.0916      0.00000
     53      -1.0070      0.00000
     54      -1.0070      0.00000
     55       0.4772      0.00000
     56       0.4772      0.00000
     57       0.8199      0.00000
     58       0.8199      0.00000
     59       0.8199      0.00000
     60       0.8199      0.00000
     61       0.8199      0.00000
     62       0.8199      0.00000
     63       1.5032      0.00000
     64       1.5067      0.00000

 k-point     2 :       0.2500   -0.0000    0.0000
  band No.  band energies     occupation 
      1     -16.3827      2.00000
      2     -15.6651      2.00000
      3     -15.3204      2.00000
      4     -15.3204      2.00000
      5     -14.6832      2.00000
      6     -14.6832      2.00000
      7     -14.4256      2.00000
      8     -13.5680      2.00000
      9     -13.5680      2.00000
     10     -12.3526      2.00000
     11     -12.3526      2.00000
     12     -11.6818      2.00000
     13     -11.3323      2.00000
     14     -11.3323      2.00000
     15     -10.6451      2.00000
     16     -10.6451      2.00000
     17     -10.3801      2.00000
     18     -10.1752      2.00000
     19      -7.1299      2.00000
     20      -7.1299      2.00000
     21      -6.5730      2.00000
     22      -6.5730      2.00000
     23      -6.5426      2.00000
     24      -6.4384      2.00000
     25      -6.4384      2.00000
     26      -6.2108      2.00000
     27      -5.4615      2.00000
     28      -5.4615      2.00000
     29      -5.1743      2.00000
     30      -5.1743      2.00000
     31      -4.8638      2.00000
     32      -4.8638      2.00000
     33      -4.7991      2.00000
     34      -4.5588      2.00000
     35      -4.5588      2.00000
     36      -4.2981      2.00000
     37      -4.1576      2.00000
     38      -3.9490      2.00000
     39      -3.9490      2.00000
     40      -3.9046      2.00000
     41      -3.5186      2.00000
     42      -3.5033      2.00000
     43      -3.5033      2.00000
     44      -3.4341      2.00000
     45      -3.2191      2.00000
     46      -1.2912      0.00000
     47      -1.1952      0.00000
     48      -0.9463      0.00000
     49      -0.9463      0.00000
     50      -0.8857      0.00000
     51      -0.8857      0.00000
     52      -0.7646      0.00000
     53      -0.7646      0.00000
     54      -0.4664      0.00000
     55       0.3321      0.00000
     56       0.3622      0.00000
     57       0.6650      0.00000
     58       0.6650      0.00000
     59       0.6862      0.00000
     60       1.0648      0.00000
     61       1.0648      0.00000
     62       1.0756      0.00000
     63       1.0758      0.00000
     64       1.2214      0.00000

 k-point     3 :       0.5000   -0.0000    0.0000
  band No.  band energies     occupation 
      1     -16.1095      2.00000
      2     -16.1095      2.00000
      3     -15.4031      2.00000
      4     -15.4031      2.00000
      5     -14.1666      2.00000
      6     -14.1666      2.00000
      7     -14.1666      2.00000
      8     -14.1666      2.00000
      9     -14.0514      2.00000
     10     -12.1179      2.00000
     11     -11.8150      2.00000
     12     -11.8150      2.00000
     13     -11.8150      2.00000
     14     -11.8150      2.00000
     15     -10.5464      2.00000
     16     -10.5464      2.00000
     17     -10.1873      2.00000
     18     -10.1873      2.00000
     19      -6.6361      2.00000
     20      -6.6361      2.00000
     21      -6.6361      2.00000
     22      -6.6361      2.00000
     23      -6.4110      2.00000
     24      -6.2113      2.00000
     25      -6.2113      2.00000
     26      -5.7270      2.00000
     27      -5.7270      2.00000
     28      -5.7270      2.00000
     29      -5.7270      2.00000
     30      -5.2552      2.00000
     31      -5.2552      2.00000
     32      -5.2160      2.00000
     33      -5.2160      2.00000
     34      -4.8844      2.00000
     35      -4.5769      2.00000
     36      -4.2075      2.00000
     37      -4.2075      2.00000
     38      -4.2075      2.00000
     39      -4.2075      2.00000
     40      -3.6748      2.00000
     41      -3.6748      2.00000
     42      -3.4242      2.00000
     43      -3.4242      2.00000
     44      -3.4144      2.00000
     45      -3.4144      2.00000
     46      -1.0479      0.00000
     47      -0.7674      0.00000
     48      -0.7674      0.00000
     49      -0.3209      0.00000
     50      -0.3209      0.00000
     51      -0.3209      0.00000
     52      -0.3209      0.00000
     53      -0.2399      0.00000
     54      -0.2399      0.00000
     55       0.1251      0.00000
     56       0.4557      0.00000
     57       0.4557      0.00000
     58       0.4955      0.00000
     59       0.4955      0.00000
     60       0.4955      0.00000
     61       0.4955      0.00000
     62       1.0375      0.00000
     63       1.0422      0.00000
     64       1.0973      0.00000

 k-point     4 :       0.2500    0.2500    0.0000
  band No.  band energies     occupation 
      1     -16.2000      2.00000
      2     -15.8406      2.00000
      3     -15.8406      2.00000
      4     -14.8211      2.00000
      5     -14.8211      2.00000
      6     -14.2004      2.00000
      7     -14.0925      2.00000
      8     -14.0925      2.00000
      9     -13.7680      2.00000
     10     -12.2512      2.00000
     11     -12.0172      2.00000
     12     -12.0172      2.00000
     13     -11.7120      2.00000
     14     -11.0988      2.00000
     15     -11.0988      2.00000
     16     -10.2713      2.00000
     17     -10.2713      2.00000
     18     -10.1743      2.00000
     19      -6.7580      2.00000
     20      -6.7251      2.00000
     21      -6.4837      2.00000
     22      -6.4837      2.00000
     23      -6.3798      2.00000
     24      -6.3798      2.00000
     25      -5.9337      2.00000
     26      -5.8455      2.00000
     27      -5.8455      2.00000
     28      -5.8140      2.00000
     29      -5.8140      2.00000
     30      -5.4599      2.00000
     31      -5.2070      2.00000
     32      -5.2070      2.00000
     33      -4.8245      2.00000
     34      -4.5775      2.00000
     35      -4.4646      2.00000
     36      -4.4646      2.00000
     37      -4.3326      2.00000
     38      -4.3326      2.00000
     39      -4.0721      2.00000
     40      -3.6942      2.00000
     41      -3.6942      2.00000
     42      -3.6829      2.00000
     43      -3.4422      2.00000
     44      -3.3752      2.00000
     45      -3.3752      2.00000
     46      -0.5856      0.00000
     47      -0.5856      0.00000
     48      -0.5813      0.00000
     49      -0.5813      0.00000
     50      -0.3880      0.00000
     51      -0.3471      0.00000
     52      -0.2664      0.00000
     53      -0.2664      0.00000
     54      -0.0117      0.00000
     55       0.0576      0.00000
     56       0.1414      0.00000
     57       0.1414      0.00000
     58       0.4158      0.00000
     59       0.4158      0.00000
     60       0.4742      0.00000
     61       0.6213      0.00000
     62       0.7018      0.00000
     63       0.7018      0.00000
     64       1.1519      0.00000

 k-point     5 :       0.0000    0.0000    0.3333
  band No.  band energies     occupation 
      1     -16.4747      2.00000
      2     -15.0761      2.00000
      3     -15.0761      2.00000
      4     -15.0761      2.00000
      5     -15.0761      2.00000
      6     -15.0761      2.00000
      7     -15.0761      2.00000
      8     -12.9449      2.00000
      9     -12.9449      2.00000
     10     -12.9449      2.00000
     11     -12.9449      2.00000
     12     -10.9242      2.00000
     13     -10.9242      2.00000
     14     -10.9242      2.00000
     15     -10.9242      2.00000
     16     -10.9242      2.00000
     17     -10.9242      2.00000
     18     -10.1869      2.00000
     19      -7.3581      2.00000
     20      -7.3581      2.00000
     21      -6.6180      2.00000
     22      -6.6180      2.00000
     23      -6.6180      2.00000
     24      -6.6180      2.00000
     25      -6.6180      2.00000
     26      -6.6180      2.00000
     27      -4.9924      2.00000
     28      -4.9924      2.00000
     29      -4.9924      2.00000
     30      -4.9924      2.00000
     31      -4.5496      2.00000
     32      -4.5496      2.00000
     33      -4.5496      2.00000
     34      -4.5496      2.00000
     35      -4.5496      2.00000
     36      -4.5496      2.00000
     37      -3.7708      2.00000
     38      -3.7708      2.00000
     39      -3.7708      2.00000
     40      -3.7707      2.00000
     41      -3.7707      2.00000
     42      -3.7707      2.00000
     43      -3.5629      2.00000
     44      -3.0138      2.00000
     45      -3.0138      2.00000
     46      -1.4022      0.00000
[...]
      7.213785  2.082440  8.698510     0.079303   -0.081807   -0.000000  
     -1.803446  5.206101  8.698510    -0.006334   -0.260000    0.000000  
      1.803446  5.206101  8.698510    -0.186018    0.062282    0.000000  
      5.410339  5.206101  8.698510     0.052170    0.197718    0.000000  
     -3.606893  8.329762  8.698510     0.106715    0.019525    0.000000  
      0.000000  8.329762  8.698510    -0.237545    0.056752   -0.000000  
      3.606893  8.329762  8.698510    -0.154355   -0.076277   -0.000000  
 
  44 f  =    1.923546 THz    12.085997 2PiTHz   64.162594 cm-1     7.955144 meV
             X         Y         Z           dx          dy          dz
      1.803446  1.041220  7.301490    -0.213080   -0.026199   -0.000000  
      5.410339  1.041220  7.301490    -0.286255    0.187513   -0.000000  
      9.017231  1.041220  7.301490    -0.185848   -0.161314    0.000000  
      0.000000  4.164881  7.301490     0.239009   -0.070173   -0.000000  
      3.606893  4.164881  7.301490     0.166117    0.144029    0.000000  
      7.213785  4.164881  7.301490     0.342124   -0.073856    0.000000  
     -1.803446  7.288541  7.301490     0.019731    0.017286    0.000000  
      1.803446  7.288541  7.301490    -0.129044    0.100055    0.000000  
      5.410339  7.288541  7.301490     0.047246   -0.117341   -0.000000  
      0.000000  2.082440  8.698510    -0.217370   -0.085441   -0.000000  
      3.606893  2.082440  8.698510    -0.296499    0.152572    0.000000  
      7.213785  2.082440  8.698510    -0.127376   -0.067130   -0.000000  
     -1.803446  5.206101  8.698510     0.305362    0.001651    0.000000  
      1.803446  5.206101  8.698510     0.146806    0.102094   -0.000000  
      5.410339  5.206101  8.698510     0.323933   -0.103744    0.000000  
     -3.606893  8.329762  8.698510    -0.019429   -0.034963    0.000000  
      0.000000  8.329762  8.698510    -0.106564    0.189186   -0.000000  
      3.606893  8.329762  8.698510    -0.008862   -0.154222    0.000000  
 
  45 f  =    1.923546 THz    12.085997 2PiTHz   64.162594 cm-1     7.955144 meV
             X         Y         Z           dx          dy          dz
      1.803446  1.041220  7.301490    -0.054524   -0.200582    0.000000  
      5.410339  1.041220  7.301490    -0.186528    0.081252   -0.000000  
      9.017231  1.041220  7.301490    -0.167920    0.119330   -0.000000  
      0.000000  4.164881  7.301490    -0.011431   -0.138830   -0.000000  
      3.606893  4.164881  7.301490    -0.194444    0.054654   -0.000000  
      7.213785  4.164881  7.301490    -0.180776    0.084175   -0.000000  
     -1.803446  7.288541  7.301490     0.362364   -0.173984    0.000000  
      1.803446  7.288541  7.301490     0.235300    0.116406    0.000000  
      5.410339  7.288541  7.301490     0.197959    0.057578   -0.000000  
      0.000000  2.082440  8.698510    -0.039759   -0.139494    0.000000  
      3.606893  2.082440  8.698510    -0.214624    0.039487   -0.000000  
      7.213785  2.082440  8.698510    -0.213269    0.100008   -0.000000  
     -1.803446  5.206101  8.698510    -0.009400   -0.170007   -0.000000  
      1.803446  5.206101  8.698510    -0.130883    0.101433   -0.000000  
      5.410339  5.206101  8.698510    -0.183442    0.068574   -0.000000  
     -3.606893  8.329762  8.698510     0.344152   -0.201441    0.000000  
      0.000000  8.329762  8.698510     0.223201    0.070921    0.000000  
      3.606893  8.329762  8.698510     0.224024    0.130521    0.000000  
 
  46 f  =    1.282391 THz     8.057501 2PiTHz   42.775964 cm-1     5.303541 meV
             X         Y         Z           dx          dy          dz
      1.803446  1.041220  7.301490    -0.090944   -0.063254   -0.175691  
      5.410339  1.041220  7.301490     0.076239   -0.082122   -0.209930  
      9.017231  1.041220  7.301490     0.014705   -0.147074    0.230333  
      0.000000  4.164881  7.301490     0.034471    0.006365   -0.078177  
      3.606893  4.164881  7.301490    -0.023693    0.117601   -0.175621  
      7.213785  4.164881  7.301490    -0.010778    0.009666   -0.175739  
     -1.803446  7.288541  7.301490     0.008988    0.029473   -0.054712  
      1.803446  7.288541  7.301490     0.101722    0.053588    0.351430  
      5.410339  7.288541  7.301490    -0.110710    0.075757    0.288106  
      0.000000  2.082440  8.698510     0.090652    0.045020   -0.018279  
      3.606893  2.082440  8.698510     0.010891   -0.001656   -0.359898  
      7.213785  2.082440  8.698510    -0.101543    0.066319   -0.088012  
     -1.803446  5.206101  8.698510    -0.023891   -0.022063   -0.132046  
      1.803446  5.206101  8.698510     0.010349   -0.134557    0.062861  
      5.410339  5.206101  8.698510     0.013542   -0.133340   -0.032860  
     -3.606893  8.329762  8.698510     0.091194    0.068238    0.025151  
      0.000000  8.329762  8.698510    -0.104194    0.088319    0.051139  
      3.606893  8.329762  8.698510     0.012999    0.023719    0.491944  
 
  47 f  =    1.282391 THz     8.057501 2PiTHz   42.775964 cm-1     5.303541 meV
             X         Y         Z           dx          dy          dz
      1.803446  1.041220  7.301490     0.041046    0.080454   -0.440794  
      5.410339  1.041220  7.301490     0.070166    0.016674    0.077898  
      9.017231  1.041220  7.301490    -0.111212    0.004490   -0.068601  
      0.000000  4.164881  7.301490     0.030703    0.108166    0.067941  
      3.606893  4.164881  7.301490     0.000370    0.078710    0.227507  
      7.213785  4.164881  7.301490    -0.031074   -0.020037    0.230682  
     -1.803446  7.288541  7.301490     0.110841   -0.083201   -0.158906  
      1.803446  7.288541  7.301490    -0.009972   -0.060417    0.210113  
      5.410339  7.288541  7.301490    -0.100869   -0.124839   -0.145839  
      0.000000  2.082440  8.698510     0.083208   -0.097589   -0.247916  
      3.606893  2.082440  8.698510    -0.121228   -0.117279   -0.073251  
      7.213785  2.082440  8.698510     0.038020   -0.055878    0.177556  
     -1.803446  5.206101  8.698510     0.024491    0.075593    0.084453  
      1.803446  5.206101  8.698510    -0.036062   -0.027168    0.259347  
      5.410339  5.206101  8.698510     0.011571    0.098674    0.197592  
     -3.606893  8.329762  8.698510    -0.001958    0.083046   -0.436902  
      0.000000  8.329762  8.698510    -0.094779   -0.001085    0.050323  
      3.606893  8.329762  8.698510     0.096737    0.041686   -0.011202  
 
  48 f  =    1.282391 THz     8.057501 2PiTHz   42.775964 cm-1     5.303541 meV
             X         Y         Z           dx          dy          dz
      1.803446  1.041220  7.301490     0.027299   -0.026503    0.066874  
      5.410339  1.041220  7.301490    -0.090229    0.059019   -0.288819  
      9.017231  1.041220  7.301490     0.062930   -0.052611   -0.256014  
      0.000000  4.164881  7.301490     0.067724    0.028346   -0.035606  
      3.606893  4.164881  7.301490     0.042600    0.060520    0.358875  
      7.213785  4.164881  7.301490    -0.110324    0.125607    0.009991  
     -1.803446  7.288541  7.301490    -0.105530   -0.007909   -0.102861  
      1.803446  7.288541  7.301490     0.083025   -0.099103   -0.076865  
      5.410339  7.288541  7.301490     0.022505   -0.087366    0.324425  
      0.000000  2.082440  8.698510    -0.083703   -0.009823   -0.092366  
      3.606893  2.082440  8.698510     0.077901   -0.124596    0.074897  
      7.213785  2.082440  8.698510     0.005803   -0.081974   -0.308725  
     -1.803446  5.206101  8.698510     0.023535    0.008624   -0.078445  
      1.803446  5.206101  8.698510    -0.102298    0.059802    0.167697  
      5.410339  5.206101  8.698510     0.078763   -0.043738    0.390737  
     -3.606893  8.329762  8.698510     0.096495    0.022172    0.141028  
      0.000000  8.329762  8.698510     0.004941    0.053560   -0.298371  
      3.606893  8.329762  8.698510    -0.101435    0.115972    0.003549  
 
  49 f  =    1.282391 THz     8.057501 2PiTHz   42.775964 cm-1     5.303541 meV
             X         Y         Z           dx          dy          dz
      1.803446  1.041220  7.301490    -0.122635    0.037090   -0.027426  
      5.410339  1.041220  7.301490     0.098774    0.113442   -0.217547  
      9.017231  1.041220  7.301490     0.023860    0.076287    0.312685  
      0.000000  4.164881  7.301490    -0.083333   -0.088033    0.168769  
      3.606893  4.164881  7.301490     0.054192    0.036749   -0.103097  
      7.213785  4.164881  7.301490     0.029141   -0.029194    0.308403  
     -1.803446  7.288541  7.301490    -0.078053   -0.113036   -0.209588  
      1.803446  7.288541  7.301490     0.093494   -0.007896   -0.280978  
      5.410339  7.288541  7.301490    -0.015441   -0.025408    0.048779  
      0.000000  2.082440  8.698510     0.089633   -0.008809    0.291427  
      3.606893  2.082440  8.698510     0.037803   -0.022220   -0.194122  
      7.213785  2.082440  8.698510    -0.127436   -0.079306    0.231073  
     -1.803446  5.206101  8.698510     0.042151    0.132024    0.167366  
      1.803446  5.206101  8.698510     0.052103    0.082942   -0.142490  
      5.410339  5.206101  8.698510    -0.094254    0.014955    0.109219  
     -3.606893  8.329762  8.698510     0.075332   -0.003636   -0.088582  
      0.000000  8.329762  8.698510     0.004622   -0.006146   -0.400646  
      3.606893  8.329762  8.698510    -0.079954   -0.109803    0.026756  
 
  50 f  =    1.282391 THz     8.057501 2PiTHz   42.775964 cm-1     5.303541 meV
             X         Y         Z           dx          dy          dz
      1.803446  1.041220  7.301490     0.014440   -0.135689   -0.199556  
      5.410339  1.041220  7.301490     0.045424   -0.060673   -0.057910  
      9.017231  1.041220  7.301490    -0.059864   -0.007558   -0.181660  
      0.000000  4.164881  7.301490    -0.133677    0.097309   -0.110362  
      3.606893  4.164881  7.301490     0.094898    0.058246   -0.214109  
      7.213785  4.164881  7.301490     0.038779    0.082973    0.281811  
     -1.803446  7.288541  7.301490    -0.035034   -0.050688    0.395769  
      1.803446  7.288541  7.301490    -0.053219    0.052716   -0.082255  
      5.410339  7.288541  7.301490     0.088253   -0.036636    0.168272  
      0.000000  2.082440  8.698510     0.020499   -0.015524   -0.283150  
      3.606893  2.082440  8.698510    -0.044677    0.033925   -0.250034  
      7.213785  2.082440  8.698510     0.024178   -0.100465   -0.000153  
     -1.803446  5.206101  8.698510     0.095900   -0.088568    0.337909  
      1.803446  5.206101  8.698510     0.030735   -0.039125   -0.223553  
      5.410339  5.206101  8.698510    -0.126635   -0.042905    0.159292  
     -3.606893  8.329762  8.698510    -0.054913    0.139591    0.223705  
      0.000000  8.329762  8.698510     0.106136    0.058429    0.123858  
      3.606893  8.329762  8.698510    -0.051223    0.054643   -0.087875  
 
  51 f  =    1.282391 THz     8.057501 2PiTHz   42.775964 cm-1     5.303541 meV
             X         Y         Z           dx          dy          dz
      1.803446  1.041220  7.301490    -0.074885    0.024351    0.002572  
      5.410339  1.041220  7.301490    -0.029322   -0.067089   -0.293232  
      9.017231  1.041220  7.301490     0.104206    0.035509   -0.127066  
      0.000000  4.164881  7.301490     0.004998    0.042352    0.466436  
      3.606893  4.164881  7.301490    -0.131293    0.055905   -0.048535  
      7.213785  4.164881  7.301490     0.126295    0.086877   -0.107203  
     -1.803446  7.288541  7.301490     0.027086   -0.091414    0.175601  
      1.803446  7.288541  7.301490    -0.051410   -0.111228    0.104631  
      5.410339  7.288541  7.301490     0.024324    0.024737   -0.173204  
      0.000000  2.082440  8.698510    -0.030897   -0.139967    0.186519  
      3.606893  2.082440  8.698510     0.085136   -0.025110   -0.171809  
      7.213785  2.082440  8.698510    -0.054238   -0.030550   -0.286780  
     -1.803446  5.206101  8.698510    -0.137326   -0.002530    0.311936  
      1.803446  5.206101  8.698510     0.126588    0.026948    0.317186  
      5.410339  5.206101  8.698510     0.010737    0.007927   -0.200299  
     -3.606893  8.329762  8.698510    -0.072350    0.003602   -0.030406  
      0.000000  8.329762  8.698510     0.020160    0.132040    0.013780  
      3.606893  8.329762  8.698510     0.052190    0.027640   -0.140127  
 
  52 f/i=    0.000000 THz     0.000001 2PiTHz    0.000006 cm-1     0.000001 meV
             X         Y         Z           dx          dy          dz
      1.803446  1.041220  7.301490     0.091299   -0.206009   -0.069141  
      5.410339  1.041220  7.301490     0.091299   -0.206009   -0.069141  
      9.017231  1.041220  7.301490     0.091299   -0.206009   -0.069141  
      0.000000  4.164881  7.301490     0.091299   -0.206009   -0.069141  
      3.606893  4.164881  7.301490     0.091299   -0.206009   -0.069141  
      7.213785  4.164881  7.301490     0.091299   -0.206009   -0.069141  
     -1.803446  7.288541  7.301490     0.091299   -0.206009   -0.069141  
      1.803446  7.288541  7.301490     0.091299   -0.206009   -0.069141  
      5.410339  7.288541  7.301490     0.091299   -0.206009   -0.069141  
      0.000000  2.082440  8.698510     0.091299   -0.206009   -0.069141  
      3.606893  2.082440  8.698510     0.091299   -0.206009   -0.069141  
      7.213785  2.082440  8.698510     0.091299   -0.206009   -0.069141  
     -1.803446  5.206101  8.698510     0.091299   -0.206009   -0.069141  
      1.803446  5.206101  8.698510     0.091299   -0.206009   -0.069141  
      5.410339  5.206101  8.698510     0.091299   -0.206009   -0.069141  
     -3.606893  8.329762  8.698510     0.091299   -0.206009   -0.069141  
      0.000000  8.329762  8.698510     0.091299   -0.206009   -0.069141  
      3.606893  8.329762  8.698510     0.091299   -0.206009   -0.069141  
 
  53 f/i=    0.000000 THz     0.000001 2PiTHz    0.000007 cm-1     0.000001 meV
             X         Y         Z           dx          dy          dz
      1.803446  1.041220  7.301490    -0.063547    0.046405   -0.222180  
      5.410339  1.041220  7.301490    -0.063547    0.046405   -0.222180  
      9.017231  1.041220  7.301490    -0.063547    0.046405   -0.222180  
      0.000000  4.164881  7.301490    -0.063547    0.046405   -0.222180  
      3.606893  4.164881  7.301490    -0.063547    0.046405   -0.222180  
      7.213785  4.164881  7.301490    -0.063547    0.046405   -0.222180  
     -1.803446  7.288541  7.301490    -0.063547    0.046405   -0.222180  
      1.803446  7.288541  7.301490    -0.063547    0.046405   -0.222180  
      5.410339  7.288541  7.301490    -0.063547    0.046405   -0.222180  
      0.000000  2.082440  8.698510    -0.063547    0.046405   -0.222180  
      3.606893  2.082440  8.698510    -0.063547    0.046405   -0.222180  
      7.213785  2.082440  8.698510    -0.063547    0.046405   -0.222180  
     -1.803446  5.206101  8.698510    -0.063547    0.046405   -0.222180  
      1.803446  5.206101  8.698510    -0.063547    0.046405   -0.222180  
      5.410339  5.206101  8.698510    -0.063547    0.046405   -0.222180  
     -3.606893  8.329762  8.698510    -0.063547    0.046405   -0.222180  
      0.000000  8.329762  8.698510    -0.063547    0.046405   -0.222180  
      3.606893  8.329762  8.698510    -0.063547    0.046405   -0.222180  
 
  54 f/i=    0.000000 THz     0.000002 2PiTHz    0.000010 cm-1     0.000001 meV
             X         Y         Z           dx          dy          dz
      1.803446  1.041220  7.301490     0.207802    0.104702   -0.037566  
      5.410339  1.041220  7.301490     0.207802    0.104702   -0.037566  
      9.017231  1.041220  7.301490     0.207802    0.104702   -0.037566  
      0.000000  4.164881  7.301490     0.207802    0.104702   -0.037566  
      3.606893  4.164881  7.301490     0.207802    0.104702   -0.037566  
      7.213785  4.164881  7.301490     0.207802    0.104702   -0.037566  
     -1.803446  7.288541  7.301490     0.207802    0.104702   -0.037566  
      1.803446  7.288541  7.301490     0.207802    0.104702   -0.037566  
      5.410339  7.288541  7.301490     0.207802    0.104702   -0.037566  
      0.000000  2.082440  8.698510     0.207802    0.104702   -0.037566  
      3.606893  2.082440  8.698510     0.207802    0.104702   -0.037566  
      7.213785  2.082440  8.698510     0.207802    0.104702   -0.037566  
     -1.803446  5.206101  8.698510     0.207802    0.104702   -0.037566  
      1.803446  5.206101  8.698510     0.207802    0.104702   -0.037566  
      5.410339  5.206101  8.698510     0.207802    0.104702   -0.037566  
     -3.606893  8.329762  8.698510     0.207802    0.104702   -0.037566  
      0.000000  8.329762  8.698510     0.207802    0.104702   -0.037566  
      3.606893  8.329762  8.698510     0.207802    0.104702   -0.037566  
 


--------------------------------------------------------------------------------------------------------



 ELASTIC MODULI CONTR FROM IONIC RELAXATION (kBar)
 Direction    XX          YY          ZZ          XY          YZ          ZX
 --------------------------------------------------------------------------------
 XX         -39.3310    -15.4393    -77.7776     -0.0000    -39.6177     -0.0000
 YY         -15.4393    -39.3310    -77.7776     -0.0000     39.6177      0.0000
 ZZ         -77.7776    -77.7776   -220.8987      0.0000     -0.0000     -0.0000
 XY          -0.0000     -0.0000     -0.0000    -11.9459      0.0000    -39.9148
 YZ         -39.6177     39.6177      0.0000      0.0000   -131.3892      0.0000
 ZX           0.0000      0.0000     -0.0000    -39.9148      0.0000   -133.3676
 --------------------------------------------------------------------------------



--------------------------------------------------------------------------------------------------------


     LOOP+:  cpu time   1188.6969: real time   1192.3639
    4ORBIT:  cpu time      0.0000: real time      0.0000



 total charge

# of ion       s       p       d       tot
------------------------------------------
    1        1.291   1.352   0.041   2.684
    2        1.291   1.352   0.041   2.684
    3        1.291   1.352   0.041   2.684
    4        1.291   1.352   0.041   2.684
    5        1.291   1.352   0.041   2.684
    6        1.291   1.352   0.041   2.684
    7        1.291   1.352   0.041   2.684
    8        1.291   1.352   0.041   2.684
    9        1.291   1.352   0.041   2.684
   10        1.291   1.352   0.041   2.684
   11        1.291   1.352   0.041   2.684
   12        1.291   1.352   0.041   2.684
   13        1.291   1.352   0.041   2.684
   14        1.291   1.352   0.041   2.684
   15        1.291   1.352   0.041   2.684
   16        1.291   1.352   0.041   2.684
   17        1.291   1.352   0.041   2.684
   18        1.291   1.352   0.041   2.684
--------------------------------------------------
tot         23.238  24.332   0.740  48.309
 

 total amount of memory used by VASP MPI-rank0    88033. kBytes
=======================================================================

   base      :      30000. kBytes
   nonl-proj :      16313. kBytes
   fftplans  :      18527. kBytes
   grid      :      15232. kBytes
   one-center:        146. kBytes
   wavefun   :       7815. kBytes
 
  
  
 General timing and accounting informations for this job:
 ========================================================
  
                  Total CPU time used (sec):     1192.059
                            User time (sec):     1184.401
                          System time (sec):        7.658
                         Elapsed time (sec):     1197.108
  
                   Maximum memory used (kb):      448844.
                   Average memory used (kb):          N/A
  
                          Minor page faults:       339935
                          Major page faults:         3345
                 Voluntary context switches:          349
