PROCAR new format
# of k-points:    9         # of bands:   64         # of ions:   18

 k-point     1 :    0.00000000 0.00000000 0.00000000     weight = 0.02083333

band     1 # energy  -16.47466750 # occ.  2.00000000
 
ion      s      p      d    tot
    1  0.030  0.001  0.000  0.031
    2  0.030  0.001  0.000  0.031
    3  0.030  0.001  0.000  0.031
    4  0.030  0.001  0.000  0.031
    5  0.030  0.001  0.000  0.031
    6  0.030  0.001  0.000  0.031
    7  0.030  0.001  0.000  0.031
    8  0.030  0.001  0.000  0.031
    9  0.030  0.001  0.000  0.031
   10  0.030  0.001  0.000  0.031
   11  0.030  0.001  0.000  0.031
   12  0.030  0.001  0.000  0.031
   13  0.030  0.001  0.000  0.031
   14  0.030  0.001  0.000  0.031
   15  0.030  0.001  0.000  0.031
   16  0.030  0.001  0.000  0.031
   17  0.030  0.001  0.000  0.031
   18  0.030  0.001  0.000  0.031
tot    0.536  0.021  0.000  0.557
 
band     2 # energy  -15.07611741 # occ.  2.00000000
 
ion      s      p      d    tot
    1  0.043  0.002  0.000  0.045
    2  0.035  0.003  0.000  0.038
    3  0.013  0.002  0.000  0.016
    4  0.013  0.002  0.000  0.016
    5  0.043  0.002  0.000  0.045
    6  0.035  0.003  0.000  0.038
    7  0.035  0.003  0.000  0.038
    8  0.013  0.002  0.000  0.016
    9  0.043  0.002  0.000  0.045
   10  0.019  0.002  0.000  0.021
   11  0.024  0.003  0.000  0.027
   12  0.048  0.002  0.000  0.050
   13  0.048  0.002  0.000  0.050
   14  0.019  0.002  0.000  0.021
   15  0.024  0.003  0.000  0.027
   16  0.024  0.003  0.000  0.027
   17  0.048  0.002  0.000  0.050
   18  0.019  0.002  0.000  0.021
tot    0.548  0.039  0.003  0.589
 
band     3 # energy  -15.07611741 # occ.  2.00000000
 
ion      s      p      d    tot
    1  0.018  0.002  0.000  0.020
    2  0.026  0.002  0.000  0.028
    3  0.047  0.002  0.000  0.050
    4  0.047  0.002  0.000  0.050
    5  0.018  0.002  0.000  0.020
    6  0.026  0.002  0.000  0.028
    7  0.026  0.002  0.000  0.028
    8  0.047  0.002  0.000  0.050
    9  0.018  0.002  0.000  0.020
   10  0.042  0.002  0.000  0.044
   11  0.037  0.002  0.000  0.038
   12  0.013  0.002  0.000  0.015
   13  0.013  0.002  0.000  0.015
   14  0.042  0.002  0.000  0.044
   15  0.037  0.002  0.000  0.038
   16  0.037  0.002  0.000  0.038
   17  0.013  0.002  0.000  0.015
   18  0.042  0.002  0.000  0.044
tot    0.548  0.039  0.003  0.589
 
band     4 # energy  -15.07611738 # occ.  2.00000000
 
ion      s      p      d    tot
    1  0.014  0.001  0.000  0.015
    2  0.021  0.001  0.000  0.023
    3  0.049  0.002  0.000  0.052
    4  0.069  0.003  0.000  0.073
    5  0.057  0.002  0.000  0.059
    6  0.035  0.002  0.000  0.037
    7  0.003  0.002  0.000  0.006
    8  0.010  0.003  0.000  0.014
    9  0.014  0.002  0.000  0.017
   10  0.004  0.003  0.000  0.008
   11  0.000  0.002  0.000  0.002
   12  0.014  0.002  0.000  0.016
   13  0.053  0.002  0.000  0.055
   14  0.069  0.003  0.000  0.072
   15  0.028  0.002  0.000  0.030
   16  0.027  0.001  0.000  0.028
   17  0.027  0.001  0.000  0.028
   18  0.052  0.002  0.000  0.054
tot    0.548  0.039  0.003  0.589
 
band     5 # energy  -15.07611738 # occ.  2.00000000
 
ion      s      p      d    tot
    1  0.035  0.003  0.000  0.038
    2  0.027  0.003  0.000  0.030
    3  0.039  0.003  0.000  0.042
    4  0.004  0.002  0.000  0.006
    5  0.002  0.002  0.000  0.004
    6  0.012  0.002  0.000  0.014
    7  0.051  0.002  0.000  0.053
    8  0.061  0.002  0.000  0.063
    9  0.043  0.001  0.000  0.044
   10  0.062  0.002  0.000  0.064
   11  0.046  0.002  0.000  0.048
   12  0.060  0.002  0.000  0.062
   13  0.008  0.002  0.000  0.010
   14  0.013  0.002  0.000  0.015
   15  0.012  0.002  0.000  0.014
   16  0.020  0.003  0.000  0.022
   17  0.034  0.003  0.000  0.037
   18  0.019  0.003  0.000  0.022
tot    0.548  0.039  0.003  0.589
 
band     6 # energy  -15.07611738 # occ.  2.00000000
 
ion      s      p      d    tot
    1  0.003  0.002  0.000  0.006
    2  0.060  0.003  0.000  0.063
    3  0.025  0.001  0.000  0.026
    4  0.003  0.002  0.000  0.005
    5  0.036  0.003  0.000  0.039
    6  0.055  0.002  0.000  0.057
    7  0.004  0.002  0.000  0.006
    8  0.033  0.002  0.000  0.035
    9  0.055  0.002  0.000  0.057
   10  0.007  0.001  0.000  0.008
   11  0.075  0.003  0.000  0.078
   12  0.006  0.003  0.000  0.009
   13  0.027  0.002  0.000  0.029
   14  0.039  0.002  0.000  0.041
   15  0.025  0.003  0.000  0.028
   16  0.020  0.002  0.000  0.022
   17  0.059  0.002  0.000  0.061
   18  0.016  0.002  0.000  0.018
tot    0.548  0.039  0.003  0.589
 
band     7 # energy  -15.07611738 # occ.  2.00000000
 
ion      s      p      d    tot
    1  0.070  0.003  0.000  0.072
    2  0.013  0.001  0.000  0.015
    3  0.008  0.002  0.000  0.011
    4  0.045  0.002  0.000  0.047
    5  0.027  0.002  0.000  0.029
    6  0.020  0.003  0.000  0.023
    7  0.064  0.002  0.000  0.066
    8  0.017  0.001  0.000  0.019
    9  0.010  0.003  0.000  0.013
   10  0.048  0.003  0.000  0.051
   11  0.000  0.002  0.000  0.003
   12  0.042  0.001  0.000  0.043
   13  0.034  0.002  0.000  0.036
   14  0.001  0.002  0.000  0.003
   15  0.057  0.002  0.000  0.059
   16  0.056  0.003  0.000  0.059
   17  0.002  0.002  0.000  0.004
   18  0.035  0.001  0.000  0.036
tot    0.548  0.039  0.003  0.589
 
band     8 # energy  -12.94486950 # occ.  2.00000000
 
ion      s      p      d    tot
    1  0.026  0.003  0.000  0.029
    2  0.037  0.003  0.000  0.040
    3  0.036  0.003  0.000  0.039
    4  0.037  0.003  0.000  0.040
    5  0.036  0.003  0.000  0.039
    6  0.026  0.003  0.000  0.029
    7  0.036  0.003  0.000  0.039
    8  0.026  0.003  0.000  0.029
    9  0.037  0.003  0.000  0.040
   10  0.026  0.003  0.000  0.029
   11  0.037  0.003  0.000  0.040
   12  0.036  0.003  0.000  0.039
   13  0.037  0.003  0.000  0.040
   14  0.036  0.003  0.000  0.039
   15  0.026  0.003  0.000  0.029
   16  0.036  0.003  0.000  0.039
   17  0.026  0.003  0.000  0.029
   18  0.037  0.003  0.000  0.040
tot    0.592  0.052  0.006  0.651
 
band     9 # energy  -12.94486950 # occ.  2.00000000
 
ion      s      p      d    tot
    1  0.040  0.003  0.000  0.044
    2  0.029  0.003  0.000  0.032
    3  0.030  0.003  0.000  0.033
    4  0.029  0.003  0.000  0.032
    5  0.030  0.003  0.000  0.033
    6  0.040  0.003  0.000  0.044
    7  0.030  0.003  0.000  0.033
    8  0.040  0.003  0.000  0.044
    9  0.029  0.003  0.000  0.032
   10  0.040  0.003  0.000  0.044
   11  0.029  0.003  0.000  0.032
   12  0.030  0.003  0.000  0.033
   13  0.029  0.003  0.000  0.032
   14  0.030  0.003  0.000  0.033
   15  0.040  0.003  0.000  0.044
   16  0.030  0.003  0.000  0.033
   17  0.040  0.003  0.000  0.044
   18  0.029  0.003  0.000  0.032
tot    0.592  0.052  0.006  0.651
 
band    10 # energy  -12.94486937 # occ.  2.00000000
 
ion      s      p      d    tot
    1  0.034  0.003  0.000  0.037
    2  0.058  0.003  0.000  0.062
    3  0.007  0.003  0.000  0.010
    4  0.058  0.003  0.000  0.062
    5  0.007  0.003  0.000  0.010
    6  0.034  0.003  0.000  0.037
    7  0.007  0.003  0.000  0.010
    8  0.034  0.003  0.000  0.037
    9  0.058  0.003  0.000  0.062
   10  0.034  0.003  0.000  0.037
   11  0.058  0.003  0.000  0.062
   12  0.007  0.003  0.000  0.010
   13  0.058  0.003  0.000  0.062
   14  0.007  0.003  0.000  0.010
   15  0.034  0.003  0.000  0.037
   16  0.007  0.003  0.000  0.010
   17  0.034  0.003  0.000  0.037
   18  0.058  0.003  0.000  0.062
tot    0.592  0.052  0.006  0.651
 
band    11 # energy  -12.94486937 # occ.  2.00000000
 
ion      s      p      d    tot
    1  0.032  0.003  0.000  0.035
    2  0.008  0.003  0.000  0.011
    3  0.059  0.003  0.000  0.062
    4  0.008  0.003  0.000  0.011
    5  0.059  0.003  0.000  0.062
    6  0.032  0.003  0.000  0.035
    7  0.059  0.003  0.000  0.062
    8  0.032  0.003  0.000  0.035
    9  0.008  0.003  0.000  0.011
   10  0.032  0.003  0.000  0.035
   11  0.008  0.003  0.000  0.011
   12  0.059  0.003  0.000  0.062
   13  0.008  0.003  0.000  0.011
   14  0.059  0.003  0.000  0.062
   15  0.032  0.003  0.000  0.035
   16  0.059  0.003  0.000  0.062
   17  0.032  0.003  0.000  0.035
   18  0.008  0.003  0.000  0.011
tot    0.592  0.052  0.006  0.651
 
band    12 # energy  -10.92418661 # occ.  2.00000000
 
ion      s      p      d    tot
    1  0.040  0.000  0.000  0.041
    2  0.040  0.000  0.000  0.041
    3  0.040  0.000  0.000  0.041
    4  0.062  0.003  0.000  0.066
    5  0.062  0.003  0.000  0.066
    6  0.062  0.003  0.000  0.066
    7  0.003  0.004  0.001  0.009
    8  0.003  0.004  0.001  0.008
    9  0.003  0.004  0.001  0.009
   10  0.004  0.004  0.001  0.009
   11  0.004  0.004  0.001  0.009
   12  0.004  0.004  0.001  0.009
   13  0.063  0.003  0.000  0.066
   14  0.063  0.003  0.000  0.066
   15  0.063  0.003  0.000  0.066
   16  0.039  0.000  0.000  0.040
   17  0.039  0.000  0.000  0.040
   18  0.039  0.000  0.000  0.040
tot    0.637  0.047  0.007  0.691
 
band    13 # energy  -10.92418661 # occ.  2.00000000
 
ion      s      p      d    tot
    1  0.030  0.005  0.001  0.036
    2  0.031  0.005  0.001  0.036
    3  0.030  0.005  0.001  0.036
    4  0.008  0.002  0.000  0.011
    5  0.008  0.002  0.000  0.011
    6  0.008  0.002  0.000  0.011
    7  0.067  0.001  0.000  0.068
    8  0.067  0.001  0.000  0.068
    9  0.067  0.001  0.000  0.068
   10  0.067  0.001  0.000  0.068
   11  0.067  0.001  0.000  0.068
   12  0.067  0.001  0.000  0.068
   13  0.008  0.002  0.001  0.010
   14  0.008  0.002  0.001  0.010
   15  0.008  0.002  0.001  0.010
   16  0.031  0.005  0.001  0.037
   17  0.031  0.005  0.001  0.037
   18  0.031  0.005  0.001  0.037
tot    0.637  0.047  0.007  0.691
 
band    14 # energy  -10.92418661 # occ.  2.00000000
 
ion      s      p      d    tot
    1  0.028  0.005  0.001  0.033
    2  0.064  0.001  0.000  0.066
    3  0.014  0.002  0.000  0.016
    4  0.028  0.005  0.001  0.033
    5  0.064  0.001  0.000  0.066
    6  0.014  0.002  0.000  0.016
    7  0.028  0.005  0.001  0.033
    8  0.064  0.001  0.000  0.066
    9  0.014  0.002  0.000  0.016
   10  0.062  0.001  0.000  0.063
   11  0.035  0.005  0.001  0.040
   12  0.009  0.002  0.001  0.012
   13  0.061  0.001  0.000  0.062
   14  0.035  0.005  0.001  0.041
   15  0.010  0.002  0.001  0.012
   16  0.061  0.001  0.000  0.062
   17  0.035  0.005  0.001  0.041
   18  0.010  0.002  0.001  0.012
tot    0.637  0.047  0.007  0.691
 
band    15 # energy  -10.92418661 # occ.  2.00000000
 
ion      s      p      d    tot
    1  0.043  0.000  0.000  0.044
    2  0.007  0.004  0.001  0.011
    3  0.057  0.004  0.000  0.060
    4  0.043  0.000  0.000  0.044
    5  0.007  0.004  0.001  0.011
    6  0.057  0.004  0.000  0.060
    7  0.043  0.000  0.000  0.044
    8  0.006  0.004  0.001  0.011
    9  0.057  0.004  0.000  0.060
   10  0.009  0.004  0.001  0.014
   11  0.035  0.001  0.000  0.036
   12  0.061  0.003  0.000  0.064
   13  0.009  0.004  0.001  0.014
   14  0.035  0.001  0.000  0.036
   15  0.061  0.003  0.000  0.064
   16  0.009  0.004  0.001  0.014
   17  0.035  0.001  0.000  0.036
   18  0.061  0.003  0.000  0.065
tot    0.637  0.047  0.007  0.691
 
band    16 # energy  -10.92418656 # occ.  2.00000000
 
ion      s      p      d    tot
    1  0.067  0.001  0.000  0.069
    2  0.027  0.005  0.001  0.033
    3  0.011  0.002  0.000  0.014
    4  0.011  0.002  0.000  0.014
    5  0.067  0.001  0.000  0.069
    6  0.027  0.005  0.001  0.033
    7  0.027  0.005  0.001  0.033
    8  0.011  0.002  0.000  0.014
    9  0.067  0.001  0.000  0.069
   10  0.007  0.002  0.001  0.010
   11  0.035  0.005  0.001  0.040
   12  0.064  0.001  0.000  0.065
   13  0.064  0.001  0.000  0.065
   14  0.007  0.002  0.001  0.010
   15  0.035  0.005  0.001  0.040
   16  0.035  0.005  0.001  0.040
   17  0.064  0.001  0.000  0.065
   18  0.007  0.002  0.001  0.010
tot    0.637  0.047  0.007  0.691
 
band    17 # energy  -10.92418656 # occ.  2.00000000
 
ion      s      p      d    tot
    1  0.003  0.004  0.001  0.008
    2  0.043  0.000  0.000  0.044
    3  0.059  0.004  0.000  0.063
    4  0.059  0.004  0.000  0.063
    5  0.003  0.004  0.001  0.008
    6  0.043  0.000  0.000  0.044
    7  0.043  0.000  0.000  0.044
    8  0.059  0.004  0.000  0.063
    9  0.003  0.004  0.001  0.008
   10  0.064  0.003  0.000  0.067
   11  0.036  0.000  0.000  0.037
   12  0.006  0.004  0.001  0.011
   13  0.006  0.004  0.001  0.011
   14  0.064  0.003  0.000  0.067
   15  0.036  0.000  0.000  0.037
   16  0.036  0.000  0.000  0.037
   17  0.006  0.004  0.001  0.011
   18  0.064  0.003  0.000  0.067
tot    0.637  0.047  0.007  0.691
 
band    18 # energy  -10.18692281 # occ.  2.00000000
 
ion      s      p      d    tot
    1  0.032  0.003  0.000  0.034
    2  0.032  0.003  0.000  0.034
    3  0.032  0.003  0.000  0.034
    4  0.032  0.003  0.000  0.034
    5  0.032  0.003  0.000  0.034
    6  0.032  0.003  0.000  0.034
    7  0.032  0.003  0.000  0.034
    8  0.032  0.003  0.000  0.034
    9  0.032  0.003  0.000  0.034
   10  0.032  0.003  0.000  0.034
   11  0.032  0.003  0.000  0.034
   12  0.032  0.003  0.000  0.034
   13  0.032  0.003  0.000  0.034
   14  0.032  0.003  0.000  0.034
   15  0.032  0.003  0.000  0.034
   16  0.032  0.003  0.000  0.034
   17  0.032  0.003  0.000  0.034
   18  0.032  0.003  0.000  0.034
tot    0.568  0.050  0.001  0.619
 
band    19 # energy   -7.35802477 # occ.  2.00000000
 
ion      s      p      d    tot
    1  0.000  0.021  0.001  0.022
    2  0.000  0.021  0.001  0.022
    3  0.000  0.021  0.001  0.022
    4  0.000  0.021  0.001  0.022
    5  0.000  0.021  0.001  0.022
    6  0.000  0.021  0.001  0.022
    7  0.000  0.021  0.001  0.022
    8  0.000  0.021  0.001  0.022
    9  0.000  0.021  0.001  0.022
   10  0.000  0.021  0.001  0.022
   11  0.000  0.021  0.001  0.022
   12  0.000  0.021  0.001  0.022
   13  0.000  0.021  0.001  0.022
   14  0.000  0.021  0.001  0.022
   15  0.000  0.021  0.001  0.022
   16  0.000  0.021  0.001  0.022
   17  0.000  0.021  0.001  0.022
   18  0.000  0.021  0.001  0.022
tot    0.000  0.378  0.013  0.391
 
band    20 # energy   -7.35802477 # occ.  2.00000000
 
ion      s      p      d    tot
    1  0.000  0.021  0.001  0.022
    2  0.000  0.021  0.001  0.022
    3  0.000  0.021  0.001  0.022
    4  0.000  0.021  0.001  0.022
    5  0.000  0.021  0.001  0.022
    6  0.000  0.021  0.001  0.022
    7  0.000  0.021  0.001  0.022
    8  0.000  0.021  0.001  0.022
    9  0.000  0.021  0.001  0.022
   10  0.000  0.021  0.001  0.022
   11  0.000  0.021  0.001  0.022
   12  0.000  0.021  0.001  0.022
   13  0.000  0.021  0.001  0.022
   14  0.000  0.021  0.001  0.022
   15  0.000  0.021  0.001  0.022
   16  0.000  0.021  0.001  0.022
   17  0.000  0.021  0.001  0.022
   18  0.000  0.021  0.001  0.022
tot    0.000  0.378  0.013  0.391
 
band    21 # energy   -6.61806932 # occ.  2.00000000
 
ion      s      p      d    tot
    1  0.001  0.013  0.001  0.015
    2  0.000  0.016  0.000  0.017
    3  0.004  0.032  0.000  0.036
    4  0.001  0.013  0.001  0.015
    5  0.000  0.016  0.000  0.017
    6  0.004  0.032  0.000  0.036
    7  0.001  0.013  0.001  0.015
    8  0.000  0.017  0.000  0.017
    9  0.004  0.032  0.000  0.036
   10  0.002  0.029  0.000  0.032
   11  0.000  0.009  0.000  0.009
   12  0.003  0.023  0.001  0.027
   13  0.002  0.029  0.000  0.032
   14  0.000  0.009  0.000  0.009
   15  0.003  0.023  0.001  0.027
   16  0.002  0.029  0.000  0.032
   17  0.000  0.009  0.000  0.009
   18  0.003  0.023  0.001  0.027
tot    0.033  0.369  0.008  0.409
 
band    22 # energy   -6.61806932 # occ.  2.00000000
 
ion      s      p      d    tot
    1  0.002  0.028  0.000  0.031
    2  0.003  0.024  0.001  0.028
    3  0.000  0.009  0.000  0.009
    4  0.002  0.028  0.000  0.031
    5  0.003  0.024  0.001  0.028
    6  0.000  0.009  0.000  0.009
    7  0.002  0.028  0.000  0.031
    8  0.003  0.024  0.001  0.028
    9  0.000  0.009  0.000  0.009
   10  0.001  0.012  0.001  0.014
   11  0.004  0.032  0.000  0.036
   12  0.001  0.018  0.000  0.019
   13  0.001  0.012  0.001  0.014
   14  0.004  0.032  0.000  0.036
   15  0.001  0.018  0.000  0.019
   16  0.001  0.012  0.001  0.014
   17  0.004  0.032  0.000  0.036
   18  0.001  0.018  0.000  0.019
tot    0.033  0.369  0.008  0.409
 
band    23 # energy   -6.61806932 # occ.  2.00000000
 
ion      s      p      d    tot
    1  0.003  0.031  0.000  0.034
    2  0.003  0.031  0.000  0.034
    3  0.003  0.031  0.000  0.034
    4  0.000  0.010  0.000  0.010
    5  0.000  0.010  0.000  0.010
    6  0.000  0.010  0.000  0.010
    7  0.003  0.021  0.001  0.024
    8  0.003  0.021  0.001  0.024
    9  0.003  0.021  0.001  0.024
   10  0.002  0.015  0.001  0.017
   11  0.002  0.015  0.001  0.017
   12  0.002  0.015  0.001  0.017
   13  0.000  0.014  0.000  0.015
   14  0.000  0.014  0.000  0.015
   15  0.000  0.014  0.000  0.015
   16  0.003  0.033  0.000  0.036
   17  0.003  0.033  0.000  0.036
   18  0.003  0.033  0.000  0.036
tot    0.033  0.369  0.008  0.409
 
band    24 # energy   -6.61806932 # occ.  2.00000000
 
ion      s      p      d    tot
    1  0.001  0.010  0.001  0.012
    2  0.001  0.010  0.001  0.012
    3  0.001  0.010  0.001  0.012
    4  0.004  0.031  0.000  0.035
    5  0.004  0.031  0.000  0.035
    6  0.004  0.031  0.000  0.035
    7  0.001  0.020  0.000  0.021
    8  0.001  0.020  0.000  0.021
    9  0.001  0.020  0.000  0.021
   10  0.002  0.026  0.000  0.028
   11  0.002  0.026  0.000  0.028
   12  0.002  0.026  0.000  0.028
   13  0.003  0.027  0.000  0.031
   14  0.003  0.027  0.000  0.031
   15  0.003  0.027  0.000  0.031
   16  0.000  0.008  0.000  0.009
   17  0.000  0.008  0.000  0.009
   18  0.000  0.008  0.000  0.009
tot    0.033  0.369  0.008  0.409
 
band    25 # energy   -6.61806901 # occ.  2.00000000
 
ion      s      p      d    tot
    1  0.001  0.012  0.000  0.013
    2  0.003  0.027  0.000  0.031
    3  0.001  0.022  0.000  0.024
    4  0.001  0.022  0.000  0.024
    5  0.001  0.012  0.000  0.013
    6  0.003  0.027  0.000  0.031
    7  0.003  0.027  0.000  0.031
    8  0.001  0.022  0.000  0.024
    9  0.001  0.012  0.000  0.013
   10  0.001  0.012  0.000  0.013
   11  0.002  0.023  0.000  0.025
   12  0.003  0.027  0.000  0.030
   13  0.003  0.027  0.000  0.030
   14  0.001  0.012  0.000  0.013
   15  0.002  0.023  0.000  0.025
   16  0.002  0.023  0.000  0.025
   17  0.003  0.027  0.000  0.030
   18  0.001  0.012  0.000  0.013
tot    0.033  0.369  0.008  0.409
 
band    26 # energy   -6.61806901 # occ.  2.00000000
 
ion      s      p      d    tot
    1  0.003  0.029  0.000  0.032
    2  0.000  0.014  0.000  0.014
    3  0.002  0.019  0.001  0.022
    4  0.002  0.019  0.001  0.022
    5  0.003  0.029  0.000  0.032
    6  0.000  0.014  0.000  0.014
    7  0.000  0.014  0.000  0.014
    8  0.002  0.019  0.001  0.022
    9  0.003  0.029  0.000  0.032
   10  0.003  0.029  0.000  0.033
   11  0.002  0.018  0.001  0.021
   12  0.000  0.014  0.000  0.015
   13  0.000  0.014  0.000  0.015
   14  0.003  0.029  0.000  0.033
   15  0.002  0.018  0.001  0.021
   16  0.002  0.018  0.001  0.021
   17  0.000  0.014  0.000  0.015
   18  0.003  0.029  0.000  0.033
tot    0.033  0.369  0.008  0.409
 
band    27 # energy   -4.99233404 # occ.  2.00000000
 
ion      s      p      d    tot
    1  0.002  0.014  0.000  0.016
    2  0.003  0.018  0.000  0.021
    3  0.009  0.035  0.000  0.044
    4  0.003  0.018  0.000  0.021
    5  0.009  0.035  0.000  0.044
    6  0.002  0.014  0.000  0.016
    7  0.009  0.035  0.000  0.044
    8  0.002  0.014  0.000  0.016
    9  0.003  0.018  0.000  0.021
   10  0.002  0.013  0.000  0.015
   11  0.003  0.018  0.000  0.022
   12  0.009  0.034  0.000  0.044
   13  0.003  0.018  0.000  0.022
   14  0.009  0.034  0.000  0.044
   15  0.002  0.013  0.000  0.015
   16  0.009  0.034  0.000  0.044
   17  0.002  0.013  0.000  0.015
   18  0.003  0.018  0.000  0.022
tot    0.084  0.396  0.004  0.484
 
band    28 # energy   -4.99233404 # occ.  2.00000000
 
ion      s      p      d    tot
    1  0.008  0.030  0.000  0.038
    2  0.006  0.026  0.000  0.033
    3  0.000  0.009  0.000  0.010
    4  0.006  0.026  0.000  0.033
    5  0.000  0.009  0.000  0.010
    6  0.008  0.030  0.000  0.038
    7  0.000  0.009  0.000  0.010
    8  0.008  0.030  0.000  0.038
    9  0.006  0.026  0.000  0.033
   10  0.008  0.031  0.000  0.039
   11  0.006  0.026  0.000  0.032
   12  0.000  0.010  0.000  0.010
   13  0.006  0.026  0.000  0.032
   14  0.000  0.010  0.000  0.010
   15  0.008  0.031  0.000  0.039
   16  0.000  0.010  0.000  0.010
   17  0.008  0.031  0.000  0.039
   18  0.006  0.026  0.000  0.032
tot    0.084  0.396  0.004  0.484
 
band    29 # energy   -4.99233398 # occ.  2.00000000
 
ion      s      p      d    tot
    1  0.008  0.032  0.000  0.041
    2  0.001  0.011  0.000  0.012
    3  0.005  0.023  0.000  0.028
    4  0.001  0.011  0.000  0.012
    5  0.005  0.023  0.000  0.028
    6  0.008  0.032  0.000  0.041
    7  0.005  0.023  0.000  0.028
    8  0.008  0.032  0.000  0.041
    9  0.001  0.011  0.000  0.012
   10  0.008  0.032  0.000  0.040
   11  0.001  0.011  0.000  0.012
   12  0.005  0.023  0.000  0.029
   13  0.001  0.011  0.000  0.012
   14  0.005  0.023  0.000  0.029
   15  0.008  0.032  0.000  0.040
   16  0.005  0.023  0.000  0.029
   17  0.008  0.032  0.000  0.040
   18  0.001  0.011  0.000  0.012
tot    0.084  0.396  0.004  0.484
 
band    30 # energy   -4.99233398 # occ.  2.00000000
 
ion      s      p      d    tot
    1  0.001  0.012  0.000  0.013
    2  0.008  0.033  0.000  0.042
    3  0.004  0.021  0.000  0.026
    4  0.008  0.033  0.000  0.042
    5  0.004  0.021  0.000  0.026
    6  0.001  0.012  0.000  0.013
    7  0.004  0.021  0.000  0.026
    8  0.001  0.012  0.000  0.013
    9  0.008  0.033  0.000  0.042
   10  0.001  0.012  0.000  0.014
   11  0.009  0.033  0.000  0.042
   12  0.004  0.021  0.000  0.025
   13  0.009  0.033  0.000  0.042
   14  0.004  0.021  0.000  0.025
   15  0.001  0.012  0.000  0.014
   16  0.004  0.021  0.000  0.025
   17  0.001  0.012  0.000  0.014
   18  0.009  0.033  0.000  0.042
tot    0.084  0.396  0.004  0.484
 
band    31 # energy   -4.54955867 # occ.  2.00000000
 
ion      s      p      d    tot
    1  0.000  0.044  0.002  0.046
    2  0.000  0.032  0.001  0.033
    3  0.000  0.008  0.001  0.009
    4  0.000  0.008  0.001  0.009
    5  0.000  0.044  0.002  0.046
    6  0.000  0.032  0.001  0.033
    7  0.000  0.032  0.001  0.033
    8  0.000  0.008  0.001  0.009
    9  0.000  0.044  0.002  0.046
   10  0.000  0.013  0.000  0.014
   11  0.000  0.049  0.002  0.050
   12  0.000  0.023  0.001  0.024
   13  0.000  0.023  0.001  0.024
   14  0.000  0.013  0.000  0.014
   15  0.000  0.049  0.002  0.050
   16  0.000  0.049  0.002  0.050
   17  0.000  0.023  0.001  0.024
   18  0.000  0.013  0.000  0.014
tot    0.000  0.509  0.019  0.528
 
band    32 # energy   -4.54955867 # occ.  2.00000000
 
ion      s      p      d    tot
    1  0.000  0.012  0.000  0.013
    2  0.000  0.024  0.001  0.026
    3  0.000  0.048  0.002  0.050
    4  0.000  0.048  0.002  0.050
    5  0.000  0.012  0.000  0.013
    6  0.000  0.024  0.001  0.026
    7  0.000  0.024  0.001  0.026
    8  0.000  0.048  0.002  0.050
    9  0.000  0.012  0.000  0.013
   10  0.000  0.043  0.002  0.045
   11  0.000  0.008  0.001  0.008
   12  0.000  0.034  0.001  0.035
   13  0.000  0.034  0.001  0.035
   14  0.000  0.043  0.002  0.045
   15  0.000  0.008  0.001  0.008
   16  0.000  0.008  0.001  0.008
   17  0.000  0.034  0.001  0.035
   18  0.000  0.043  0.002  0.045
tot    0.000  0.509  0.019  0.528
 
band    33 # energy   -4.54955798 # occ.  2.00000000
 
ion      s      p      d    tot
    1  0.000  0.023  0.001  0.024
    2  0.000  0.021  0.001  0.022
    3  0.000  0.041  0.001  0.042
    4  0.000  0.022  0.001  0.023
    5  0.000  0.021  0.001  0.022
    6  0.000  0.041  0.001  0.043
    7  0.000  0.022  0.001  0.023
    8  0.000  0.021  0.001  0.022
    9  0.000  0.041  0.001  0.043
   10  0.000  0.028  0.001  0.029
   11  0.000  0.017  0.001  0.018
   12  0.000  0.039  0.001  0.041
   13  0.000  0.028  0.001  0.029
   14  0.000  0.017  0.001  0.018
   15  0.000  0.040  0.001  0.041
   16  0.000  0.027  0.001  0.028
   17  0.000  0.017  0.001  0.018
   18  0.000  0.040  0.001  0.041
tot    0.000  0.509  0.019  0.528
 
band    34 # energy   -4.54955798 # occ.  2.00000000
 
ion      s      p      d    tot
    1  0.000  0.034  0.001  0.035
    2  0.000  0.035  0.001  0.037
    3  0.000  0.015  0.001  0.016
    4  0.000  0.034  0.001  0.035
    5  0.000  0.035  0.001  0.037
    6  0.000  0.015  0.001  0.016
    7  0.000  0.034  0.001  0.035
    8  0.000  0.035  0.001  0.036
    9  0.000  0.016  0.001  0.016
   10  0.000  0.029  0.001  0.030
   11  0.000  0.039  0.001  0.041
   12  0.000  0.017  0.001  0.017
   13  0.000  0.029  0.001  0.030
   14  0.000  0.039  0.001  0.041
   15  0.000  0.017  0.001  0.018
   16  0.000  0.028  0.001  0.030
   17  0.000  0.039  0.001  0.040
   18  0.000  0.017  0.001  0.018
tot    0.000  0.509  0.019  0.528
 
band    35 # energy   -4.54955798 # occ.  2.00000000
 
ion      s      p      d    tot
    1  0.000  0.015  0.000  0.016
    2  0.000  0.016  0.000  0.016
    3  0.000  0.016  0.000  0.016
    4  0.000  0.014  0.001  0.015
    5  0.000  0.014  0.001  0.015
    6  0.000  0.014  0.001  0.015
    7  0.000  0.055  0.002  0.057
    8  0.000  0.055  0.002  0.057
    9  0.000  0.055  0.002  0.056
   10  0.000  0.006  0.001  0.007
   11  0.000  0.007  0.001  0.007
   12  0.000  0.007  0.001  0.008
   13  0.000  0.025  0.001  0.026
   14  0.000  0.025  0.001  0.026
   15  0.000  0.026  0.001  0.026
   16  0.000  0.053  0.002  0.055
   17  0.000  0.053  0.002  0.055
   18  0.000  0.052  0.002  0.054
tot    0.000  0.509  0.019  0.528
 
band    36 # energy   -4.54955798 # occ.  2.00000000
 
ion      s      p      d    tot
    1  0.000  0.041  0.002  0.042
    2  0.000  0.041  0.002  0.043
    3  0.000  0.041  0.002  0.043
    4  0.000  0.043  0.001  0.044
    5  0.000  0.042  0.001  0.044
    6  0.000  0.042  0.001  0.043
    7  0.000  0.001  0.000  0.002
    8  0.000  0.001  0.000  0.002
    9  0.000  0.001  0.000  0.002
   10  0.000  0.049  0.002  0.051
   11  0.000  0.050  0.002  0.051
   12  0.000  0.050  0.002  0.052
   13  0.000  0.032  0.001  0.033
   14  0.000  0.031  0.001  0.033
   15  0.000  0.031  0.001  0.032
   16  0.000  0.004  0.000  0.004
   17  0.000  0.004  0.000  0.004
   18  0.000  0.004  0.000  0.004
tot    0.000  0.509  0.019  0.528
 
band    37 # energy   -3.77076341 # occ.  2.00000000
 
ion      s      p      d    tot
    1  0.007  0.018  0.000  0.025
    2  0.007  0.018  0.000  0.025
    3  0.007  0.018  0.000  0.025
    4  0.006  0.039  0.000  0.044
    5  0.006  0.039  0.000  0.044
    6  0.006  0.039  0.000  0.044
    7  0.000  0.014  0.000  0.014
    8  0.000  0.014  0.000  0.014
    9  0.000  0.014  0.000  0.014
   10  0.000  0.019  0.000  0.019
   11  0.000  0.019  0.000  0.019
   12  0.000  0.019  0.000  0.019
   13  0.007  0.038  0.000  0.046
   14  0.007  0.038  0.000  0.046
   15  0.007  0.038  0.000  0.046
   16  0.006  0.013  0.000  0.020
   17  0.006  0.013  0.000  0.020
   18  0.006  0.013  0.000  0.020
tot    0.079  0.423  0.002  0.503
 
band    38 # energy   -3.77076341 # occ.  2.00000000
 
ion      s      p      d    tot
    1  0.002  0.029  0.000  0.031
    2  0.002  0.029  0.000  0.031
    3  0.002  0.029  0.000  0.031
    4  0.003  0.008  0.000  0.011
    5  0.003  0.008  0.000  0.011
    6  0.003  0.008  0.000  0.011
    7  0.009  0.033  0.000  0.042
    8  0.009  0.033  0.000  0.042
    9  0.009  0.033  0.000  0.042
   10  0.009  0.028  0.000  0.037
   11  0.009  0.028  0.000  0.037
   12  0.009  0.028  0.000  0.037
   13  0.002  0.009  0.000  0.010
   14  0.002  0.009  0.000  0.010
   15  0.002  0.009  0.000  0.010
   16  0.003  0.034  0.000  0.036
   17  0.003  0.034  0.000  0.036
   18  0.003  0.034  0.000  0.036
tot    0.079  0.423  0.002  0.503
 
band    39 # energy   -3.77076341 # occ.  2.00000000
 
ion      s      p      d    tot
    1  0.004  0.015  0.000  0.019
    2  0.002  0.024  0.000  0.026
    3  0.007  0.032  0.000  0.039
    4  0.004  0.015  0.000  0.019
    5  0.002  0.024  0.000  0.026
    6  0.007  0.032  0.000  0.039
    7  0.004  0.015  0.000  0.019
    8  0.002  0.024  0.000  0.026
    9  0.007  0.032  0.000  0.039
   10  0.002  0.015  0.000  0.017
   11  0.007  0.023  0.000  0.030
   12  0.004  0.032  0.000  0.036
   13  0.002  0.015  0.000  0.017
   14  0.007  0.023  0.000  0.030
   15  0.004  0.032  0.000  0.036
   16  0.002  0.015  0.000  0.017
   17  0.007  0.023  0.000  0.030
   18  0.004  0.032  0.000  0.036
tot    0.079  0.423  0.002  0.503
 
band    40 # energy   -3.77076341 # occ.  2.00000000
 
ion      s      p      d    tot
    1  0.004  0.032  0.000  0.037
    2  0.007  0.023  0.000  0.030
    3  0.002  0.015  0.000  0.017
    4  0.004  0.032  0.000  0.037
    5  0.007  0.023  0.000  0.030
    6  0.002  0.015  0.000  0.017
    7  0.004  0.032  0.000  0.037
    8  0.007  0.023  0.000  0.030
    9  0.002  0.015  0.000  0.017
   10  0.007  0.032  0.000  0.039
   11  0.002  0.024  0.000  0.026
   12  0.004  0.015  0.000  0.020
   13  0.007  0.032  0.000  0.039
   14  0.002  0.024  0.000  0.026
   15  0.004  0.015  0.000  0.020
   16  0.007  0.032  0.000  0.039
   17  0.002  0.024  0.000  0.026
   18  0.004  0.015  0.000  0.020
tot    0.079  0.423  0.002  0.503
 
band    41 # energy   -3.77076322 # occ.  2.00000000
 
ion      s      p      d    tot
    1  0.003  0.012  0.000  0.015
    2  0.008  0.031  0.000  0.039
    3  0.002  0.027  0.000  0.030
    4  0.002  0.027  0.000  0.030
    5  0.003  0.012  0.000  0.015
    6  0.008  0.031  0.000  0.039
    7  0.008  0.031  0.000  0.039
    8  0.002  0.027  0.000  0.030
    9  0.003  0.012  0.000  0.015
   10  0.008  0.027  0.000  0.035