unknown system                          
           1
    10.820678    0.000000    0.000000
    -5.410339    9.370982    0.000000
     0.000000    0.000000   16.000000
   H 
    18
Direct configuration=     1
   0.22222222  0.11111111  0.45634314
   0.55555556  0.11111111  0.45634314
   0.88888889  0.11111111  0.45634314
   0.22222222  0.44444444  0.45634314
   0.55555556  0.44444444  0.45634314
   0.88888889  0.44444444  0.45634314
   0.22222222  0.77777778  0.45634314
   0.55555556  0.77777778  0.45634314
   0.88888889  0.77777778  0.45634314
   0.11111111  0.22222222  0.54365686
   0.44444444  0.22222222  0.54365686
   0.77777778  0.22222222  0.54365686
   0.11111111  0.55555556  0.54365686
   0.44444444  0.55555556  0.54365686
   0.77777778  0.55555556  0.54365686
   0.11111111  0.88888889  0.54365686
   0.44444444  0.88888889  0.54365686
   0.77777778  0.88888889  0.54365686
