   2   2   1   0
  0.1172237E+03  0.4113367E-09  0.4113367E-09  0.1600000E-08  0.5000000E-15
  1.000000000000000E-004
  CAR 
 unknown system                          
      8.25100203    -14.60405123 6001     -2.24327659      1.00000000
    -14.604  0.0000E+00  0.0000E+00
    -14.600  0.0000E+00  0.0000E+00
    -14.596  0.0000E+00  0.0000E+00
    -14.593  0.0000E+00  0.0000E+00
    -14.589  0.0000E+00  0.0000E+00
    -14.585  0.0000E+00  0.0000E+00
    -14.581  0.0000E+00  0.0000E+00
    -14.577  0.0000E+00  0.0000E+00
    -14.574  0.0000E+00  0.0000E+00
    -14.570  0.0000E+00  0.0000E+00
    -14.566  0.0000E+00  0.0000E+00
    -14.562  0.0000E+00  0.0000E+00
    -14.558  0.0000E+00  0.0000E+00
    -14.555  0.0000E+00  0.0000E+00
    -14.551  0.0000E+00  0.0000E+00
    -14.547  0.0000E+00  0.0000E+00
    -14.543  0.0000E+00  0.0000E+00
    -14.539  0.0000E+00  0.0000E+00
    -14.535  0.0000E+00  0.0000E+00
    -14.532  0.0000E+00  0.0000E+00
    -14.528  0.0000E+00  0.0000E+00
    -14.524  0.0000E+00  0.0000E+00
    -14.520  0.0000E+00  0.0000E+00
    -14.516  0.0000E+00  0.0000E+00
    -14.513  0.0000E+00  0.0000E+00
    -14.509  0.0000E+00  0.0000E+00
    -14.505  0.0000E+00  0.0000E+00
    -14.501  0.0000E+00  0.0000E+00
    -14.497  0.0000E+00  0.0000E+00
    -14.494  0.0000E+00  0.0000E+00
    -14.490  0.0000E+00  0.0000E+00
    -14.486  0.0000E+00  0.0000E+00
    -14.482  0.0000E+00  0.0000E+00
    -14.478  0.0000E+00  0.0000E+00
    -14.475  0.0000E+00  0.0000E+00
    -14.471  0.0000E+00  0.0000E+00
    -14.467  0.0000E+00  0.0000E+00
    -14.463  0.0000E+00  0.0000E+00
    -14.459  0.0000E+00  0.0000E+00
    -14.455  0.0000E+00  0.0000E+00
    -14.452  0.0000E+00  0.0000E+00
    -14.448  0.0000E+00  0.0000E+00
    -14.444  0.0000E+00  0.0000E+00
    -14.440  0.0000E+00  0.0000E+00
    -14.436  0.0000E+00  0.0000E+00
    -14.433  0.0000E+00  0.0000E+00
    -14.429  0.0000E+00  0.0000E+00
    -14.425  0.0000E+00  0.0000E+00
    -14.421  0.0000E+00  0.0000E+00
    -14.417  0.0000E+00  0.0000E+00
    -14.414  0.0000E+00  0.0000E+00
    -14.410  0.0000E+00  0.0000E+00
    -14.406  0.0000E+00  0.0000E+00
    -14.402  0.0000E+00  0.0000E+00
    -14.398  0.0000E+00  0.0000E+00
    -14.395  0.0000E+00  0.0000E+00
    -14.391  0.0000E+00  0.0000E+00
    -14.387  0.0000E+00  0.0000E+00
    -14.383  0.0000E+00  0.0000E+00
    -14.379  0.0000E+00  0.0000E+00
    -14.376  0.0000E+00  0.0000E+00
    -14.372  0.0000E+00  0.0000E+00
    -14.368  0.0000E+00  0.0000E+00
    -14.364  0.0000E+00  0.0000E+00
    -14.360  0.0000E+00  0.0000E+00
    -14.356  0.0000E+00  0.0000E+00
    -14.353  0.0000E+00  0.0000E+00
    -14.349  0.0000E+00  0.0000E+00
    -14.345  0.0000E+00  0.0000E+00
    -14.341  0.0000E+00  0.0000E+00
    -14.337  0.0000E+00  0.0000E+00
    -14.334  0.0000E+00  0.0000E+00
    -14.330  0.0000E+00  0.0000E+00
    -14.326  0.0000E+00  0.0000E+00
    -14.322  0.0000E+00  0.0000E+00
    -14.318  0.0000E+00  0.0000E+00
    -14.315  0.0000E+00  0.0000E+00
    -14.311  0.0000E+00  0.0000E+00
    -14.307  0.0000E+00  0.0000E+00
    -14.303  0.0000E+00  0.0000E+00
    -14.299  0.0000E+00  0.0000E+00
    -14.296  0.0000E+00  0.0000E+00
    -14.292  0.0000E+00  0.0000E+00
    -14.288  0.0000E+00  0.0000E+00
    -14.284  0.0000E+00  0.0000E+00
    -14.280  0.0000E+00  0.0000E+00
    -14.276  0.0000E+00  0.0000E+00
    -14.273  0.0000E+00  0.0000E+00
    -14.269  0.0000E+00  0.0000E+00
    -14.265  0.0000E+00  0.0000E+00
    -14.261  0.0000E+00  0.0000E+00
    -14.257  0.0000E+00  0.0000E+00
    -14.254  0.0000E+00  0.0000E+00
    -14.250  0.0000E+00  0.0000E+00
    -14.246  0.0000E+00  0.0000E+00
    -14.242  0.0000E+00  0.0000E+00
    -14.238  0.0000E+00  0.0000E+00
    -14.235  0.0000E+00  0.0000E+00
    -14.231  0.0000E+00  0.0000E+00
    -14.227  0.0000E+00  0.0000E+00
    -14.223  0.0000E+00  0.0000E+00
    -14.219  0.0000E+00  0.0000E+00
    -14.216  0.0000E+00  0.0000E+00
    -14.212  0.0000E+00  0.0000E+00
    -14.208  0.0000E+00  0.0000E+00
    -14.204  0.0000E+00  0.0000E+00
    -14.200  0.0000E+00  0.0000E+00
    -14.196  0.0000E+00  0.0000E+00
    -14.193  0.0000E+00  0.0000E+00
    -14.189  0.0000E+00  0.0000E+00
    -14.185  0.0000E+00  0.0000E+00
    -14.181  0.0000E+00  0.0000E+00
    -14.177  0.0000E+00  0.0000E+00
    -14.174  0.0000E+00  0.0000E+00
    -14.170  0.0000E+00  0.0000E+00
    -14.166  0.0000E+00  0.0000E+00
    -14.162  0.0000E+00  0.0000E+00
    -14.158  0.0000E+00  0.0000E+00
    -14.155  0.0000E+00  0.0000E+00
    -14.151  0.0000E+00  0.0000E+00
    -14.147  0.0000E+00  0.0000E+00
    -14.143  0.0000E+00  0.0000E+00
    -14.139  0.0000E+00  0.0000E+00
    -14.136  0.0000E+00  0.0000E+00
    -14.132  0.0000E+00  0.0000E+00
    -14.128  0.0000E+00  0.0000E+00
    -14.124  0.0000E+00  0.0000E+00
    -14.120  0.0000E+00  0.0000E+00
    -14.116  0.0000E+00  0.0000E+00
    -14.113  0.0000E+00  0.0000E+00
    -14.109  0.0000E+00  0.0000E+00
    -14.105  0.0000E+00  0.0000E+00
    -14.101  0.0000E+00  0.0000E+00
    -14.097  0.0000E+00  0.0000E+00
    -14.094  0.0000E+00  0.0000E+00
    -14.090  0.0000E+00  0.0000E+00
    -14.086  0.0000E+00  0.0000E+00
    -14.082  0.0000E+00  0.0000E+00
    -14.078  0.0000E+00  0.0000E+00
    -14.075  0.0000E+00  0.0000E+00
    -14.071  0.0000E+00  0.0000E+00
    -14.067  0.0000E+00  0.0000E+00
    -14.063  0.0000E+00  0.0000E+00
    -14.059  0.0000E+00  0.0000E+00
    -14.056  0.0000E+00  0.0000E+00
    -14.052  0.0000E+00  0.0000E+00
    -14.048  0.0000E+00  0.0000E+00
    -14.044  0.0000E+00  0.0000E+00
    -14.040  0.0000E+00  0.0000E+00
    -14.036  0.0000E+00  0.0000E+00
    -14.033  0.0000E+00  0.0000E+00
    -14.029  0.0000E+00  0.0000E+00
    -14.025  0.0000E+00  0.0000E+00
    -14.021  0.0000E+00  0.0000E+00
    -14.017  0.0000E+00  0.0000E+00
    -14.014  0.0000E+00  0.0000E+00
    -14.010  0.0000E+00  0.0000E+00
    -14.006  0.0000E+00  0.0000E+00
    -14.002  0.0000E+00  0.0000E+00
    -13.998  0.0000E+00  0.0000E+00
    -13.995  0.0000E+00  0.0000E+00
    -13.991  0.0000E+00  0.0000E+00
    -13.987  0.0000E+00  0.0000E+00
    -13.983  0.0000E+00  0.0000E+00
    -13.979  0.0000E+00  0.0000E+00
    -13.976  0.0000E+00  0.0000E+00
    -13.972  0.0000E+00  0.0000E+00
    -13.968  0.0000E+00  0.0000E+00
    -13.964  0.0000E+00  0.0000E+00
    -13.960  0.0000E+00  0.0000E+00
    -13.956  0.0000E+00  0.0000E+00
    -13.953  0.0000E+00  0.0000E+00
    -13.949  0.0000E+00  0.0000E+00
    -13.945  0.0000E+00  0.0000E+00
    -13.941  0.0000E+00  0.0000E+00
    -13.937  0.0000E+00  0.0000E+00
    -13.934  0.0000E+00  0.0000E+00
    -13.930  0.0000E+00  0.0000E+00
    -13.926  0.0000E+00  0.0000E+00
    -13.922  0.0000E+00  0.0000E+00
    -13.918  0.0000E+00  0.0000E+00
    -13.915  0.0000E+00  0.0000E+00
    -13.911  0.0000E+00  0.0000E+00
    -13.907  0.0000E+00  0.0000E+00
    -13.903  0.0000E+00  0.0000E+00
    -13.899  0.0000E+00  0.0000E+00
    -13.896  0.0000E+00  0.0000E+00
    -13.892  0.0000E+00  0.0000E+00
    -13.888  0.0000E+00  0.0000E+00
    -13.884  0.0000E+00  0.0000E+00
    -13.880  0.0000E+00  0.0000E+00
    -13.876  0.0000E+00  0.0000E+00
    -13.873  0.0000E+00  0.0000E+00
    -13.869  0.0000E+00  0.0000E+00
    -13.865  0.0000E+00  0.0000E+00
    -13.861  0.0000E+00  0.0000E+00
    -13.857  0.0000E+00  0.0000E+00
    -13.854  0.0000E+00  0.0000E+00
    -13.850  0.0000E+00  0.0000E+00
    -13.846  0.0000E+00  0.0000E+00
    -13.842  0.0000E+00  0.0000E+00
    -13.838  0.0000E+00  0.0000E+00
    -13.835  0.0000E+00  0.0000E+00
    -13.831  0.0000E+00  0.0000E+00
    -13.827  0.0000E+00  0.0000E+00
    -13.823  0.0000E+00  0.0000E+00
    -13.819  0.0000E+00  0.0000E+00
    -13.816  0.0000E+00  0.0000E+00
    -13.812  0.0000E+00  0.0000E+00
    -13.808  0.0000E+00  0.0000E+00
    -13.804  0.0000E+00  0.0000E+00
    -13.800  0.0000E+00  0.0000E+00
    -13.797  0.0000E+00  0.0000E+00
    -13.793  0.0000E+00  0.0000E+00
    -13.789  0.0000E+00  0.0000E+00
    -13.785  0.0000E+00  0.0000E+00
    -13.781  0.0000E+00  0.0000E+00
    -13.777  0.0000E+00  0.0000E+00
    -13.774  0.0000E+00  0.0000E+00
    -13.770  0.0000E+00  0.0000E+00
    -13.766  0.0000E+00  0.0000E+00
    -13.762  0.0000E+00  0.0000E+00
    -13.758  0.0000E+00  0.0000E+00
    -13.755  0.0000E+00  0.0000E+00
    -13.751  0.0000E+00  0.0000E+00
    -13.747  0.0000E+00  0.0000E+00
    -13.743  0.0000E+00  0.0000E+00
    -13.739  0.0000E+00  0.0000E+00
    -13.736  0.0000E+00  0.0000E+00
    -13.732  0.0000E+00  0.0000E+00
    -13.728  0.0000E+00  0.0000E+00
    -13.724  0.0000E+00  0.0000E+00
    -13.720  0.0000E+00  0.0000E+00
    -13.717  0.0000E+00  0.0000E+00
    -13.713  0.0000E+00  0.0000E+00
    -13.709  0.0000E+00  0.0000E+00
    -13.705  0.0000E+00  0.0000E+00
    -13.701  0.0000E+00  0.0000E+00
    -13.697  0.0000E+00  0.0000E+00
    -13.694  0.0000E+00  0.0000E+00
    -13.690  0.0000E+00  0.0000E+00
    -13.686  0.0000E+00  0.0000E+00
    -13.682  0.0000E+00  0.0000E+00
    -13.678  0.0000E+00  0.0000E+00
    -13.675  0.0000E+00  0.0000E+00
    -13.671  0.0000E+00  0.0000E+00
    -13.667  0.0000E+00  0.0000E+00
    -13.663  0.0000E+00  0.0000E+00
    -13.659  0.0000E+00  0.0000E+00
    -13.656  0.0000E+00  0.0000E+00
    -13.652  0.0000E+00  0.0000E+00
    -13.648  0.0000E+00  0.0000E+00
    -13.644  0.0000E+00  0.0000E+00
    -13.640  0.0000E+00  0.0000E+00
    -13.637  0.0000E+00  0.0000E+00
    -13.633  0.0000E+00  0.0000E+00
    -13.629  0.0000E+00  0.0000E+00
    -13.625  0.0000E+00  0.0000E+00
    -13.621  0.1144E-14  0.4358E-17
    -13.617  0.7564E-13  0.2925E-15
    -13.614  0.3760E-11  0.1461E-13
    -13.610  0.1404E-09  0.5493E-12
    -13.606  0.3937E-08  0.1555E-10
    -13.602  0.8298E-07  0.3316E-09
    -13.598  0.1315E-05  0.5339E-08
    -13.595  0.1566E-04  0.6499E-07
    -13.591  0.1403E-03  0.5994E-06
    -13.587  0.9457E-03  0.4202E-05
    -13.583  0.4798E-02  0.2248E-04
    -13.579  0.1832E-01  0.9227E-04
    -13.576  0.5270E-01  0.2930E-03
    -13.572  0.1142E+00  0.7282E-03
    -13.568  0.1874E+00  0.1442E-02
    -13.564  0.2369E+00  0.2344E-02
    -13.560  0.2509E+00  0.3300E-02
    -13.557  0.2887E+00  0.4400E-02
    -13.553  0.4595E+00  0.6150E-02
    -13.549  0.8091E+00  0.9232E-02
    -13.545  0.1204E+01  0.1382E-01
    -13.541  0.1384E+01  0.1909E-01
    -13.537  0.1204E+01  0.2368E-01
    -13.534  0.7902E+00  0.2669E-01
    -13.530  0.3907E+00  0.2818E-01
    -13.526  0.1459E+00  0.2873E-01
    -13.522  0.4403E-01  0.2890E-01
    -13.518  0.2662E-01  0.2900E-01
    -13.515  0.7643E-01  0.2929E-01
    -13.511  0.2357E+00  0.3019E-01
    -13.507  0.5565E+00  0.3231E-01
    -13.503  0.9909E+00  0.3609E-01
    -13.499  0.1332E+01  0.4116E-01
    -13.496  0.1366E+01  0.4637E-01
    -13.492  0.1121E+01  0.5064E-01
    -13.488  0.8815E+00  0.5399E-01
    -13.484  0.9081E+00  0.5745E-01
    -13.480  0.1172E+01  0.6192E-01
    -13.477  0.1385E+01  0.6719E-01
    -13.473  0.1292E+01  0.7211E-01
    -13.469  0.9157E+00  0.7560E-01
    -13.465  0.4899E+00  0.7747E-01
    -13.461  0.1975E+00  0.7822E-01
    -13.457  0.5996E-01  0.7845E-01
    -13.454  0.1371E-01  0.7850E-01
    -13.450  0.2359E-02  0.7851E-01
    -13.446  0.3139E-03  0.7851E-01
    -13.442  0.1387E-03  0.7851E-01
    -13.438  0.1045E-02  0.7852E-01
    -13.435  0.7503E-02  0.7855E-01
    -13.431  0.4063E-01  0.7870E-01
    -13.427  0.1656E+00  0.7933E-01
    -13.423  0.5084E+00  0.8127E-01
    -13.419  0.1175E+01  0.8574E-01
    -13.416  0.2046E+01  0.9354E-01
    -13.412  0.2683E+01  0.1038E+00
    -13.408  0.2651E+01  0.1139E+00
    -13.404  0.1973E+01  0.1214E+00
    -13.400  0.1106E+01  0.1256E+00
    -13.397  0.4674E+00  0.1274E+00
    -13.393  0.1503E+00  0.1279E+00
    -13.389  0.4599E-01  0.1281E+00
    -13.385  0.5420E-01  0.1283E+00
    -13.381  0.1659E+00  0.1290E+00
    -13.377  0.4294E+00  0.1306E+00
    -13.374  0.8409E+00  0.1338E+00
    -13.370  0.1241E+01  0.1385E+00
    -13.366  0.1379E+01  0.1438E+00
    -13.362  0.1155E+01  0.1482E+00
    -13.358  0.7283E+00  0.1509E+00
    -13.355  0.3460E+00  0.1523E+00
    -13.351  0.1238E+00  0.1527E+00
    -13.347  0.3335E-01  0.1529E+00
    -13.343  0.6765E-02  0.1529E+00
    -13.339  0.1034E-02  0.1529E+00
    -13.336  0.1359E-03  0.1529E+00
    -13.332  0.1991E-03  0.1529E+00
    -13.328  0.1552E-02  0.1529E+00
    -13.324  0.9590E-02  0.1529E+00
    -13.320  0.4462E-01  0.1531E+00
    -13.317  0.1563E+00  0.1537E+00
    -13.313  0.4123E+00  0.1553E+00
    -13.309  0.8196E+00  0.1584E+00
    -13.305  0.1231E+01  0.1631E+00
    -13.301  0.1415E+01  0.1685E+00
    -13.298  0.1315E+01  0.1735E+00
    -13.294  0.1201E+01  0.1781E+00
    -13.290  0.1440E+01  0.1835E+00
    -13.286  0.2074E+01  0.1914E+00
    -13.282  0.2672E+01  0.2016E+00
    -13.278  0.2703E+01  0.2119E+00
    -13.275  0.2077E+01  0.2198E+00
    -13.271  0.1204E+01  0.2244E+00
    -13.267  0.5262E+00  0.2264E+00
    -13.263  0.1731E+00  0.2271E+00
    -13.259  0.4290E-01  0.2272E+00
    -13.256  0.8001E-02  0.2273E+00
    -13.252  0.1127E-02  0.2273E+00
    -13.248  0.1696E-03  0.2273E+00
    -13.244  0.5010E-03  0.2273E+00
    -13.240  0.3566E-02  0.2273E+00
    -13.237  0.1946E-01  0.2274E+00
    -13.233  0.7997E-01  0.2277E+00
    -13.229  0.2474E+00  0.2286E+00
    -13.225  0.5763E+00  0.2308E+00
    -13.221  0.1011E+01  0.2347E+00
    -13.218  0.1337E+01  0.2397E+00
    -13.214  0.1331E+01  0.2448E+00
    -13.210  0.9985E+00  0.2486E+00
    -13.206  0.5642E+00  0.2508E+00
    -13.202  0.2401E+00  0.2517E+00
    -13.198  0.7697E-01  0.2520E+00
    -13.195  0.1857E-01  0.2521E+00
    -13.191  0.3374E-02  0.2521E+00
    -13.187  0.4723E-03  0.2521E+00
    -13.183  0.1845E-03  0.2521E+00
    -13.179  0.1280E-02  0.2521E+00
    -13.176  0.8936E-02  0.2521E+00
    -13.172  0.4709E-01  0.2523E+00
    -13.168  0.1868E+00  0.2530E+00
    -13.164  0.5579E+00  0.2551E+00
    -13.160  0.1255E+01  0.2599E+00
    -13.157  0.2126E+01  0.2680E+00
    -13.153  0.2714E+01  0.2783E+00
    -13.149  0.2609E+01  0.2883E+00
    -13.145  0.1890E+01  0.2955E+00
    -13.141  0.1031E+01  0.2994E+00
    -13.138  0.4246E+00  0.3010E+00
    -13.134  0.1383E+00  0.3015E+00
    -13.130  0.6990E-01  0.3018E+00
    -13.126  0.1668E+00  0.3024E+00
    -13.122  0.4990E+00  0.3043E+00
    -13.118  0.1159E+01  0.3088E+00
    -13.115  0.2029E+01  0.3165E+00
    -13.111  0.2676E+01  0.3267E+00
    -13.107  0.2659E+01  0.3368E+00
    -13.103  0.1991E+01  0.3444E+00
    -13.099  0.1123E+01  0.3487E+00
    -13.096  0.4768E+00  0.3505E+00
    -13.092  0.1525E+00  0.3511E+00
    -13.088  0.3673E-01  0.3512E+00
    -13.084  0.6658E-02  0.3512E+00
    -13.080  0.9083E-03  0.3512E+00
    -13.077  0.9321E-04  0.3512E+00
    -13.073  0.7194E-05  0.3512E+00
    -13.069  0.4239E-06  0.3512E+00
    -13.065  0.1711E-06  0.3512E+00
    -13.061  0.2715E-05  0.3512E+00
    -13.058  0.3622E-04  0.3512E+00
    -13.054  0.3635E-03  0.3512E+00
    -13.050  0.2744E-02  0.3513E+00
    -13.046  0.1559E-01  0.3513E+00
    -13.042  0.6667E-01  0.3516E+00
    -13.038  0.2147E+00  0.3524E+00
    -13.035  0.5205E+00  0.3544E+00
    -13.031  0.9505E+00  0.3580E+00
    -13.027  0.1308E+01  0.3630E+00
    -13.023  0.1355E+01  0.3681E+00
    -13.019  0.1058E+01  0.3722E+00
    -13.016  0.6220E+00  0.3745E+00
    -13.012  0.2757E+00  0.3756E+00
    -13.008  0.9377E-01  0.3759E+00
    -13.004  0.3430E-01  0.3761E+00
    -13.000  0.5519E-01  0.3763E+00
    -12.997  0.1740E+00  0.3769E+00
    -12.993  0.4453E+00  0.3786E+00
    -12.989  0.8623E+00  0.3819E+00
    -12.985  0.1264E+01  0.3867E+00
    -12.981  0.1430E+01  0.3922E+00
    -12.978  0.1345E+01  0.3973E+00
    -12.974  0.1313E+01  0.4023E+00
    -12.970  0.1660E+01  0.4086E+00
    -12.966  0.2313E+01  0.4174E+00
    -12.962  0.2766E+01  0.4280E+00
    -12.958  0.2573E+01  0.4378E+00
    -12.955  0.1815E+01  0.4447E+00
    -12.951  0.9663E+00  0.4484E+00
    -12.947  0.3875E+00  0.4498E+00
    -12.943  0.1171E+00  0.4503E+00
    -12.939  0.2662E-01  0.4504E+00
    -12.936  0.4563E-02  0.4504E+00
    -12.932  0.6812E-03  0.4504E+00
    -12.928  0.9754E-03  0.4504E+00
    -12.924  0.6728E-02  0.4504E+00
    -12.920  0.3703E-01  0.4506E+00
    -12.917  0.1536E+00  0.4512E+00
    -12.913  0.4793E+00  0.4530E+00
    -12.909  0.1127E+01  0.4573E+00
    -12.905  0.1995E+01  0.4649E+00
    -12.901  0.2662E+01  0.4750E+00
    -12.898  0.2674E+01  0.4852E+00
    -12.894  0.2024E+01  0.4929E+00
    -12.890  0.1154E+01  0.4973E+00
    -12.886  0.4957E+00  0.4992E+00
    -12.882  0.1603E+00  0.4998E+00
    -12.878  0.3904E-01  0.5000E+00
    -12.875  0.7157E-02  0.5000E+00
    -12.871  0.9872E-03  0.5000E+00
    -12.867  0.1024E-03  0.5000E+00
    -12.863  0.7996E-05  0.5000E+00
    -12.859  0.4692E-06  0.5000E+00
    -12.856  0.2069E-07  0.5000E+00
    -12.852  0.6860E-09  0.5000E+00
    -12.848  0.2967E-10  0.5000E+00
    -12.844  0.4921E-09  0.5000E+00
    -12.840  0.1441E-07  0.5000E+00
    -12.837  0.3174E-06  0.5000E+00
    -12.833  0.5254E-05  0.5000E+00
    -12.829  0.6539E-04  0.5000E+00
    -12.825  0.6121E-03  0.5000E+00
    -12.821  0.4310E-02  0.5000E+00
    -12.818  0.2284E-01  0.5001E+00
    -12.814  0.9113E-01  0.5005E+00
    -12.810  0.2737E+00  0.5015E+00
    -12.806  0.6193E+00  0.5039E+00
    -12.802  0.1056E+01  0.5079E+00
    -12.799  0.1363E+01  0.5131E+00
    -12.795  0.1356E+01  0.5182E+00
    -12.791  0.1140E+01  0.5226E+00
    -12.787  0.1081E+01  0.5267E+00
    -12.783  0.1470E+01  0.5323E+00
    -12.779  0.2193E+01  0.5406E+00
    -12.776  0.2729E+01  0.5510E+00
    -12.772  0.2612E+01  0.5610E+00
    -12.768  0.1891E+01  0.5682E+00
    -12.764  0.1032E+01  0.5721E+00
    -12.760  0.4279E+00  0.5738E+00
    -12.757  0.1544E+00  0.5743E+00
    -12.753  0.1350E+00  0.5749E+00
    -12.749  0.3594E+00  0.5762E+00
    -12.745  0.9049E+00  0.5797E+00
    -12.741  0.1739E+01  0.5863E+00
    -12.738  0.2520E+01  0.5959E+00
    -12.734  0.2750E+01  0.6064E+00
    -12.730  0.2261E+01  0.6150E+00
    -12.726  0.1400E+01  0.6203E+00
    -12.722  0.6533E+00  0.6228E+00
    -12.719  0.2295E+00  0.6237E+00
    -12.715  0.6072E-01  0.6239E+00
    -12.711  0.1209E-01  0.6240E+00
    -12.707  0.1813E-02  0.6240E+00
    -12.703  0.2044E-03  0.6240E+00
    -12.699  0.1735E-04  0.6240E+00
    -12.696  0.1462E-05  0.6240E+00
    -12.692  0.6279E-05  0.6240E+00
    -12.688  0.8191E-04  0.6240E+00
    -12.684  0.8103E-03  0.6240E+00
    -12.680  0.6031E-02  0.6240E+00
    -12.677  0.3378E-01  0.6241E+00
    -12.673  0.1424E+00  0.6247E+00
    -12.669  0.4519E+00  0.6264E+00
    -12.665  0.1080E+01  0.6305E+00
    -12.661  0.1945E+01  0.6379E+00
    -12.658  0.2638E+01  0.6480E+00
    -12.654  0.2695E+01  0.6582E+00
    -12.650  0.2074E+01  0.6661E+00
    -12.646  0.1202E+01  0.6707E+00
    -12.642  0.5250E+00  0.6727E+00
    -12.639  0.1726E+00  0.6734E+00
    -12.635  0.4274E-01  0.6735E+00
    -12.631  0.7967E-02  0.6735E+00
    -12.627  0.1117E-02  0.6736E+00
    -12.623  0.1179E-03  0.6736E+00
    -12.619  0.9358E-05  0.6736E+00
    -12.616  0.5584E-06  0.6736E+00
    -12.612  0.2504E-07  0.6736E+00
    -12.608  0.8439E-09  0.6736E+00
    -12.604  0.2251E-10  0.6736E+00
    -12.600  0.5408E-10  0.6736E+00
    -12.597  0.1875E-08  0.6736E+00
    -12.593  0.4921E-07  0.6736E+00
    -12.589  0.9706E-06  0.6736E+00
    -12.585  0.1439E-04  0.6736E+00
    -12.581  0.1604E-03  0.6736E+00
    -12.578  0.1346E-02  0.6736E+00
    -12.574  0.8494E-02  0.6736E+00
    -12.570  0.4038E-01  0.6737E+00
    -12.566  0.1448E+00  0.6743E+00
    -12.562  0.3928E+00  0.6758E+00
    -12.559  0.8133E+00  0.6789E+00
    -12.555  0.1314E+01  0.6839E+00
    -12.551  0.1751E+01  0.6906E+00
    -12.547  0.2142E+01  0.6987E+00
    -12.543  0.2678E+01  0.7089E+00
    -12.539  0.3390E+01  0.7218E+00
    -12.536  0.3906E+01  0.7367E+00
    -12.532  0.3746E+01  0.7510E+00
    -12.528  0.2860E+01  0.7619E+00
    -12.524  0.1702E+01  0.7684E+00
    -12.520  0.7805E+00  0.7713E+00
    -12.517  0.2737E+00  0.7724E+00
    -12.513  0.7304E-01  0.7727E+00
    -12.509  0.1485E-01  0.7727E+00
    -12.505  0.3056E-02  0.7727E+00
    -12.501  0.6202E-02  0.7728E+00
    -12.498  0.3337E-01  0.7729E+00
    -12.494  0.1409E+00  0.7734E+00
    -12.490  0.4483E+00  0.7751E+00
    -12.486  0.1074E+01  0.7792E+00
    -12.482  0.1938E+01  0.7866E+00
    -12.479  0.2634E+01  0.7966E+00
    -12.475  0.2697E+01  0.8069E+00
    -12.471  0.2080E+01  0.8148E+00
    -12.467  0.1209E+01  0.8194E+00
    -12.463  0.5290E+00  0.8214E+00
    -12.459  0.1744E+00  0.8221E+00
    -12.456  0.4327E-01  0.8223E+00
    -12.452  0.8083E-02  0.8223E+00
    -12.448  0.1136E-02  0.8223E+00
    -12.444  0.1202E-03  0.8223E+00
    -12.440  0.9560E-05  0.8223E+00
    -12.437  0.5717E-06  0.8223E+00
    -12.433  0.2599E-07  0.8223E+00
    -12.429  0.1036E-07  0.8223E+00
    -12.425  0.2303E-06  0.8223E+00
    -12.421  0.4198E-05  0.8223E+00
    -12.418  0.5754E-04  0.8223E+00
    -12.414  0.5930E-03  0.8223E+00
    -12.410  0.4598E-02  0.8223E+00
    -12.406  0.2683E-01  0.8224E+00
    -12.402  0.1178E+00  0.8229E+00
    -12.399  0.3895E+00  0.8244E+00
    -12.395  0.9698E+00  0.8281E+00
    -12.391  0.1819E+01  0.8350E+00
    -12.387  0.2569E+01  0.8448E+00
    -12.383  0.2734E+01  0.8552E+00
    -12.379  0.2191E+01  0.8635E+00
    -12.376  0.1323E+01  0.8686E+00
    -12.372  0.6018E+00  0.8709E+00
    -12.368  0.2062E+00  0.8717E+00
    -12.364  0.5317E-01  0.8719E+00
    -12.360  0.1032E-01  0.8719E+00
    -12.357  0.1508E-02  0.8719E+00
    -12.353  0.1658E-03  0.8719E+00
    -12.349  0.1371E-04  0.8719E+00
    -12.345  0.8526E-06  0.8719E+00
    -12.341  0.4530E-07  0.8719E+00
    -12.338  0.1405E-06  0.8719E+00
    -12.334  0.2657E-05  0.8719E+00
    -12.330  0.3816E-04  0.8719E+00
    -12.326  0.4122E-03  0.8719E+00
    -12.322  0.3349E-02  0.8719E+00
    -12.319  0.2047E-01  0.8720E+00
    -12.315  0.9420E-01  0.8724E+00
    -12.311  0.3263E+00  0.8736E+00
    -12.307  0.8512E+00  0.8768E+00
    -12.303  0.1672E+01  0.8832E+00
    -12.300  0.2475E+01  0.8926E+00
    -12.296  0.2759E+01  0.9031E+00
    -12.292  0.2318E+01  0.9120E+00
    -12.288  0.1471E+01  0.9176E+00
    -12.284  0.7288E+00  0.9204E+00
    -12.280  0.3857E+00  0.9218E+00
    -12.277  0.5236E+00  0.9238E+00
    -12.273  0.1185E+01  0.9283E+00
    -12.269  0.2299E+01  0.9371E+00
    -12.265  0.3450E+01  0.9502E+00
    -12.261  0.3980E+01  0.9654E+00
    -12.258  0.3538E+01  0.9789E+00
    -12.254  0.2429E+01  0.9881E+00
    -12.250  0.1289E+01  0.9930E+00
    -12.246  0.5285E+00  0.9950E+00
    -12.242  0.1673E+00  0.9957E+00
    -12.239  0.4075E-01  0.9958E+00
    -12.235  0.7619E-02  0.9959E+00
    -12.231  0.1118E-02  0.9959E+00
    -12.227  0.4489E-03  0.9959E+00
    -12.223  0.2770E-02  0.9959E+00
    -12.220  0.1735E-01  0.9959E+00
    -12.216  0.8210E-01  0.9963E+00
    -12.212  0.2925E+00  0.9974E+00
    -12.208  0.7844E+00  0.1000E+01
    -12.204  0.1585E+01  0.1006E+01
    -12.200  0.2411E+01  0.1016E+01
    -12.197  0.2764E+01  0.1026E+01
    -12.193  0.2387E+01  0.1035E+01
    -12.189  0.1553E+01  0.1041E+01
    -12.185  0.7608E+00  0.1044E+01
    -12.181  0.2807E+00  0.1045E+01
    -12.178  0.7801E-01  0.1045E+01
    -12.174  0.1632E-01  0.1045E+01
    -12.170  0.2569E-02  0.1045E+01
    -12.166  0.3044E-03  0.1045E+01
    -12.162  0.2712E-04  0.1045E+01
    -12.159  0.1818E-05  0.1045E+01
    -12.155  0.9155E-07  0.1045E+01
    -12.151  0.3516E-08  0.1045E+01
    -12.147  0.1993E-08  0.1045E+01
    -12.143  0.5261E-07  0.1045E+01
    -12.140  0.1098E-05  0.1045E+01
    -12.136  0.1723E-04  0.1045E+01
    -12.132  0.2033E-03  0.1045E+01
    -12.128  0.1804E-02  0.1045E+01
    -12.124  0.1204E-01  0.1046E+01
    -12.120  0.6051E-01  0.1046E+01
    -12.117  0.2289E+00  0.1047E+01
    -12.113  0.6519E+00  0.1049E+01
    -12.109  0.1398E+01  0.1054E+01
    -12.105  0.2259E+01  0.1063E+01
    -12.101  0.2750E+01  0.1073E+01
    -12.098  0.2521E+01  0.1083E+01
    -12.094  0.1741E+01  0.1090E+01
    -12.090  0.9059E+00  0.1093E+01
    -12.086  0.3550E+00  0.1095E+01
    -12.082  0.1047E+00  0.1095E+01
    -12.079  0.2327E-01  0.1095E+01
    -12.075  0.3890E-02  0.1095E+01
    -12.071  0.4899E-03  0.1095E+01
    -12.067  0.5321E-04  0.1095E+01
    -12.063  0.8655E-04  0.1095E+01
    -12.060  0.7572E-03  0.1095E+01
    -12.056  0.5180E-02  0.1095E+01
    -12.052  0.2670E-01  0.1095E+01
    -12.048  0.1037E+00  0.1096E+01
    -12.044  0.3051E+00  0.1097E+01
    -12.040  0.6844E+00  0.1099E+01
    -12.037  0.1197E+01  0.1104E+01
    -12.033  0.1710E+01  0.1110E+01
    -12.029  0.2168E+01  0.1119E+01
    -12.025  0.2622E+01  0.1129E+01
    -12.021  0.2987E+01  0.1140E+01
    -12.018  0.2948E+01  0.1151E+01
    -12.014  0.2341E+01  0.1160E+01
    -12.010  0.1439E+01  0.1166E+01
    -12.006  0.6748E+00  0.1168E+01
    -12.002  0.2531E+00  0.1169E+01
    -11.999  0.1428E+00  0.1170E+01
    -11.995  0.3209E+00  0.1171E+01
    -11.991  0.9021E+00  0.1174E+01
    -11.987  0.1981E+01  0.1182E+01
    -11.983  0.3283E+01  0.1194E+01
    -11.980  0.4099E+01  0.1210E+01
    -11.976  0.3855E+01  0.1225E+01
    -11.972  0.2732E+01  0.1235E+01
    -11.968  0.1459E+01  0.1241E+01
    -11.964  0.5867E+00  0.1243E+01
    -11.960  0.1777E+00  0.1244E+01
    -11.957  0.4052E-01  0.1244E+01
    -11.953  0.6959E-02  0.1244E+01
    -11.949  0.9517E-03  0.1244E+01
    -11.945  0.6401E-03  0.1244E+01
    -11.941  0.4331E-02  0.1244E+01
    -11.938  0.2546E-01  0.1244E+01
    -11.934  0.1128E+00  0.1244E+01
    -11.930  0.3765E+00  0.1246E+01
    -11.926  0.9460E+00  0.1249E+01
    -11.922  0.1790E+01  0.1256E+01
    -11.919  0.2552E+01  0.1266E+01
    -11.915  0.2740E+01  0.1276E+01
    -11.911  0.2217E+01  0.1285E+01
    -11.907  0.1351E+01  0.1290E+01
    -11.903  0.6200E+00  0.1292E+01
    -11.900  0.2143E+00  0.1293E+01
    -11.896  0.5578E-01  0.1293E+01
    -11.892  0.1093E-01  0.1293E+01
    -11.888  0.1612E-02  0.1293E+01
    -11.884  0.1788E-03  0.1293E+01
    -11.880  0.1492E-04  0.1293E+01
    -11.877  0.1062E-05  0.1293E+01
    -11.873  0.2468E-05  0.1293E+01
    -11.869  0.3514E-04  0.1293E+01
    -11.865  0.3831E-03  0.1293E+01
    -11.861  0.3142E-02  0.1293E+01
    -11.858  0.1938E-01  0.1293E+01
    -11.854  0.9002E-01  0.1294E+01
    -11.850  0.3148E+00  0.1295E+01
    -11.846  0.8287E+00  0.1298E+01
    -11.842  0.1643E+01  0.1304E+01
    -11.839  0.2454E+01  0.1314E+01
    -11.835  0.2761E+01  0.1324E+01
    -11.831  0.2341E+01  0.1333E+01
    -11.827  0.1495E+01  0.1339E+01
    -11.823  0.7188E+00  0.1342E+01
    -11.820  0.2604E+00  0.1343E+01
    -11.816  0.7101E-01  0.1343E+01
    -11.812  0.1458E-01  0.1343E+01
    -11.808  0.2253E-02  0.1343E+01
    -11.804  0.2620E-03  0.1343E+01
    -11.800  0.2291E-04  0.1343E+01
    -11.797  0.1508E-05  0.1343E+01
    -11.793  0.9540E-07  0.1343E+01
    -11.789  0.4785E-06  0.1343E+01
    -11.785  0.8147E-05  0.1343E+01
    -11.781  0.1051E-03  0.1343E+01
    -11.778  0.1022E-02  0.1343E+01
    -11.774  0.7509E-02  0.1343E+01
    -11.770  0.4171E-01  0.1343E+01
    -11.766  0.1756E+00  0.1344E+01
    -11.762  0.5620E+00  0.1346E+01
    -11.759  0.1374E+01  0.1351E+01
    -11.755  0.2586E+01  0.1361E+01
    -11.751  0.3808E+01  0.1376E+01
    -11.747  0.4536E+01  0.1393E+01
    -11.743  0.4630E+01  0.1410E+01
    -11.740  0.4341E+01  0.1427E+01
    -11.736  0.3833E+01  0.1442E+01
    -11.732  0.3046E+01  0.1453E+01
    -11.728  0.2069E+01  0.1461E+01
    -11.724  0.1301E+01  0.1466E+01
    -11.721  0.1134E+01  0.1470E+01
    -11.717  0.1619E+01  0.1477E+01
    -11.713  0.2367E+01  0.1486E+01
    -11.709  0.2767E+01  0.1496E+01
    -11.705  0.2461E+01  0.1505E+01
    -11.701  0.1667E+01  0.1512E+01
    -11.698  0.9267E+00  0.1515E+01
    -11.694  0.6457E+00  0.1518E+01
    -11.690  0.9480E+00  0.1521E+01
    -11.686  0.1700E+01  0.1528E+01
    -11.682  0.2485E+01  0.1537E+01
    -11.679  0.2771E+01  0.1548E+01
    -11.675  0.2372E+01  0.1557E+01
    -11.671  0.1691E+01  0.1563E+01
    -11.667  0.1358E+01  0.1569E+01
    -11.663  0.1688E+01  0.1575E+01
    -11.660  0.2441E+01  0.1584E+01
    -11.656  0.3026E+01  0.1596E+01
    -11.652  0.2994E+01  0.1607E+01
    -11.648  0.2388E+01  0.1616E+01
    -11.644  0.1576E+01  0.1622E+01
    -11.641  0.8792E+00  0.1626E+01
    -11.637  0.4133E+00  0.1627E+01
    -11.633  0.1600E+00  0.1628E+01
    -11.629  0.4947E-01  0.1628E+01
    -11.625  0.1193E-01  0.1628E+01
    -11.621  0.2206E-02  0.1628E+01
    -11.618  0.3104E-03  0.1628E+01
    -11.614  0.3683E-04  0.1628E+01
    -11.610  0.5207E-04  0.1628E+01
    -11.606  0.4784E-03  0.1628E+01
    -11.602  0.3482E-02  0.1628E+01
    -11.599  0.1908E-01  0.1628E+01
    -11.595  0.7867E-01  0.1628E+01
    -11.591  0.2443E+00  0.1629E+01
    -11.587  0.5711E+00  0.1632E+01
    -11.583  0.1006E+01  0.1635E+01
    -11.580  0.1334E+01  0.1641E+01
    -11.576  0.1334E+01  0.1646E+01
    -11.572  0.1004E+01  0.1649E+01
    -11.568  0.5694E+00  0.1652E+01
    -11.564  0.2432E+00  0.1653E+01
    -11.561  0.7825E-01  0.1653E+01
    -11.557  0.1896E-01  0.1653E+01
    -11.553  0.3590E-02  0.1653E+01
    -11.549  0.1731E-02  0.1653E+01
    -11.545  0.8866E-02  0.1653E+01
    -11.541  0.4656E-01  0.1653E+01
    -11.538  0.1851E+00  0.1654E+01
    -11.534  0.5540E+00  0.1656E+01
    -11.530  0.1249E+01  0.1661E+01
    -11.526  0.2120E+01  0.1669E+01
    -11.522  0.2712E+01  0.1679E+01
    -11.519  0.2613E+01  0.1689E+01
    -11.515  0.1897E+01  0.1696E+01
    -11.511  0.1046E+01  0.1700E+01
    -11.507  0.4748E+00  0.1702E+01
    -11.503  0.3220E+00  0.1703E+01
    -11.500  0.5959E+00  0.1706E+01
    -11.496  0.1276E+01  0.1710E+01
    -11.492  0.2169E+01  0.1719E+01
    -11.488  0.2858E+01  0.1730E+01
    -11.484  0.3073E+01  0.1741E+01
    -11.481  0.3073E+01  0.1753E+01
    -11.477  0.3340E+01  0.1766E+01
    -11.473  0.3871E+01  0.1780E+01
    -11.469  0.4089E+01  0.1796E+01
    -11.465  0.3539E+01  0.1809E+01
    -11.461  0.2415E+01  0.1819E+01