    2    2    1    1
  0.1172237E+03  0.4113367E-09  0.4113367E-09  0.1600000E-08  0.5000000E-15
  1.000000000000000E-004
  CAR 
 unknown system                          
     10     52     16
 
  0.0000000E+00  0.0000000E+00  0.0000000E+00  0.2066116E-02
      1        -13.565185   1.000000
      2         -8.592164   1.000000
      3         -2.890824   1.000000
      4         -2.284285   1.000000
      5         -2.284285   1.000000
      6         -0.717621   0.000000
      7          0.505970   0.000000
      8          0.505970   0.000000
      9          2.089725   0.000000
     10          2.168032   0.000000
     11          3.626089   0.000000
     12          4.529839   0.000000
     13          4.844227   0.000000
     14          5.884491   0.000000
     15          5.884492   0.000000
     16          6.495202   0.000000
 
  0.4545455E-01  0.3469447E-17  0.0000000E+00  0.1239669E-01
      1        -13.543145   1.000000
      2         -8.590738   1.000000
      3         -2.880706   1.000000
      4         -2.558245   1.000000
      5         -2.338187   1.000000
      6         -0.484675   0.000000
      7          0.445498   0.000000
      8          0.558975   0.000000
      9          2.120095   0.000000
     10          2.194306   0.000000
     11          3.652726   0.000000
     12          4.554530   0.000000
     13          4.923612   0.000000
     14          5.615020   0.000000
     15          5.853826   0.000000
     16          6.598503   0.000000
 
  0.9090909E-01  0.6938894E-17  0.0000000E+00  0.1239669E-01
      1        -13.477320   1.000000
      2         -8.589391   1.000000
      3         -3.109705   1.000000
      4         -2.852791   1.000000
      5         -2.483245   1.000000
      6         -0.196770   0.000000
      7          0.434476   0.000000
      8          0.697049   0.000000
      9          2.208528   0.000000
     10          2.270009   0.000000
     11          3.706329   0.000000
     12          4.626146   0.000000
     13          4.871783   0.000000
     14          5.565779   0.000000
     15          5.802469   0.000000
     16          6.214404   0.000000
 
  0.1363636E+00  0.2775558E-16  0.0000000E+00  0.1239669E-01
      1        -13.368457   1.000000
      2         -8.597219   1.000000
      3         -3.703393   1.000000
      4         -2.815968   1.000000
      5         -2.683984   1.000000
      6         -0.330798   0.000000
      7          0.762947   0.000000
      8          0.872995   0.000000
      9          2.328126   0.000000
     10          2.404849   0.000000
     11          3.741143   0.000000
     12          4.587080   0.000000
     13          4.775739   0.000000
     14          5.746863   0.000000
     15          5.803102   0.000000
     16          6.110550   0.000000
 
  0.1818182E+00  0.1387779E-16  0.0000000E+00  0.1239669E-01
      1        -13.217568   1.000000
      2         -8.630138   1.000000
      3         -4.255295   1.000000
      4         -2.906710   1.000000
      5         -2.787356   1.000000
      6         -0.604882   0.000000
      7          1.040104   0.000000
      8          1.084653   0.000000
      9          2.442116   0.000000
     10          2.594691   0.000000
     11          3.765413   0.000000
     12          4.514070   0.000000
     13          4.957449   0.000000
     14          5.461405   0.000000
     15          5.910548   0.000000
     16          6.595071   0.000000
 
  0.2272727E+00  0.0000000E+00  0.0000000E+00  0.1239669E-01
      1        -13.026573   1.000000
      2         -8.710281   1.000000
      3         -4.717946   1.000000
      4         -3.127515   1.000000
      5         -2.795928   1.000000
      6         -0.848996   0.000000
      7          1.167301   0.000000
      8          1.196595   0.000000
      9          2.568425   0.000000
     10          2.797762   0.000000
     11          3.846735   0.000000
     12          4.640115   0.000000
     13          5.219030   0.000000
     14          5.269502   0.000000
     15          6.153521   0.000000
     16          6.664918   0.000000
 
  0.2727273E+00  0.0000000E+00  0.0000000E+00  0.1239669E-01
      1        -12.798955   1.000000
      2         -8.860002   1.000000
      3         -5.056887   1.000000
      4         -3.330850   1.000000
      5         -2.876276   1.000000
      6         -0.998202   0.000000
      7          1.087469   0.000000
      8          1.244452   0.000000
      9          2.764681   0.000000
     10          2.998664   0.000000
     11          3.889405   0.000000
     12          4.882241   0.000000
     13          5.292153   0.000000
     14          5.588703   0.000000
     15          6.361480   0.000000
     16          6.536900   0.000000
 
  0.3181818E+00  0.2775558E-16  0.0000000E+00  0.1239669E-01
      1        -12.540000   1.000000
      2         -9.088391   1.000000
      3         -5.256119   1.000000
      4         -3.506717   1.000000
      5         -3.041760   1.000000
      6         -1.028137   0.000000
      7          0.862119   0.000000
      8          1.278469   0.000000
      9          3.032323   0.000000
     10          3.150436   0.000000
     11          3.886655   0.000000
     12          5.092476   0.000000
     13          5.548606   0.000000
     14          5.943317   0.000000
     15          6.251623   0.000000
     16          7.047196   0.000000
 
  0.3636364E+00  0.0000000E+00  0.0000000E+00  0.1239669E-01
      1        -12.260171   1.000000
      2         -9.379625   1.000000
      3         -5.327890   1.000000
      4         -3.648719   1.000000
      5         -3.265632   1.000000
      6         -0.959921   0.000000
      7          0.613171   0.000000
      8          1.284213   0.000000
      9          3.096553   0.000000
     10          3.402569   0.000000
     11          4.023575   0.000000
     12          5.199445   0.000000
     13          5.888576   0.000000
     14          5.926126   0.000000
     15          6.486326   0.000000
     16          6.832716   0.000000
 
  0.4090909E+00  0.0000000E+00  0.0000000E+00  0.1239669E-01
      1        -11.980171   1.000000
      2         -9.691529   1.000000
      3         -5.309660   1.000000
      4         -3.752688   1.000000
      5         -3.496948   1.000000
      6         -0.838574   0.000000
      7          0.388064   0.000000
      8          1.276848   0.000000
      9          2.966135   0.000000
     10          3.789201   0.000000
     11          4.307875   0.000000
     12          5.175694   0.000000
     13          5.877908   0.000000
     14          6.090410   0.000000
     15          6.289223   0.000000
     16          6.633493   0.000000
 
  0.4545455E+00  0.0000000E+00  0.0000000E+00  0.1239669E-01
      1        -11.746608   1.000000
      2         -9.954730   1.000000
      3         -5.256349   1.000000
      4         -3.816114   1.000000
      5         -3.677278   1.000000
      6         -0.717443   0.000000
      7          0.218726   0.000000
      8          1.267842   0.000000
      9          2.846447   0.000000
     10          4.211040   0.000000
     11          4.614868   0.000000
     12          5.111526   0.000000
     13          5.438642   0.000000
     14          5.914752   0.000000
     15          6.458572   0.000000
     16          6.772592   0.000000
 
  0.5000000E+00  0.0000000E+00  0.0000000E+00  0.6198347E-02
      1        -11.647672   1.000000
      2        -10.065314   1.000000
      3         -5.228409   1.000000
      4         -3.837367   1.000000
      5         -3.747281   1.000000
      6         -0.662828   0.000000
      7          0.150861   0.000000
      8          1.264109   0.000000
      9          2.800605   0.000000
     10          4.535291   0.000000
     11          4.707785   0.000000
     12          4.983674   0.000000
     13          5.322169   0.000000
     14          5.668666   0.000000
     15          6.569026   0.000000
     16          7.045898   0.000000
 
  0.4545455E-01  0.4545455E-01  0.0000000E+00  0.1239669E-01
      1        -13.499259   1.000000
      2         -8.589353   1.000000
      3         -2.944491   1.000000
      4         -2.861852   1.000000
      5         -2.450843   1.000000
      6         -0.194502   0.000000
      7          0.329196   0.000000
      8          0.692484   0.000000
      9          2.180783   0.000000
     10          2.244026   0.000000
     11          3.691778   0.000000
     12          4.603483   0.000000
     13          4.937471   0.000000
     14          5.511807   0.000000
     15          5.755515   0.000000
     16          6.416220   0.000000
 
  0.9090909E-01  0.4545455E-01  0.0000000E+00  0.2479339E-01
      1        -13.411942   1.000000
      2         -8.592486   1.000000
      3         -3.475813   1.000000
      4         -2.830940   1.000000
      5         -2.650080   1.000000
      6         -0.079652   0.000000
      7          0.356405   0.000000
      8          0.931444   0.000000
      9          2.293975   0.000000
     10          2.341220   0.000000
     11          3.728950   0.000000
     12          4.677172   0.000000
     13          4.731216   0.000000
     14          5.624754   0.000000
     15          5.810576   0.000000
     16          6.197012   0.000000
 
  0.1363636E+00  0.4545455E-01  0.0000000E+00  0.2479339E-01
      1        -13.281971   1.000000
      2         -8.612467   1.000000
      3         -4.019850   1.000000
      4         -2.902430   1.000000
      5         -2.783317   1.000000
      6         -0.330835   0.000000
      7          0.657752   0.000000
      8          1.174774   0.000000
      9          2.413484   0.000000
     10          2.503819   0.000000
     11          3.730360   0.000000
     12          4.534381   0.000000
     13          4.857155   0.000000
     14          5.518124   0.000000
     15          5.988880   0.000000
     16          6.363884   0.000000
 
  0.1818182E+00  0.4545455E-01  0.0000000E+00  0.2479339E-01
      1        -13.110939   1.000000
      2         -8.668431   1.000000
      3         -4.509320   1.000000
      4         -3.142654   1.000000
      5         -2.771765   1.000000
      6         -0.601669   0.000000
      7          0.900838   0.000000
      8          1.310178   0.000000
      9          2.525985   0.000000
     10          2.703852   0.000000
     11          3.760499   0.000000
     12          4.572442   0.000000
     13          5.059237   0.000000
     14          5.371576   0.000000
     15          6.086977   0.000000
     16          6.723346   0.000000
 
  0.2272727E+00  0.4545455E-01  0.0000000E+00  0.2479339E-01
      1        -12.901285   1.000000
      2         -8.783233   1.000000
      3         -4.899122   1.000000
      4         -3.371001   1.000000
      5         -2.806735   1.000000
      6         -0.807163   0.000000
      7          1.048470   0.000000
      8          1.263001   0.000000
      9          2.678946   0.000000
     10          2.914353   0.000000
     11          3.848471   0.000000
     12          4.761198   0.000000
     13          5.280674   0.000000
     14          5.323190   0.000000
     15          6.328857   0.000000
     16          6.732064   0.000000
 
  0.2727273E+00  0.4545455E-01  0.0000000E+00  0.2479339E-01
      1        -12.657275   1.000000
      2         -8.973734   1.000000
      3         -5.160893   1.000000
      4         -3.570872   1.000000
      5         -2.919984   1.000000
      6         -0.904943   0.000000
      7          1.021107   0.000000
      8          1.168630   0.000000
      9          2.913121   0.000000
     10          3.111744   0.000000
     11          3.883930   0.000000
     12          5.008827   0.000000
     13          5.394423   0.000000
     14          5.644873   0.000000
     15          6.306773   0.000000
     16          7.029920   0.000000
 
  0.3181818E+00  0.4545455E-01  0.0000000E+00  0.2479339E-01
      1        -12.386275   1.000000
      2         -9.237141   1.000000
      3         -5.291413   1.000000
      4         -3.733115   1.000000
      5         -3.110266   1.000000
      6         -0.889320   0.000000
      7          0.776726   0.000000
      8          1.189063   0.000000
      9          3.143765   0.000000
     10          3.271797   0.000000
     11          3.943972   0.000000
     12          5.191586   0.000000
     13          5.696924   0.000000
     14          5.874812   0.000000
     15          6.398429   0.000000
     16          6.878844   0.000000
 
  0.3636364E+00  0.4545455E-01  0.0000000E+00  0.2479339E-01
      1        -12.102590   1.000000
      2         -9.544632   1.000000
      3         -5.315736   1.000000
      4         -3.850352   1.000000
      5         -3.341971   1.000000
      6         -0.790221   0.000000
      7          0.522058   0.000000
      8          1.199867   0.000000
      9          3.074380   0.000000
     10          3.614920   0.000000
     11          4.169571   0.000000
     12          5.256430   0.000000
     13          5.892921   0.000000
     14          6.123161   0.000000
     15          6.253596   0.000000
     16          6.802047   0.000000
 
  0.4090909E+00  0.4545455E-01  0.0000000E+00  0.2479339E-01
      1        -11.837004   1.000000
      2         -9.842443   1.000000
      3         -5.279562   1.000000
      4         -3.915063   1.000000
      5         -3.565033   1.000000
      6         -0.653048   0.000000
      7          0.300010   0.000000
      8          1.204144   0.000000
      9          2.932420   0.000000
     10          4.024710   0.000000
     11          4.492314   0.000000
     12          5.210847   0.000000
     13          5.671365   0.000000
     14          6.018531   0.000000
     15          6.426400   0.000000
     16          6.607272   0.000000
 
  0.4545455E+00  0.4545455E-01  0.0000000E+00  0.2479339E-01
      1        -11.656952   1.000000
      2        -10.043750   1.000000
      3         -5.238943   1.000000
      4         -3.926276   1.000000
      5         -3.720506   1.000000
      6         -0.540024   0.000000
      7          0.151712   0.000000
      8          1.206316   0.000000
      9          2.839547   0.000000
     10          4.455872   0.000000
     11          4.749598   0.000000
     12          5.054969   0.000000
     13          5.350829   0.000000
     14          5.784820   0.000000
     15          6.458987   0.000000
     16          6.975420   0.000000
 
  0.9090909E-01  0.9090909E-01  0.0000000E+00  0.1239669E-01
      1        -13.303512   1.000000
      2         -8.607484   1.000000
      3         -3.911398   1.000000
      4         -2.945941   1.000000
      5         -2.783908   1.000000
      6          0.042429   0.000000
      7          0.250973   0.000000
      8          1.215935   0.000000
      9          2.430059   0.000000
     10          2.446236   0.000000
     11          3.711251   0.000000
     12          4.568392   0.000000
     13          4.808131   0.000000
     14          5.504099   0.000000
     15          6.172605   0.000000
     16          6.188909   0.000000
 
  0.1363636E+00  0.9090909E-01  0.0000000E+00  0.2479339E-01
      1        -13.153284   1.000000
      2         -8.649738   1.000000
      3         -4.346778   1.000000
      4         -3.251494   1.000000
      5         -2.761722   1.000000
      6         -0.182167   0.000000
      7          0.494566   0.000000
      8          1.391506   0.000000
      9          2.548726   0.000000
     10          2.618516   0.000000
     11          3.660967   0.000000
     12          4.560396   0.000000
     13          4.956953   0.000000
     14          5.498001   0.000000
     15          6.143813   0.000000
     16          6.572578   0.000000
 
  0.1818182E+00  0.9090909E-01  0.0000000E+00  0.2479339E-01
      1        -12.963151   1.000000
      2         -8.739596   1.000000
      3         -4.729579   1.000000
      4         -3.540172   1.000000
      5         -2.765941   1.000000
      6         -0.413691   0.000000
      7          0.723650   0.000000
      8          1.404204   0.000000
      9          2.668904   0.000000
     10          2.831473   0.000000
     11          3.693637   0.000000
     12          4.685504   0.000000
     13          5.148581   0.000000
     14          5.393318   0.000000
     15          6.349379   0.000000
     16          6.824339   0.000000
 
  0.2272727E+00  0.9090909E-01  0.0000000E+00  0.2479339E-01
      1        -12.736379   1.000000
      2         -8.896355   1.000000
      3         -5.019755   1.000000
      4         -3.786874   1.000000
      5         -2.829275   1.000000
      6         -0.573375   0.000000
      7          0.870878   0.000000
      8          1.256320   0.000000
      9          2.851563   0.000000
     10          3.061446   0.000000
     11          3.813699   0.000000
     12          4.901052   0.000000
     13          5.221577   0.000000
     14          5.444733   0.000000
     15          6.538864   0.000000
     16          6.988731   0.000000
 
  0.2727273E+00  0.9090909E-01  0.0000000E+00  0.2479339E-01
      1        -12.478213   1.000000
      2         -9.126644   1.000000
      3         -5.198322   1.000000
      4         -3.979667   1.000000
      5         -2.970588   1.000000
      6         -0.629547   0.000000
      7          0.912475   0.000000
      8          1.052312   0.000000
      9          3.102037   0.000000
     10          3.265165   0.000000
     11          3.916783   0.000000
     12          5.153961   0.000000
     13          5.295136   0.000000
     14          5.732282   0.000000
     15          6.526429   0.000000
     16          6.858197   0.000000
 
  0.3181818E+00  0.9090909E-01  0.0000000E+00  0.2479339E-01
      1        -12.198626   1.000000
      2         -9.415302   1.000000
      3         -5.274840   1.000000
      4         -4.109152   1.000000
      5         -3.179633   1.000000
      6         -0.582832   0.000000
      7          0.705930   0.000000
      8          1.031896   0.000000
      9          3.216944   0.000000
     10          3.505509   0.000000
     11          4.077864   0.000000
     12          5.314799   0.000000
     13          5.597229   0.000000
     14          6.051116   0.000000
     15          6.426219   0.000000
     16          6.756373   0.000000
 
  0.3636364E+00  0.9090909E-01  0.0000000E+00  0.2479339E-01
      1        -11.917625   1.000000
      2         -9.723752   1.000000
      3         -5.282608   1.000000
      4         -4.166186   1.000000
      5         -3.419618   1.000000
      6         -0.458285   0.000000
      7          0.446136   0.000000
      8          1.056096   0.000000
      9          3.097246   0.000000
     10          3.884574   0.000000
     11          4.375870   0.000000
     12          5.393827   0.000000
     13          5.787736   0.000000
     14          6.007991   0.000000
     15          6.409295   0.000000
     16          6.688243   0.000000
 
  0.4090909E+00  0.9090909E-01  0.0000000E+00  0.2479339E-01
      1        -11.680986   1.000000
      2         -9.986235   1.000000
      3         -5.264451   1.000000
      4         -4.152112   1.000000
      5         -3.637526   1.000000
      6         -0.288641   0.000000
      7          0.204790   0.000000
      8          1.076194   0.000000
      9          2.963928   0.000000
     10          4.317708   0.000000
     11          4.731224   0.000000
     12          5.254561   0.000000
     13          5.536453   0.000000
     14          5.885247   0.000000
     15          6.349899   0.000000
     16          6.837485   0.000000
 
  0.4545455E+00  0.9090909E-01  0.0000000E+00  0.1239669E-01
      1        -11.579574   1.000000
      2        -10.097868   1.000000
      3         -5.254306   1.000000
      4         -4.120991   1.000000
      5         -3.741095   1.000000
      6         -0.156847   0.000000
      7          0.051159   0.000000
      8          1.084362   0.000000
      9          2.910560   0.000000
     10          4.758572   0.000000
     11          4.774677   0.000000
     12          5.070039   0.000000
     13          5.321552   0.000000
     14          5.876185   0.000000
     15          6.228178   0.000000
     16          7.153923   0.000000
 
  0.1363636E+00  0.1363636E+00  0.0000000E+00  0.1239669E-01
      1        -12.983901   1.000000
      2         -8.725540   1.000000
      3         -4.645648   1.000000
      4         -3.634101   1.000000
      5         -2.755344   1.000000
      6         -0.114291   0.000000
      7          0.453317   0.000000
      8          1.471036   0.000000
      9          2.729275   0.000000
     10          2.742072   0.000000
     11          3.595393   0.000000
     12          4.666414   0.000000
     13          5.098473   0.000000
     14          5.480423   0.000000
     15          6.377943   0.000000
     16          6.725345   0.000000
 
  0.1818182E+00  0.1363636E+00  0.0000000E+00  0.2479339E-01
      1        -12.776172   1.000000
      2         -8.857517   1.000000
      3         -4.890315   1.000000
      4         -3.976697   1.000000
      5         -2.789927   1.000000
      6         -0.201114   0.000000
      7          0.541625   0.000000
      8          1.437019   0.000000
      9          2.872283   0.000000
     10          2.970997   0.000000
     11          3.653258   0.000000
     12          4.839650   0.000000
     13          5.157214   0.000000
     14          5.441466   0.000000
     15          6.693525   0.000000
     16          6.791961   0.000000
 
  0.2272727E+00  0.1363636E+00  0.0000000E+00  0.2479339E-01
      1        -12.534108   1.000000
      2         -9.056579   1.000000
      3         -5.065623   1.000000
      4         -4.242727   1.000000
      5         -2.888530   1.000000
      6         -0.292290   0.000000
      7          0.599196   0.000000
      8          1.324872   0.000000
      9          3.070224   0.000000
     10          3.230570   0.000000
     11          3.831329   0.000000
     12          4.990302   0.000000
     13          5.085774   0.000000
     14          5.671477   0.000000
     15          6.588105   0.000000
     16          6.916499   0.000000
 
  0.2727273E+00  0.1363636E+00  0.0000000E+00  0.2479339E-01
      1        -12.264521   1.000000
      2         -9.318121   1.000000
      3         -5.176110   1.000000
      4         -4.410047   1.000000
      5         -3.059078   1.000000
      6         -0.318079   0.000000
      7          0.583889   0.000000
      8          1.189895   0.000000
      9          3.289739   0.000000
     10          3.474422   0.000000
     11          4.029045   0.000000
     12          5.047502   0.000000
     13          5.309093   0.000000
     14          5.988594   0.000000
     15          6.440449   0.000000
     16          6.829950   0.000000
 
  0.3181818E+00  0.1363636E+00  0.0000000E+00  0.2479339E-01
      1        -11.980442   1.000000
      2         -9.618153   1.000000
      3         -5.244767   1.000000
      4         -4.464326   1.000000
      5         -3.284542   1.000000
      6         -0.275665   0.000000
      7          0.511600   0.000000
      8          1.082213   0.000000
      9          3.303724   0.000000
     10          3.793844   0.000000
     11          4.282994   0.000000
     12          5.302726   0.000000
     13          5.520161   0.000000
     14          6.247042   0.000000
     15          6.351109   0.000000
     16          6.608345   0.000000
 
  0.3636364E+00  0.1363636E+00  0.0000000E+00  0.2479339E-01
      1        -11.710649   1.000000
      2         -9.911088   1.000000
      3         -5.291229   1.000000
      4         -4.415591   1.000000
      5         -3.525444   1.000000
      6         -0.192850   0.000000
      7          0.411604   0.000000
      8          1.020504   0.000000
      9          3.177262   0.000000
     10          4.200297   0.000000
     11          4.630157   0.000000
     12          5.412344   0.000000
     13          5.703082   0.000000
     14          5.795065   0.000000
     15          6.524259   0.000000
     16          6.740235   0.000000
 
  0.4090909E+00  0.1363636E+00  0.0000000E+00  0.2479339E-01
      1        -11.522929   1.000000
      2        -10.114501   1.000000
      3         -5.317027   1.000000
      4         -4.325823   1.000000
      5         -3.710781   1.000000
      6         -0.118209   0.000000
      7          0.329786   0.000000
      8          0.995953   0.000000
      9          3.080663   0.000000
     10          4.652659   0.000000
     11          5.003076   0.000000
     12          5.139531   0.000000
     13          5.387504   0.000000
     14          5.907294   0.000000
     15          6.182488   0.000000
     16          7.162433   0.000000
 
  0.1818182E+00  0.1818182E+00  0.0000000E+00  0.1239669E-01
      1        -12.552830   1.000000
      2         -9.032550   1.000000
      3         -4.982873   1.000000
      4         -4.374523   1.000000
      5         -2.861949   1.000000
      6         -0.061722   0.000000
      7          0.373635   0.000000
      8          1.467150   0.000000
      9          3.097512   0.000000
     10          3.157647   0.000000
     11          3.746852   0.000000
     12          4.960213   0.000000
     13          5.027022   0.000000
     14          5.658657   0.000000
     15          6.464845   0.000000
     16          7.157519   0.000000
 
  0.2272727E+00  0.1818182E+00  0.0000000E+00  0.2479339E-01
      1        -12.298039   1.000000
      2         -9.265761   1.000000
      3         -5.034860   1.000000
      4         -4.667834   1.000000
      5         -2.995142   1.000000
      6         -0.040633   0.000000
      7          0.289951   0.000000
      8          1.461620   0.000000
      9          3.304226   0.000000
     10          3.449825   0.000000
     11          3.969259   0.000000
     12          4.777582   0.000000
     13          5.210225   0.000000
     14          5.953422   0.000000
     15          6.266757   0.000000
     16          7.212136   0.000000
 
  0.2727273E+00  0.1818182E+00  0.0000000E+00  0.2479339E-01
      1        -12.020145   1.000000
      2         -9.544780   1.000000
      3         -5.152106   1.000000
      4         -4.742524   1.000000
      5         -3.187919   1.000000
      6         -0.131467   0.000000
      7          0.349759   0.000000
      8          1.387906   0.000000
      9          3.483673   0.000000
     10          3.758469   0.000000
     11          4.229015   0.000000
     12          4.836025   0.000000
     13          5.334913   0.000000
     14          6.228818   0.000000
     15          6.304621   0.000000
     16          6.815317   0.000000
 
  0.3181818E+00  0.1818182E+00  0.0000000E+00  0.2479339E-01
      1        -11.736370   1.000000
      2         -9.841941   1.000000
      3         -5.307662   1.000000
      4         -4.638817   1.000000
      5         -3.419432   1.000000
      6         -0.232870   0.000000
      7          0.488792   0.000000
      8          1.258878   0.000000
      9          3.467826   0.000000
     10          4.124863   0.000000
     11          4.525469   0.000000
     12          5.113582   0.000000
     13          5.466141   0.000000
     14          6.141815   0.000000
     15          6.480929   0.000000
     16          6.693895   0.000000
 
  0.3636364E+00  0.1818182E+00  0.0000000E+00  0.2479339E-01
      1        -11.488720   1.000000
      2        -10.103509   1.000000
      3         -5.413041   1.000000
      4         -4.482971   1.000000
      5         -3.644074   1.000000
      6         -0.300147   0.000000
      7          0.661187   0.000000
      8          1.098999   0.000000
      9          3.371751   0.000000
     10          4.550716   0.000000
     11          4.845214   0.000000
     12          5.207827   0.000000
     13          5.617700   0.000000
     14          5.798758   0.000000
     15          6.368811   0.000000
     16          6.884856   0.000000
 
  0.4090909E+00  0.1818182E+00  0.0000000E+00  0.1239669E-01
      1        -11.377157   1.000000
      2        -10.220806   1.000000
      3         -5.449065   1.000000
      4         -4.393999   1.000000
      5         -3.755812   1.000000
      6         -0.323195   0.000000
      7          0.785202   0.000000
      8          0.980607   0.000000
      9          3.328202   0.000000
     10          4.876197   0.000000
     11          5.098053   0.000000
     12          5.109679   0.000000
     13          5.285282   0.000000
     14          5.925593   0.000000
     15          6.212650   0.000000
     16          7.194210   0.000000
 
  0.2272727E+00  0.2272727E+00  0.0000000E+00  0.1239669E-01
      1        -12.033700   1.000000
      2         -9.518437   1.000000
      3         -5.037657   1.000000
      4         -4.923565   1.000000
      5         -3.152626   1.000000
      6         -0.046156   0.000000
      7          0.234282   0.000000
      8          1.556755   0.000000
      9          3.560402   0.000000
     10          3.752678   0.000000
     11          4.212793   0.000000
     12          4.607622   0.000000
     13          5.236860   0.000000
     14          6.184403   0.000000
     15          6.283431   0.000000
     16          7.191962   0.000000
 
  0.2727273E+00  0.2272727E+00  0.0000000E+00  0.2479339E-01
      1        -11.751045   1.000000
      2         -9.800644   1.000000
      3         -5.311766   1.000000
      4         -4.768090   1.000000
      5         -3.354478   1.000000
      6         -0.279050   0.000000
      7          0.462113   0.000000