Automatically generated mesh
      52
Reciprocal lattice
    0.00000000000000    0.00000000000000    0.00000000000000             1
    0.04545454545455    0.00000000000000    0.00000000000000             6
    0.09090909090909    0.00000000000000    0.00000000000000             6
    0.13636363636363    0.00000000000000    0.00000000000000             6
    0.18181818181818    0.00000000000000    0.00000000000000             6
    0.22727272727273    0.00000000000000    0.00000000000000             6
    0.27272727272727    0.00000000000000    0.00000000000000             6
    0.31818181818182    0.00000000000000    0.00000000000000             6
    0.36363636363637    0.00000000000000    0.00000000000000             6
    0.40909090909091    0.00000000000000    0.00000000000000             6
    0.45454545454545    0.00000000000000    0.00000000000000             6
    0.50000000000000    0.00000000000000    0.00000000000000             3
    0.04545454545455    0.04545454545455    0.00000000000000             6
    0.09090909090909    0.04545454545455    0.00000000000000            12
    0.13636363636363    0.04545454545455    0.00000000000000            12
    0.18181818181818    0.04545454545455    0.00000000000000            12
    0.22727272727273    0.04545454545455    0.00000000000000            12
    0.27272727272727    0.04545454545455    0.00000000000000            12
    0.31818181818182    0.04545454545455    0.00000000000000            12
    0.36363636363637    0.04545454545455    0.00000000000000            12
    0.40909090909091    0.04545454545455    0.00000000000000            12
    0.45454545454545    0.04545454545455    0.00000000000000            12
    0.09090909090909    0.09090909090909    0.00000000000000             6
    0.13636363636363    0.09090909090909    0.00000000000000            12
    0.18181818181818    0.09090909090909    0.00000000000000            12
    0.22727272727273    0.09090909090909    0.00000000000000            12
    0.27272727272727    0.09090909090909    0.00000000000000            12
    0.31818181818182    0.09090909090909    0.00000000000000            12
    0.36363636363637    0.09090909090909    0.00000000000000            12
    0.40909090909091    0.09090909090909    0.00000000000000            12
    0.45454545454545    0.09090909090909    0.00000000000000             6
    0.13636363636363    0.13636363636363    0.00000000000000             6
    0.18181818181818    0.13636363636363    0.00000000000000            12
    0.22727272727273    0.13636363636363    0.00000000000000            12
    0.27272727272727    0.13636363636363    0.00000000000000            12
    0.31818181818182    0.13636363636363    0.00000000000000            12
    0.36363636363637    0.13636363636363    0.00000000000000            12
    0.40909090909091    0.13636363636363    0.00000000000000            12
    0.18181818181818    0.18181818181818    0.00000000000000             6
    0.22727272727273    0.18181818181818    0.00000000000000            12
    0.27272727272727    0.18181818181818    0.00000000000000            12
    0.31818181818182    0.18181818181818    0.00000000000000            12
    0.36363636363637    0.18181818181818    0.00000000000000            12
    0.40909090909091    0.18181818181818    0.00000000000000             6
    0.22727272727273    0.22727272727273    0.00000000000000             6
    0.27272727272727    0.22727272727273    0.00000000000000            12
    0.31818181818182    0.22727272727273    0.00000000000000            12
    0.36363636363637    0.22727272727273    0.00000000000000            12
    0.27272727272727    0.27272727272727    0.00000000000000             6
    0.31818181818182    0.27272727272727    0.00000000000000            12
    0.36363636363637    0.27272727272727    0.00000000000000             6
    0.31818181818182    0.31818181818182    0.00000000000000             6
