       N       E                     dE             d eps       ncg     rms          rms(c)
DAV:   1     0.282145664522E+02    0.28215E+02   -0.17018E+03  1696   0.195E+02
DAV:   2    -0.593090260040E+01   -0.34145E+02   -0.32325E+02  2344   0.602E+01
DAV:   3    -0.812321271119E+01   -0.21923E+01   -0.21837E+01  2256   0.169E+01
DAV:   4    -0.816535174535E+01   -0.42139E-01   -0.42134E-01  2080   0.264E+00
DAV:   5    -0.816675613004E+01   -0.14044E-02   -0.14044E-02  2624   0.475E-01
DAV:   6    -0.816676653148E+01   -0.10401E-04   -0.10401E-04  2184   0.359E-02
DAV:   7    -0.816676667322E+01   -0.14174E-06   -0.14170E-06  2528   0.656E-03
DAV:   8    -0.816676667464E+01   -0.14186E-08   -0.14570E-08  1736   0.525E-04
DAV:   9    -0.816676667491E+01   -0.26705E-09   -0.26854E-09  1752   0.243E-04
DAV:  10    -0.816676667502E+01   -0.11300E-09   -0.10167E-09  1400   0.156E-04
DAV:  11    -0.816676667505E+01   -0.35243E-10   -0.45213E-10  1240   0.996E-05
DAV:  12    -0.816676667508E+01   -0.26148E-10   -0.21102E-10  1064   0.677E-05    0.159E+00
DAV:  13    -0.815148956295E+01    0.15277E-01   -0.22138E-03  1920   0.186E-01    0.141E+00
DAV:  14    -0.812155687689E+01    0.29933E-01   -0.98643E-02  2296   0.110E+00    0.207E-01
DAV:  15    -0.811827905018E+01    0.32778E-02   -0.89685E-03  2032   0.365E-01    0.793E-02
DAV:  16    -0.811794412329E+01    0.33493E-03   -0.23091E-03  2264   0.171E-01    0.472E-02
DAV:  17    -0.811784194695E+01    0.10218E-03   -0.53016E-04  2184   0.812E-02    0.331E-02
DAV:  18    -0.811783571095E+01    0.62360E-05   -0.14048E-04  1816   0.480E-02    0.543E-03
DAV:  19    -0.811783473775E+01    0.97320E-06   -0.54024E-06  2128   0.107E-02
   1 F= -.81178347E+01 E0= -.81178347E+01  d E =-.115891E-11
