 vasp.6.4.2 20Jul23 (build Nov 14 2023 12:59:38) complex                        
  
 executed on             LinuxIFC date 2023.12.17  08:38:11
 running   16 mpi-ranks, on    1 nodes
 distrk:  each k-point on   16 cores,    1 groups
 distr:  one band on NCORE=   4 cores,    4 groups


--------------------------------------------------------------------------------------------------------


 INCAR:
   ENCUT = 193.577625
   ALGO = Normal
   NELM = 200
   NELMIN = 6
   NELMDL = -12
   EDIFF = 1.0E-6
   AMIX = 0.1
   BMIX = 0.0001
   NBANDS = 16
   PREC = Accurate
   IVDW = 0
   ISPIN = 1
   ADDGRID = .TRUE.
   LASPH = .TRUE.
   NSW = 0
   EDIFFG = -0.010
   IBRION = 2
   ISIF = -1
   POTIM = 0.5
   STRESSTYPE = 2
   ISMEAR = 0
   SIGMA = 0.01
   LORBIT = 10
   NEDOS = 6001
   NWRITE = 1
   LWAVE = .FALSE.
   LCHARG = .FALSE.
   NCORE = 4
   LPLANE = .TRUE.

 POTCAR:    PAW_PBE Sb_GW 21Mar2012               
 POTCAR:    PAW_PBE Sb_GW 21Mar2012               
  local pseudopotential read in
  partial core-charges read in
  partial kinetic energy density read in
  kinetic energy density of atom read in
  atomic valenz-charges read in
  non local Contribution for L=           0  read in
    real space projection operators read in
  non local Contribution for L=           0  read in
    real space projection operators read in
  non local Contribution for L=           1  read in
    real space projection operators read in
  non local Contribution for L=           1  read in
    real space projection operators read in
  non local Contribution for L=           2  read in
    real space projection operators read in
  non local Contribution for L=           2  read in
    real space projection operators read in
  non local Contribution for L=           3  read in
    real space projection operators read in
  non local Contribution for L=           3  read in
    real space projection operators read in
    PAW grid and wavefunctions read in
 
   number of l-projection  operators is LMAX  =           8
   number of lm-projection operators is LMMAX =          32
 
  PAW_PBE Sb_GW 21Mar2012               :
 energy of atom  1       EATOM= -149.9515
 kinetic energy error for atom=    0.0054 (will be added to EATOM!!)
 
 
 POSCAR: pnictogen honeycomb monolayer
  positions in direct lattice
  velocities in cartesian coordinates
 exchange correlation table for  LEXCH =        8
   RHO(1)=    0.500       N(1)  =     2000
   RHO(2)=  100.500       N(2)  =     4000
 


--------------------------------------------------------------------------------------------------------


 ion  position               nearest neighbor table
   1  0.667  0.333  0.449-   2 2.89   2 2.89   2 2.89
   2  0.333  0.667  0.551-   1 2.89   1 2.89   1 2.89
 
  LATTYP: Found a hexagonal cell.
 ALAT       =     4.1133665497
 C/A-ratio  =     3.8897578922
  
  Lattice vectors:
  
 A1 = (   4.1133665497,   0.0000000000,   0.0000000000)
 A2 = (  -2.0566832748,   3.5622799271,   0.0000000000)
 A3 = (   0.0000000000,   0.0000000000,  16.0000000000)


Analysis of symmetry for initial positions (statically):
=====================================================================
 Subroutine PRICEL returns:
 Original cell was already a primitive cell.
 

 Routine SETGRP: Setting up the symmetry group for a 
 hexagonal supercell.


 Subroutine GETGRP returns: Found 12 space group operations
 (whereof 12 operations were pure point group operations)
 out of a pool of 24 trial point group operations.


The static configuration has the point symmetry D_3d.


Analysis of symmetry for dynamics (positions and initial velocities):
=====================================================================
 Subroutine PRICEL returns:
 Original cell was already a primitive cell.
 

 Routine SETGRP: Setting up the symmetry group for a 
 hexagonal supercell.


 Subroutine GETGRP returns: Found 12 space group operations
 (whereof 12 operations were pure point group operations)
 out of a pool of 24 trial point group operations.


The dynamic configuration has the point symmetry D_3d.


 Subroutine INISYM returns: Found 12 space group operations
 (whereof 12 operations are pure point group operations),
 and found     1 'primitive' translations


----------------------------------------------------------------------------------------

                                     Primitive cell                                     

  volume of cell :     234.4474

  direct lattice vectors                    reciprocal lattice vectors
     4.113366550  0.000000000  0.000000000     0.243109868  0.140359548  0.000000000
    -2.056683275  3.562279927  0.000000000     0.000000000  0.280719096  0.000000000
     0.000000000  0.000000000 16.000000000     0.000000000  0.000000000  0.062500000

  length of vectors
     4.113366550  4.113366550 16.000000000     0.280719096  0.280719096  0.062500000

  position of ions in fractional coordinates (direct lattice)
     0.666666667  0.333333333  0.448625398
     0.333333333  0.666666667  0.551374602

  ion indices of the primitive-cell ions
   primitive index   ion index
                 1           1
                 2           2

----------------------------------------------------------------------------------------

 
 
 KPOINTS: kpoints                                 

Automatic generation of k-mesh.
 Grid dimensions read from file:
 generate k-points for:   22   22    1

 Generating k-lattice:

  Cartesian coordinates                     Fractional coordinates (reciprocal lattice)
     0.011050449  0.006379979  0.000000000     0.045454545  0.000000000  0.000000000
     0.000000000  0.012759959  0.000000000     0.000000000  0.045454545  0.000000000
     0.000000000  0.000000000  0.062500000     0.000000000  0.000000000  1.000000000

  Length of vectors
     0.012759959  0.012759959  0.062500000

  Shift w.r.t. Gamma in fractional coordinates (k-lattice)
     0.000000000  0.000000000  0.000000000

 
 Subroutine IBZKPT returns following result:
 ===========================================
 
 Found     52 irreducible k-points:
 
 Following reciprocal coordinates:
            Coordinates               Weight
  0.000000  0.000000  0.000000      1.000000
  0.045455  0.000000  0.000000      6.000000
  0.090909  0.000000  0.000000      6.000000
  0.136364  0.000000  0.000000      6.000000
  0.181818  0.000000  0.000000      6.000000
  0.227273  0.000000  0.000000      6.000000
  0.272727  0.000000  0.000000      6.000000
  0.318182  0.000000  0.000000      6.000000
  0.363636  0.000000  0.000000      6.000000
  0.409091  0.000000  0.000000      6.000000
  0.454545  0.000000  0.000000      6.000000
  0.500000  0.000000  0.000000      3.000000
  0.045455  0.045455  0.000000      6.000000
  0.090909  0.045455  0.000000     12.000000
  0.136364  0.045455  0.000000     12.000000
  0.181818  0.045455  0.000000     12.000000
  0.227273  0.045455  0.000000     12.000000
  0.272727  0.045455  0.000000     12.000000
  0.318182  0.045455  0.000000     12.000000
  0.363636  0.045455  0.000000     12.000000
  0.409091  0.045455  0.000000     12.000000
  0.454545  0.045455  0.000000     12.000000
  0.090909  0.090909  0.000000      6.000000
  0.136364  0.090909  0.000000     12.000000
  0.181818  0.090909  0.000000     12.000000
  0.227273  0.090909  0.000000     12.000000
  0.272727  0.090909  0.000000     12.000000
  0.318182  0.090909  0.000000     12.000000
  0.363636  0.090909  0.000000     12.000000
  0.409091  0.090909  0.000000     12.000000
  0.454545  0.090909  0.000000      6.000000
  0.136364  0.136364  0.000000      6.000000
  0.181818  0.136364  0.000000     12.000000
  0.227273  0.136364  0.000000     12.000000
  0.272727  0.136364  0.000000     12.000000
  0.318182  0.136364  0.000000     12.000000
  0.363636  0.136364  0.000000     12.000000
  0.409091  0.136364  0.000000     12.000000
  0.181818  0.181818  0.000000      6.000000
  0.227273  0.181818  0.000000     12.000000
  0.272727  0.181818  0.000000     12.000000
  0.318182  0.181818  0.000000     12.000000
  0.363636  0.181818  0.000000     12.000000
  0.409091  0.181818  0.000000      6.000000
  0.227273  0.227273  0.000000      6.000000
  0.272727  0.227273  0.000000     12.000000
  0.318182  0.227273  0.000000     12.000000
  0.363636  0.227273  0.000000     12.000000
  0.272727  0.272727  0.000000      6.000000
  0.318182  0.272727  0.000000     12.000000
  0.363636  0.272727  0.000000      6.000000
  0.318182  0.318182  0.000000      6.000000
 
 Following cartesian coordinates:
            Coordinates               Weight
  0.000000  0.000000  0.000000      1.000000
  0.011050  0.006380  0.000000      6.000000
  0.022101  0.012760  0.000000      6.000000
  0.033151  0.019140  0.000000      6.000000
  0.044202  0.025520  0.000000      6.000000
  0.055252  0.031900  0.000000      6.000000
  0.066303  0.038280  0.000000      6.000000
  0.077353  0.044660  0.000000      6.000000
  0.088404  0.051040  0.000000      6.000000
  0.099454  0.057420  0.000000      6.000000
  0.110504  0.063800  0.000000      6.000000
  0.121555  0.070180  0.000000      3.000000
  0.011050  0.019140  0.000000      6.000000
  0.022101  0.025520  0.000000     12.000000
  0.033151  0.031900  0.000000     12.000000
  0.044202  0.038280  0.000000     12.000000
  0.055252  0.044660  0.000000     12.000000
  0.066303  0.051040  0.000000     12.000000
  0.077353  0.057420  0.000000     12.000000
  0.088404  0.063800  0.000000     12.000000
  0.099454  0.070180  0.000000     12.000000
  0.110504  0.076560  0.000000     12.000000
  0.022101  0.038280  0.000000      6.000000
  0.033151  0.044660  0.000000     12.000000
  0.044202  0.051040  0.000000     12.000000
  0.055252  0.057420  0.000000     12.000000
  0.066303  0.063800  0.000000     12.000000
  0.077353  0.070180  0.000000     12.000000
  0.088404  0.076560  0.000000     12.000000
  0.099454  0.082940  0.000000     12.000000
  0.110504  0.089320  0.000000      6.000000
  0.033151  0.057420  0.000000      6.000000
  0.044202  0.063800  0.000000     12.000000
  0.055252  0.070180  0.000000     12.000000
  0.066303  0.076560  0.000000     12.000000
  0.077353  0.082940  0.000000     12.000000
  0.088404  0.089320  0.000000     12.000000
  0.099454  0.095700  0.000000     12.000000
  0.044202  0.076560  0.000000      6.000000
  0.055252  0.082940  0.000000     12.000000
  0.066303  0.089320  0.000000     12.000000
  0.077353  0.095700  0.000000     12.000000
  0.088404  0.102080  0.000000     12.000000
  0.099454  0.108460  0.000000      6.000000
  0.055252  0.095700  0.000000      6.000000
  0.066303  0.102080  0.000000     12.000000
  0.077353  0.108460  0.000000     12.000000
  0.088404  0.114840  0.000000     12.000000
  0.066303  0.114840  0.000000      6.000000
  0.077353  0.121220  0.000000     12.000000
  0.088404  0.127600  0.000000      6.000000
  0.077353  0.133980  0.000000      6.000000
 


--------------------------------------------------------------------------------------------------------




 Dimension of arrays:
   k-points           NKPTS =     52   k-points in BZ     NKDIM =     52   number of bands    NBANDS=     16
   number of dos      NEDOS =   6001   number of ions     NIONS =      2
   non local maximal  LDIM  =      8   non local SUM 2l+1 LMDIM =     32
   total plane-waves  NPLWV =  32000
   max r-space proj   IRMAX =      1   max aug-charges    IRDMAX=  60791
   dimension x,y,z NGX =    20 NGY =   20 NGZ =   80
   dimension x,y,z NGXF=    40 NGYF=   40 NGZF=  160
   support grid    NGXF=    80 NGYF=   80 NGZF=  320
   ions per type =               2
   NGX,Y,Z   is equivalent  to a cutoff of   8.08,  8.08,  8.31 a.u.
   NGXF,Y,Z  is equivalent  to a cutoff of  16.17, 16.17, 16.62 a.u.

 SYSTEM =  unknown system                          
 POSCAR =  pnictogen honeycomb monolayer           

 Startparameter for this run:
   NWRITE =      1    write-flag & timer
   PREC   = accura    normal or accurate (medium, high low for compatibility)
   ISTART =      0    job   : 0-new  1-cont  2-samecut
   ICHARG =      2    charge: 1-file 2-atom 10-const
   ISPIN  =      1    spin polarized calculation?
   LNONCOLLINEAR =      F non collinear calculations
   LSORBIT =      F    spin-orbit coupling
   INIWAV =      1    electr: 0-lowe 1-rand  2-diag
   LASPH  =      T    aspherical Exc in radial PAW
 Electronic Relaxation 1
   ENCUT  =  193.6 eV  14.23 Ry    3.77 a.u.   4.67  4.67 18.15*2*pi/ulx,y,z
   ENINI  =  193.6     initial cutoff
   ENAUG  =  560.6 eV  augmentation charge cutoff
   NELM   =    200;   NELMIN=  6; NELMDL=-12     # of ELM steps 
   EDIFF  = 0.1E-05   stopping-criterion for ELM
   LREAL  =      F    real-space projection
   NLSPLINE    = F    spline interpolate recip. space projectors
   LCOMPAT=      F    compatible to vasp.4.4
   GGA_COMPAT  = T    GGA compatible to vasp.4.4-vasp.4.6
   LMAXPAW     = -100 max onsite density
   LMAXMIX     =    2 max onsite mixed and CHGCAR
   VOSKOWN=      0    Vosko Wilk Nusair interpolation
   ROPT   =    0.00000
 Ionic relaxation
   EDIFFG = -.1E-01   stopping-criterion for IOM
   NSW    =      0    number of steps for IOM
   NBLOCK =      1;   KBLOCK =      1    inner block; outer block 
   IBRION =     -1    ionic relax: 0-MD 1-quasi-New 2-CG
   NFREE  =      1    steps in history (QN), initial steepest desc. (CG)
   ISIF   =     -1    stress and relaxation
   IWAVPR =     10    prediction:  0-non 1-charg 2-wave 3-comb
   ISYM   =      2    0-nonsym 1-usesym 2-fastsym
   LCORR  =      T    Harris-Foulkes like correction to forces

   POTIM  = 0.5000    time-step for ionic-motion
   TEIN   =    0.0    initial temperature
   TEBEG  =    0.0;   TEEND  =   0.0 temperature during run
   SMASS  =  -3.00    Nose mass-parameter (am)
   estimated Nose-frequenzy (Omega)   =  0.10E-29 period in steps = 0.13E+47 mass=  -0.387E-27a.u.
   SCALEE = 1.0000    scale energy and forces
   NPACO  =    256;   APACO  = 10.0  distance and # of slots for P.C.
   PSTRESS=    0.0 pullay stress

  Mass of Ions in am
   POMASS = 121.75
  Ionic Valenz
   ZVAL   =   5.00
  Atomic Wigner-Seitz radii
   RWIGS  =  -1.00
  virtual crystal weights 
   VCA    =   1.00
   NELECT =      10.0000    total number of electrons
   NUPDOWN=      -1.0000    fix difference up-down

 DOS related values:
   EMIN   =  10.00;   EMAX   =-10.00  energy-range for DOS
   EFERMI =   0.00;   METHOD = LEGACY      
   ISMEAR =     0;   SIGMA  =   0.01  broadening in eV -4-tet -1-fermi 0-gaus

 Electronic relaxation 2 (details)
   IALGO  =     38    algorithm
   LDIAG  =      T    sub-space diagonalisation (order eigenvalues)
   LSUBROT=      F    optimize rotation matrix (better conditioning)
   TURBO    =      0    0=normal 1=particle mesh
   IRESTART =      0    0=no restart 2=restart with 2 vectors
   NREBOOT  =      0    no. of reboots
   NMIN     =      0    reboot dimension
   EREF     =   0.00    reference energy to select bands
   IMIX   =      4    mixing-type and parameters
     AMIX     =   0.10;   BMIX     =  0.00
     AMIX_MAG =   0.40;   BMIX_MAG =  0.00
     AMIN     =   0.10
     WC   =   100.;   INIMIX=   1;  MIXPRE=   1;  MAXMIX= -45

 Intra band minimization:
   WEIMIN = 0.0000     energy-eigenvalue tresh-hold
   EBREAK =  0.16E-07  absolut break condition
   DEPER  =   0.30     relativ break condition  

   TIME   =   0.40     timestep for ELM

  volume/ion in A,a.u.               =     117.22       791.06
  Fermi-wavevector in a.u.,A,eV,Ry     =   0.571996  1.080916  4.451547  0.327179
  Thomas-Fermi vector in A             =   1.612688
 
 Write flags
   LWAVE        =      F    write WAVECAR
   LDOWNSAMPLE  =      F    k-point downsampling of WAVECAR
   LCHARG       =      F    write CHGCAR
   LVTOT        =      F    write LOCPOT, total local potential
   LVHAR        =      F    write LOCPOT, Hartree potential only
   LELF         =      F    write electronic localiz. function (ELF)
   LORBIT       =     10    0 simple, 1 ext, 2 COOP (PROOUT), +10 PAW based schemes


 Dipole corrections
   LMONO  =      F    monopole corrections only (constant potential shift)
   LDIPOL =      F    correct potential (dipole corrections)
   IDIPOL =      0    1-x, 2-y, 3-z, 4-all directions 
   EPSILON=  1.0000000 bulk dielectric constant

 Exchange correlation treatment:
   GGA     =    --    GGA type
   LEXCH   =     8    internal setting for exchange type
   LIBXC   =     F    Libxc                    
   VOSKOWN =     0    Vosko Wilk Nusair interpolation
   LHFCALC =     F    Hartree Fock is set to
   LHFONE  =     F    Hartree Fock one center treatment
   AEXX    =    0.0000 exact exchange contribution

 Linear response parameters
   LEPSILON=     F    determine dielectric tensor
   LRPA    =     F    only Hartree local field effects (RPA)
   LNABLA  =     F    use nabla operator in PAW spheres
   LVEL    =     F    velocity operator in full k-point grid
   CSHIFT  =0.1000    complex shift for real part using Kramers Kronig
   OMEGAMAX=  -1.0    maximum frequency
   DEG_THRESHOLD= 0.2000000E-02 threshold for treating states as degnerate
   RTIME   =   -0.100 relaxation time in fs
  (WPLASMAI=    0.000 imaginary part of plasma frequency in eV, 0.658/RTIME)
   DFIELD  = 0.0000000 0.0000000 0.0000000 field for delta impulse in time
 
  Optional k-point grid parameters
   LKPOINTS_OPT  =     F    use optional k-point grid
   KPOINTS_OPT_MODE=     1    mode for optional k-point grid
 
 Orbital magnetization related:
   ORBITALMAG=     F  switch on orbital magnetization
   LCHIMAG   =     F  perturbation theory with respect to B field
   DQ        =  0.001000  dq finite difference perturbation B field
   LLRAUG    =     F  two centre corrections for induced B field
   LBONE     =     F  B-component reconstruction in AE one-centre
   LVGVCALC  =     T  calculate vGv susceptibility
   LVGVAPPL  =     F  apply vGv susceptibility instead of pGv for G=0

 Random number generation:
   RANDOM_GENERATOR = DEFAULT
   PCG_SEED         = not used


--------------------------------------------------------------------------------------------------------


 Static calculation
 charge density and potential will be updated during run
 non-spin polarized calculation
 Variant of blocked Davidson
 Davidson routine will perform the subspace rotation
 perform sub-space diagonalisation
    after iterative eigenvector-optimisation
 modified Broyden-mixing scheme, WC =      100.0
 initial mixing is a Kerker type mixing with AMIX =  0.1000 and BMIX =      0.0001
 Hartree-type preconditioning will be used
 using additional bands           11
 reciprocal scheme for non local part
 use partial core corrections
 calculate Harris-corrections to forces 
   (improved forces if not selfconsistent)
 use gradient corrections 
 use of overlap-Matrix (Vanderbilt PP)
 Gauss-broadening in eV      SIGMA  =   0.01


--------------------------------------------------------------------------------------------------------


  energy-cutoff  :      193.58
  volume of cell :      234.45
      direct lattice vectors                 reciprocal lattice vectors
     4.113366550  0.000000000  0.000000000     0.243109868  0.140359548  0.000000000
    -2.056683275  3.562279927  0.000000000     0.000000000  0.280719096  0.000000000
     0.000000000  0.000000000 16.000000000     0.000000000  0.000000000  0.062500000

  length of vectors
     4.113366550  4.113366550 16.000000000     0.280719096  0.280719096  0.062500000


 
 k-points in units of 2pi/SCALE and weight: kpoints                                 
   0.00000000  0.00000000  0.00000000       0.002
   0.01105045  0.00637998  0.00000000       0.012
   0.02210090  0.01275996  0.00000000       0.012
   0.03315135  0.01913994  0.00000000       0.012
   0.04420179  0.02551992  0.00000000       0.012
   0.05525224  0.03189990  0.00000000       0.012
   0.06630269  0.03827988  0.00000000       0.012
   0.07735314  0.04465986  0.00000000       0.012
   0.08840359  0.05103984  0.00000000       0.012
   0.09945404  0.05741982  0.00000000       0.012
   0.11050449  0.06379979  0.00000000       0.012
   0.12155493  0.07017977  0.00000000       0.006
   0.01105045  0.01913994  0.00000000       0.012
   0.02210090  0.02551992  0.00000000       0.025
   0.03315135  0.03189990  0.00000000       0.025
   0.04420179  0.03827988  0.00000000       0.025
   0.05525224  0.04465986  0.00000000       0.025
   0.06630269  0.05103984  0.00000000       0.025
   0.07735314  0.05741982  0.00000000       0.025
   0.08840359  0.06379979  0.00000000       0.025
   0.09945404  0.07017977  0.00000000       0.025
   0.11050449  0.07655975  0.00000000       0.025
   0.02210090  0.03827988  0.00000000       0.012
   0.03315135  0.04465986  0.00000000       0.025
   0.04420179  0.05103984  0.00000000       0.025
   0.05525224  0.05741982  0.00000000       0.025
   0.06630269  0.06379979  0.00000000       0.025
   0.07735314  0.07017977  0.00000000       0.025
   0.08840359  0.07655975  0.00000000       0.025
   0.09945404  0.08293973  0.00000000       0.025
   0.11050449  0.08931971  0.00000000       0.012
   0.03315135  0.05741982  0.00000000       0.012
   0.04420179  0.06379979  0.00000000       0.025
   0.05525224  0.07017977  0.00000000       0.025
   0.06630269  0.07655975  0.00000000       0.025
   0.07735314  0.08293973  0.00000000       0.025
   0.08840359  0.08931971  0.00000000       0.025
   0.09945404  0.09569969  0.00000000       0.025
   0.04420179  0.07655975  0.00000000       0.012
   0.05525224  0.08293973  0.00000000       0.025
   0.06630269  0.08931971  0.00000000       0.025
   0.07735314  0.09569969  0.00000000       0.025
   0.08840359  0.10207967  0.00000000       0.025
   0.09945404  0.10845965  0.00000000       0.012
   0.05525224  0.09569969  0.00000000       0.012
   0.06630269  0.10207967  0.00000000       0.025
   0.07735314  0.10845965  0.00000000       0.025
   0.08840359  0.11483963  0.00000000       0.025
   0.06630269  0.11483963  0.00000000       0.012
   0.07735314  0.12121961  0.00000000       0.025
   0.08840359  0.12759959  0.00000000       0.012
   0.07735314  0.13397957  0.00000000       0.012
 
 k-points in reciprocal lattice and weights: kpoints                                 
   0.00000000  0.00000000  0.00000000       0.002
   0.04545455  0.00000000  0.00000000       0.012
   0.09090909  0.00000000  0.00000000       0.012
   0.13636364  0.00000000  0.00000000       0.012
   0.18181818  0.00000000  0.00000000       0.012
   0.22727273  0.00000000  0.00000000       0.012
   0.27272727  0.00000000  0.00000000       0.012
   0.31818182  0.00000000  0.00000000       0.012
   0.36363636  0.00000000  0.00000000       0.012
   0.40909091  0.00000000  0.00000000       0.012
   0.45454545  0.00000000  0.00000000       0.012
   0.50000000  0.00000000  0.00000000       0.006
   0.04545455  0.04545455  0.00000000       0.012
   0.09090909  0.04545455  0.00000000       0.025
   0.13636364  0.04545455  0.00000000       0.025
   0.18181818  0.04545455  0.00000000       0.025
   0.22727273  0.04545455  0.00000000       0.025
   0.27272727  0.04545455  0.00000000       0.025
   0.31818182  0.04545455  0.00000000       0.025
   0.36363636  0.04545455  0.00000000       0.025
   0.40909091  0.04545455  0.00000000       0.025
   0.45454545  0.04545455  0.00000000       0.025
   0.09090909  0.09090909  0.00000000       0.012
   0.13636364  0.09090909  0.00000000       0.025
   0.18181818  0.09090909  0.00000000       0.025
   0.22727273  0.09090909  0.00000000       0.025
   0.27272727  0.09090909  0.00000000       0.025
   0.31818182  0.09090909  0.00000000       0.025
   0.36363636  0.09090909  0.00000000       0.025
   0.40909091  0.09090909  0.00000000       0.025
   0.45454545  0.09090909  0.00000000       0.012
   0.13636364  0.13636364  0.00000000       0.012
   0.18181818  0.13636364  0.00000000       0.025
   0.22727273  0.13636364  0.00000000       0.025
   0.27272727  0.13636364  0.00000000       0.025
   0.31818182  0.13636364  0.00000000       0.025
   0.36363636  0.13636364  0.00000000       0.025
   0.40909091  0.13636364  0.00000000       0.025
   0.18181818  0.18181818  0.00000000       0.012
   0.22727273  0.18181818  0.00000000       0.025
   0.27272727  0.18181818  0.00000000       0.025
   0.31818182  0.18181818  0.00000000       0.025
   0.36363636  0.18181818  0.00000000       0.025
   0.40909091  0.18181818  0.00000000       0.012
   0.22727273  0.22727273  0.00000000       0.012
   0.27272727  0.22727273  0.00000000       0.025
   0.31818182  0.22727273  0.00000000       0.025
   0.36363636  0.22727273  0.00000000       0.025
   0.27272727  0.27272727  0.00000000       0.012
   0.31818182  0.27272727  0.00000000       0.025
   0.36363636  0.27272727  0.00000000       0.012
   0.31818182  0.31818182  0.00000000       0.012
 
 position of ions in fractional coordinates (direct lattice) 
   0.66666667  0.33333333  0.44862540
   0.33333333  0.66666667  0.55137460
 
 position of ions in cartesian coordinates  (Angst):
   2.05668327  1.18742664  7.17800637
   0.00000000  2.37485328  8.82199363
 


--------------------------------------------------------------------------------------------------------


 k-point   1 :   0.0000 0.0000 0.0000  plane waves:    1453
 k-point   2 :   0.0455 0.0000 0.0000  plane waves:    1440
 k-point   3 :   0.0909 0.0000 0.0000  plane waves:    1428
 k-point   4 :   0.1364 0.0000 0.0000  plane waves:    1444
 k-point   5 :   0.1818 0.0000 0.0000  plane waves:    1446
 k-point   6 :   0.2273 0.0000 0.0000  plane waves:    1430
 k-point   7 :   0.2727 0.0000 0.0000  plane waves:    1440
 k-point   8 :   0.3182 0.0000 0.0000  plane waves:    1430
 k-point   9 :   0.3636 0.0000 0.0000  plane waves:    1436
 k-point  10 :   0.4091 0.0000 0.0000  plane waves:    1438
 k-point  11 :   0.4545 0.0000 0.0000  plane waves:    1444
 k-point  12 :   0.5000 0.0000 0.0000  plane waves:    1440
 k-point  13 :   0.0455 0.0455 0.0000  plane waves:    1441
 k-point  14 :   0.0909 0.0455 0.0000  plane waves:    1449
 k-point  15 :   0.1364 0.0455 0.0000  plane waves:    1446
 k-point  16 :   0.1818 0.0455 0.0000  plane waves:    1444
 k-point  17 :   0.2273 0.0455 0.0000  plane waves:    1436
 k-point  18 :   0.2727 0.0455 0.0000  plane waves:    1432
 k-point  19 :   0.3182 0.0455 0.0000  plane waves:    1435
 k-point  20 :   0.3636 0.0455 0.0000  plane waves:    1439
 k-point  21 :   0.4091 0.0455 0.0000  plane waves:    1439
 k-point  22 :   0.4545 0.0455 0.0000  plane waves:    1434
 k-point  23 :   0.0909 0.0909 0.0000  plane waves:    1451
 k-point  24 :   0.1364 0.0909 0.0000  plane waves:    1445
 k-point  25 :   0.1818 0.0909 0.0000  plane waves:    1438
 k-point  26 :   0.2273 0.0909 0.0000  plane waves:    1442
 k-point  27 :   0.2727 0.0909 0.0000  plane waves:    1431
 k-point  28 :   0.3182 0.0909 0.0000  plane waves:    1432
 k-point  29 :   0.3636 0.0909 0.0000  plane waves:    1433
 k-point  30 :   0.4091 0.0909 0.0000  plane waves:    1436
 k-point  31 :   0.4545 0.0909 0.0000  plane waves:    1442
 k-point  32 :   0.1364 0.1364 0.0000  plane waves:    1447
 k-point  33 :   0.1818 0.1364 0.0000  plane waves:    1439
 k-point  34 :   0.2273 0.1364 0.0000  plane waves:    1433
 k-point  35 :   0.2727 0.1364 0.0000  plane waves:    1432
 k-point  36 :   0.3182 0.1364 0.0000  plane waves:    1436
 k-point  37 :   0.3636 0.1364 0.0000  plane waves:    1426
 k-point  38 :   0.4091 0.1364 0.0000  plane waves:    1429
 k-point  39 :   0.1818 0.1818 0.0000  plane waves:    1427
 k-point  40 :   0.2273 0.1818 0.0000  plane waves:    1433
 k-point  41 :   0.2727 0.1818 0.0000  plane waves:    1434
 k-point  42 :   0.3182 0.1818 0.0000  plane waves:    1428
 k-point  43 :   0.3636 0.1818 0.0000  plane waves:    1424
 k-point  44 :   0.4091 0.1818 0.0000  plane waves:    1420
 k-point  45 :   0.2273 0.2273 0.0000  plane waves:    1437
 k-point  46 :   0.2727 0.2273 0.0000  plane waves:    1430
 k-point  47 :   0.3182 0.2273 0.0000  plane waves:    1422
 k-point  48 :   0.3636 0.2273 0.0000  plane waves:    1421
 k-point  49 :   0.2727 0.2727 0.0000  plane waves:    1411
 k-point  50 :   0.3182 0.2727 0.0000  plane waves:    1414
 k-point  51 :   0.3636 0.2727 0.0000  plane waves:    1410
 k-point  52 :   0.3182 0.3182 0.0000  plane waves:    1395

 maximum and minimum number of plane-waves per node :       372      346

 maximum number of plane-waves:      1453
 maximum index in each direction: 
   IXMAX=    4   IYMAX=    4   IZMAX=   18
   IXMIN=   -5   IYMIN=   -4   IZMIN=  -18


 parallel 3D FFT for wavefunctions:
    minimum data exchange during FFTs selected (reduces bandwidth)
 parallel 3D FFT for charge:
    minimum data exchange during FFTs selected (reduces bandwidth)


 total amount of memory used by VASP MPI-rank0    40045. kBytes
=======================================================================

   base      :      30000. kBytes
   nonl-proj :       4803. kBytes
   fftplans  :       2639. kBytes
   grid      :       1250. kBytes
   one-center:         49. kBytes
   wavefun   :       1304. kBytes
 
     INWAV:  cpu time      0.0000: real time      0.0005
 Broyden mixing: mesh for mixing (old mesh)
   NGX =  9   NGY =  9   NGZ = 37
  (NGX  = 40   NGY  = 40   NGZ  =160)
  gives a total of   2997 points

 initial charge density was supplied:
 charge density of overlapping atoms calculated
 number of electron      10.0000000 magnetization 
 keeping initial charge density in first step


--------------------------------------------------------------------------------------------------------


 Maximum index for augmentation-charges         3590 (set IRDMAX)


--------------------------------------------------------------------------------------------------------


 First call to EWALD:  gamma=   0.287
 Maximum number of real-space cells 4x 4x 1
 Maximum number of reciprocal cells 2x 2x 6

    FEWALD:  cpu time      0.0014: real time      0.0014


--------------------------------------- Ionic step        1  -------------------------------------------




--------------------------------------- Iteration      1(   1)  ---------------------------------------


    POTLOK:  cpu time      0.0113: real time      0.0113
    SETDIJ:  cpu time      0.5012: real time      0.5015
     EDDAV:  cpu time      0.3988: real time      0.3991
       DOS:  cpu time      0.0019: real time      0.0019
    --------------------------------------------
      LOOP:  cpu time      0.9133: real time      0.9139

 eigenvalue-minimisations  :  1696
 total energy-change (2. order) : 0.2821457E+02  (-0.1701755E+03)
 number of electron      10.0000000 magnetization 
 augmentation part       10.0000000 magnetization 

 Free energy of the ion-electron system (eV)
  ---------------------------------------------------
  alpha Z        PSCENC =         2.97593478
  Ewald energy   TEWEN  =       213.91894841
  -Hartree energ DENC   =      -467.82089709
  -exchange      EXHF   =         0.00000000
  -V(xc)+E(xc)   XCENC  =       -92.70009852
  PAW double counting   =       327.35893868     -219.44694627
  entropy T*S    EENTRO =        -0.00008306
  eigenvalues    EBANDS =       -35.96340243
  atomic energy  EATOM  =       299.89217194
  Solvation  Ediel_sol  =         0.00000000
  ---------------------------------------------------
  free energy    TOTEN  =        28.21456645 eV

  energy without entropy =       28.21464951  energy(sigma->0) =       28.21460798


--------------------------------------------------------------------------------------------------------




--------------------------------------- Iteration      1(   2)  ---------------------------------------


     EDDAV:  cpu time      0.4668: real time      0.4678
       DOS:  cpu time      0.0014: real time      0.0014
    --------------------------------------------
      LOOP:  cpu time      0.4681: real time      0.4692

 eigenvalue-minimisations  :  2344
 total energy-change (2. order) :-0.3414547E+02  (-0.3232495E+02)
 number of electron      10.0000000 magnetization 
 augmentation part       10.0000000 magnetization 

 Free energy of the ion-electron system (eV)
  ---------------------------------------------------
  alpha Z        PSCENC =         2.97593478
  Ewald energy   TEWEN  =       213.91894841
  -Hartree energ DENC   =      -467.82089709
  -exchange      EXHF   =         0.00000000
  -V(xc)+E(xc)   XCENC  =       -92.70009852
  PAW double counting   =       327.35893868     -219.44694627
  entropy T*S    EENTRO =        -0.00000000
  eigenvalues    EBANDS =       -70.10895454
  atomic energy  EATOM  =       299.89217194
  Solvation  Ediel_sol  =         0.00000000
  ---------------------------------------------------
  free energy    TOTEN  =        -5.93090260 eV

  energy without entropy =       -5.93090260  energy(sigma->0) =       -5.93090260


--------------------------------------------------------------------------------------------------------




--------------------------------------- Iteration      1(   3)  ---------------------------------------


     EDDAV:  cpu time      0.4370: real time      0.4374
       DOS:  cpu time      0.0015: real time      0.0015
    --------------------------------------------
      LOOP:  cpu time      0.4386: real time      0.4389

 eigenvalue-minimisations  :  2256
 total energy-change (2. order) :-0.2192310E+01  (-0.2183709E+01)
 number of electron      10.0000000 magnetization 
 augmentation part       10.0000000 magnetization 

 Free energy of the ion-electron system (eV)
  ---------------------------------------------------
  alpha Z        PSCENC =         2.97593478
  Ewald energy   TEWEN  =       213.91894841
  -Hartree energ DENC   =      -467.82089709
  -exchange      EXHF   =         0.00000000
  -V(xc)+E(xc)   XCENC  =       -92.70009852
  PAW double counting   =       327.35893868     -219.44694627
  entropy T*S    EENTRO =        -0.00000000
  eigenvalues    EBANDS =       -72.30126465
  atomic energy  EATOM  =       299.89217194
  Solvation  Ediel_sol  =         0.00000000
  ---------------------------------------------------
  free energy    TOTEN  =        -8.12321271 eV

  energy without entropy =       -8.12321271  energy(sigma->0) =       -8.12321271


--------------------------------------------------------------------------------------------------------




--------------------------------------- Iteration      1(   4)  ---------------------------------------


     EDDAV:  cpu time      0.3934: real time      0.3937
       DOS:  cpu time      0.0016: real time      0.0016
    --------------------------------------------
      LOOP:  cpu time      0.3950: real time      0.3952

 eigenvalue-minimisations  :  2080
 total energy-change (2. order) :-0.4213903E-01  (-0.4213431E-01)
 number of electron      10.0000000 magnetization 
 augmentation part       10.0000000 magnetization 

 Free energy of the ion-electron system (eV)
  ---------------------------------------------------
  alpha Z        PSCENC =         2.97593478
  Ewald energy   TEWEN  =       213.91894841
  -Hartree energ DENC   =      -467.82089709
  -exchange      EXHF   =         0.00000000
  -V(xc)+E(xc)   XCENC  =       -92.70009852
  PAW double counting   =       327.35893868     -219.44694627
  entropy T*S    EENTRO =        -0.00000000
  eigenvalues    EBANDS =       -72.34340368
  atomic energy  EATOM  =       299.89217194
  Solvation  Ediel_sol  =         0.00000000
  ---------------------------------------------------
  free energy    TOTEN  =        -8.16535175 eV

  energy without entropy =       -8.16535175  energy(sigma->0) =       -8.16535175


--------------------------------------------------------------------------------------------------------




--------------------------------------- Iteration      1(   5)  ---------------------------------------


     EDDAV:  cpu time      0.4910: real time      0.4915
       DOS:  cpu time      0.0016: real time      0.0016
    --------------------------------------------
      LOOP:  cpu time      0.4925: real time      0.4931

 eigenvalue-minimisations  :  2624
 total energy-change (2. order) :-0.1404385E-02  (-0.1404378E-02)
 number of electron      10.0000000 magnetization 
 augmentation part       10.0000000 magnetization 

 Free energy of the ion-electron system (eV)
  ---------------------------------------------------
  alpha Z        PSCENC =         2.97593478
  Ewald energy   TEWEN  =       213.91894841
  -Hartree energ DENC   =      -467.82089709
  -exchange      EXHF   =         0.00000000
  -V(xc)+E(xc)   XCENC  =       -92.70009852
  PAW double counting   =       327.35893868     -219.44694627
  entropy T*S    EENTRO =        -0.00000000
  eigenvalues    EBANDS =       -72.34480807
  atomic energy  EATOM  =       299.89217194
  Solvation  Ediel_sol  =         0.00000000
  ---------------------------------------------------
  free energy    TOTEN  =        -8.16675613 eV

  energy without entropy =       -8.16675613  energy(sigma->0) =       -8.16675613


--------------------------------------------------------------------------------------------------------




--------------------------------------- Iteration      1(   6)  ---------------------------------------


     EDDAV:  cpu time      0.4134: real time      0.4136
       DOS:  cpu time      0.0015: real time      0.0015
    --------------------------------------------
      LOOP:  cpu time      0.4149: real time      0.4151

 eigenvalue-minimisations  :  2184
 total energy-change (2. order) :-0.1040144E-04  (-0.1040137E-04)
 number of electron      10.0000000 magnetization 
 augmentation part       10.0000000 magnetization 

 Free energy of the ion-electron system (eV)
  ---------------------------------------------------
  alpha Z        PSCENC =         2.97593478
  Ewald energy   TEWEN  =       213.91894841
  -Hartree energ DENC   =      -467.82089709
  -exchange      EXHF   =         0.00000000
  -V(xc)+E(xc)   XCENC  =       -92.70009852
  PAW double counting   =       327.35893868     -219.44694627
  entropy T*S    EENTRO =        -0.00000000
  eigenvalues    EBANDS =       -72.34481847
  atomic energy  EATOM  =       299.89217194
  Solvation  Ediel_sol  =         0.00000000
  ---------------------------------------------------
  free energy    TOTEN  =        -8.16676653 eV

  energy without entropy =       -8.16676653  energy(sigma->0) =       -8.16676653


--------------------------------------------------------------------------------------------------------




--------------------------------------- Iteration      1(   7)  ---------------------------------------


     EDDAV:  cpu time      0.4777: real time      0.4781
       DOS:  cpu time      0.0015: real time      0.0015
    --------------------------------------------
      LOOP:  cpu time      0.4792: real time      0.4796

 eigenvalue-minimisations  :  2528
 total energy-change (2. order) :-0.1417405E-06  (-0.1417047E-06)
 number of electron      10.0000000 magnetization 
 augmentation part       10.0000000 magnetization 

 Free energy of the ion-electron system (eV)
  ---------------------------------------------------
  alpha Z        PSCENC =         2.97593478
  Ewald energy   TEWEN  =       213.91894841
  -Hartree energ DENC   =      -467.82089709
  -exchange      EXHF   =         0.00000000
  -V(xc)+E(xc)   XCENC  =       -92.70009852
  PAW double counting   =       327.35893868     -219.44694627
  entropy T*S    EENTRO =        -0.00000000
  eigenvalues    EBANDS =       -72.34481861
  atomic energy  EATOM  =       299.89217194
  Solvation  Ediel_sol  =         0.00000000
  ---------------------------------------------------
  free energy    TOTEN  =        -8.16676667 eV

  energy without entropy =       -8.16676667  energy(sigma->0) =       -8.16676667


--------------------------------------------------------------------------------------------------------




--------------------------------------- Iteration      1(   8)  ---------------------------------------


     EDDAV:  cpu time      0.3581: real time      0.3583
       DOS:  cpu time      0.0015: real time      0.0015
    --------------------------------------------
      LOOP:  cpu time      0.3596: real time      0.3598

 eigenvalue-minimisations  :  1736
 total energy-change (2. order) :-0.1418641E-08  (-0.1456951E-08)
 number of electron      10.0000000 magnetization 
 augmentation part       10.0000000 magnetization 

 Free energy of the ion-electron system (eV)
  ---------------------------------------------------
  alpha Z        PSCENC =         2.97593478
  Ewald energy   TEWEN  =       213.91894841
  -Hartree energ DENC   =      -467.82089709
  -exchange      EXHF   =         0.00000000
  -V(xc)+E(xc)   XCENC  =       -92.70009852
  PAW double counting   =       327.35893868     -219.44694627
  entropy T*S    EENTRO =        -0.00000000
  eigenvalues    EBANDS =       -72.34481861
  atomic energy  EATOM  =       299.89217194
  Solvation  Ediel_sol  =         0.00000000
  ---------------------------------------------------
  free energy    TOTEN  =        -8.16676667 eV

  energy without entropy =       -8.16676667  energy(sigma->0) =       -8.16676667


--------------------------------------------------------------------------------------------------------




--------------------------------------- Iteration      1(   9)  ---------------------------------------


     EDDAV:  cpu time      0.3583: real time      0.3585
       DOS:  cpu time      0.0015: real time      0.0015
    --------------------------------------------
      LOOP:  cpu time      0.3599: real time      0.3601

 eigenvalue-minimisations  :  1752
 total energy-change (2. order) :-0.2670504E-09  (-0.2685370E-09)
 number of electron      10.0000000 magnetization 
 augmentation part       10.0000000 magnetization 

 Free energy of the ion-electron system (eV)
  ---------------------------------------------------
  alpha Z        PSCENC =         2.97593478
  Ewald energy   TEWEN  =       213.91894841
  -Hartree energ DENC   =      -467.82089709
  -exchange      EXHF   =         0.00000000
  -V(xc)+E(xc)   XCENC  =       -92.70009852
  PAW double counting   =       327.35893868     -219.44694627
  entropy T*S    EENTRO =        -0.00000000
  eigenvalues    EBANDS =       -72.34481861
  atomic energy  EATOM  =       299.89217194
  Solvation  Ediel_sol  =         0.00000000
  ---------------------------------------------------
  free energy    TOTEN  =        -8.16676667 eV

  energy without entropy =       -8.16676667  energy(sigma->0) =       -8.16676667


--------------------------------------------------------------------------------------------------------




--------------------------------------- Iteration      1(  10)  ---------------------------------------


     EDDAV:  cpu time      0.3175: real time      0.3177
       DOS:  cpu time      0.0016: real time      0.0016
    --------------------------------------------
      LOOP:  cpu time      0.3191: real time      0.3193

 eigenvalue-minimisations  :  1400
 total energy-change (2. order) :-0.1130047E-09  (-0.1016671E-09)
 number of electron      10.0000000 magnetization 
 augmentation part       10.0000000 magnetization 

 Free energy of the ion-electron system (eV)
  ---------------------------------------------------
  alpha Z        PSCENC =         2.97593478
  Ewald energy   TEWEN  =       213.91894841
  -Hartree energ DENC   =      -467.82089709
  -exchange      EXHF   =         0.00000000
  -V(xc)+E(xc)   XCENC  =       -92.70009852
  PAW double counting   =       327.35893868     -219.44694627
  entropy T*S    EENTRO =        -0.00000000
  eigenvalues    EBANDS =       -72.34481861
  atomic energy  EATOM  =       299.89217194
  Solvation  Ediel_sol  =         0.00000000
  ---------------------------------------------------
  free energy    TOTEN  =        -8.16676668 eV

  energy without entropy =       -8.16676668  energy(sigma->0) =       -8.16676668


--------------------------------------------------------------------------------------------------------




--------------------------------------- Iteration      1(  11)  ---------------------------------------


     EDDAV:  cpu time      0.2884: real time      0.2886
       DOS:  cpu time      0.0015: real time      0.0015
    --------------------------------------------
      LOOP:  cpu time      0.2899: real time      0.2901

 eigenvalue-minimisations  :  1240
 total energy-change (2. order) :-0.3524292E-10  (-0.4521270E-10)
 number of electron      10.0000000 magnetization 
 augmentation part       10.0000000 magnetization 

 Free energy of the ion-electron system (eV)
  ---------------------------------------------------
  alpha Z        PSCENC =         2.97593478
  Ewald energy   TEWEN  =       213.91894841
  -Hartree energ DENC   =      -467.82089709
  -exchange      EXHF   =         0.00000000
  -V(xc)+E(xc)   XCENC  =       -92.70009852
  PAW double counting   =       327.35893868     -219.44694627
  entropy T*S    EENTRO =        -0.00000000
  eigenvalues    EBANDS =       -72.34481861
  atomic energy  EATOM  =       299.89217194
  Solvation  Ediel_sol  =         0.00000000
  ---------------------------------------------------
  free energy    TOTEN  =        -8.16676668 eV

  energy without entropy =       -8.16676668  energy(sigma->0) =       -8.16676668


--------------------------------------------------------------------------------------------------------




--------------------------------------- Iteration      1(  12)  ---------------------------------------


     EDDAV:  cpu time      0.2575: real time      0.2577
       DOS:  cpu time      0.0016: real time      0.0016
    CHARGE:  cpu time      0.0318: real time      0.0318
    MIXING:  cpu time      0.0007: real time      0.0007
    --------------------------------------------
      LOOP:  cpu time      0.2915: real time      0.2917

 eigenvalue-minimisations  :  1064
 total energy-change (2. order) :-0.2614797E-10  (-0.2110235E-10)
 number of electron      10.0000000 magnetization 
 augmentation part       -1.6409898 magnetization 

 Broyden mixing:
  rms(total) = 0.15908E+00    rms(broyden)= 0.15849E+00
  rms(prec ) = 0.18279E+00
  weight for this iteration     100.00

 Free energy of the ion-electron system (eV)
  ---------------------------------------------------
  alpha Z        PSCENC =         2.97593478
  Ewald energy   TEWEN  =       213.91894841
  -Hartree energ DENC   =      -467.82089709
  -exchange      EXHF   =         0.00000000
  -V(xc)+E(xc)   XCENC  =       -92.70009852
  PAW double counting   =       327.35893868     -219.44694627
  entropy T*S    EENTRO =        -0.00000000
  eigenvalues    EBANDS =       -72.34481861
  atomic energy  EATOM  =       299.89217194
  Solvation  Ediel_sol  =         0.00000000
  ---------------------------------------------------
  free energy    TOTEN  =        -8.16676668 eV

  energy without entropy =       -8.16676668  energy(sigma->0) =       -8.16676668


--------------------------------------------------------------------------------------------------------




--------------------------------------- Iteration      1(  13)  ---------------------------------------


    POTLOK:  cpu time      0.0106: real time      0.0106
    SETDIJ:  cpu time      0.5085: real time      0.5087
     EDDAV:  cpu time      0.3718: real time      0.3721
       DOS:  cpu time      0.0016: real time      0.0016
    CHARGE:  cpu time      0.0318: real time      0.0318
    MIXING:  cpu time      0.0007: real time      0.0007
    --------------------------------------------
      LOOP:  cpu time      0.9251: real time      0.9256

 eigenvalue-minimisations  :  1920
 total energy-change (2. order) : 0.1527711E-01  (-0.2213849E-03)
 number of electron      10.0000000 magnetization 
 augmentation part       -1.6386133 magnetization 

 Broyden mixing:
  rms(total) = 0.14120E+00    rms(broyden)= 0.14117E+00
  rms(prec ) = 0.16229E+00
  weight for this iteration     100.00

 eigenvalues of (default mixing * dielectric matrix)
  average eigenvalue GAMMA=   8.9525
  8.9525

 Free energy of the ion-electron system (eV)
  ---------------------------------------------------
  alpha Z        PSCENC =         2.97593478
  Ewald energy   TEWEN  =       213.91894841
  -Hartree energ DENC   =      -468.58034582
  -exchange      EXHF   =         0.00000000
  -V(xc)+E(xc)   XCENC  =       -92.65928280
  PAW double counting   =       331.64299781     -223.74819592
  entropy T*S    EENTRO =        -0.00000000
  eigenvalues    EBANDS =       -71.59371796
  atomic energy  EATOM  =       299.89217194
  Solvation  Ediel_sol  =         0.00000000
  ---------------------------------------------------
  free energy    TOTEN  =        -8.15148956 eV

  energy without entropy =       -8.15148956  energy(sigma->0) =       -8.15148956


--------------------------------------------------------------------------------------------------------




--------------------------------------- Iteration      1(  14)  ---------------------------------------


    POTLOK:  cpu time      0.0108: real time      0.0108
    SETDIJ:  cpu time      0.4803: real time      0.4804
     EDDAV:  cpu time      0.3796: real time      0.3799
       DOS:  cpu time      0.0014: real time      0.0014
    CHARGE:  cpu time      0.0260: real time      0.0260
    MIXING:  cpu time      0.0005: real time      0.0006
    --------------------------------------------
      LOOP:  cpu time      0.8987: real time      0.8991

 eigenvalue-minimisations  :  2296
 total energy-change (2. order) : 0.2993269E-01  (-0.9864297E-02)
 number of electron      10.0000000 magnetization 
 augmentation part       -1.6210929 magnetization 

 Broyden mixing:
  rms(total) = 0.20742E-01    rms(broyden)= 0.20740E-01
  rms(prec ) = 0.27992E-01
  weight for this iteration     100.00

 eigenvalues of (default mixing * dielectric matrix)
  average eigenvalue GAMMA=   6.7373
  3.7092  9.7655

 Free energy of the ion-electron system (eV)
  ---------------------------------------------------
  alpha Z        PSCENC =         2.97593478
  Ewald energy   TEWEN  =       213.91894841
  -Hartree energ DENC   =      -474.22268996
  -exchange      EXHF   =         0.00000000
  -V(xc)+E(xc)   XCENC  =       -92.31421746
  PAW double counting   =       365.59874227     -257.83431895
  entropy T*S    EENTRO =        -0.00000000
  eigenvalues    EBANDS =       -66.13612790
  atomic energy  EATOM  =       299.89217194
  Solvation  Ediel_sol  =         0.00000000
  ---------------------------------------------------
  free energy    TOTEN  =        -8.12155688 eV

  energy without entropy =       -8.12155688  energy(sigma->0) =       -8.12155688


--------------------------------------------------------------------------------------------------------




--------------------------------------- Iteration      1(  15)  ---------------------------------------


    POTLOK:  cpu time      0.0102: real time      0.0102
    SETDIJ:  cpu time      0.3015: real time      0.3016
     EDDAV:  cpu time      0.2681: real time      0.2683
       DOS:  cpu time      0.0010: real time      0.0010
    CHARGE:  cpu time      0.0207: real time      0.0207
    MIXING:  cpu time      0.0004: real time      0.0004
    --------------------------------------------
      LOOP:  cpu time      0.6019: real time      0.6022

 eigenvalue-minimisations  :  2032
 total energy-change (2. order) : 0.3277827E-02  (-0.8968514E-03)
 number of electron      10.0000000 magnetization 
 augmentation part       -1.6234216 magnetization 

 Broyden mixing:
  rms(total) = 0.79270E-02    rms(broyden)= 0.79236E-02
  rms(prec ) = 0.10199E-01
  weight for this iteration     100.00

 eigenvalues of (default mixing * dielectric matrix)
  average eigenvalue GAMMA=   5.4608
  9.7358  0.9449  5.7017

 Free energy of the ion-electron system (eV)
  ---------------------------------------------------
  alpha Z        PSCENC =         2.97593478
  Ewald energy   TEWEN  =       213.91894841
  -Hartree energ DENC   =      -473.36107439
  -exchange      EXHF   =         0.00000000
  -V(xc)+E(xc)   XCENC  =       -92.29239690
  PAW double counting   =       367.58107964     -259.81694886
  entropy T*S    EENTRO =        -0.00000000
  eigenvalues    EBANDS =       -67.01599367
  atomic energy  EATOM  =       299.89217194
  Solvation  Ediel_sol  =         0.00000000
  ---------------------------------------------------
  free energy    TOTEN  =        -8.11827905 eV

  energy without entropy =       -8.11827905  energy(sigma->0) =       -8.11827905


--------------------------------------------------------------------------------------------------------




--------------------------------------- Iteration      1(  16)  ---------------------------------------


    POTLOK:  cpu time      0.0077: real time      0.0077
    SETDIJ:  cpu time      0.2982: real time      0.2983
     EDDAV:  cpu time      0.2931: real time      0.2933
       DOS:  cpu time      0.0010: real time      0.0010
    CHARGE:  cpu time      0.0195: real time      0.0195
    MIXING:  cpu time      0.0004: real time      0.0004
    --------------------------------------------
      LOOP:  cpu time      0.6199: real time      0.6202

 eigenvalue-minimisations  :  2264
 total energy-change (2. order) : 0.3349269E-03  (-0.2309084E-03)
 number of electron      10.0000000 magnetization 
 augmentation part       -1.6253653 magnetization 

 Broyden mixing:
  rms(total) = 0.47183E-02    rms(broyden)= 0.47166E-02
  rms(prec ) = 0.57862E-02
  weight for this iteration     100.00

 eigenvalues of (default mixing * dielectric matrix)
  average eigenvalue GAMMA=   4.8293
  9.2951  0.9961  4.5130  4.5130

 Free energy of the ion-electron system (eV)
  ---------------------------------------------------
  alpha Z        PSCENC =         2.97593478
  Ewald energy   TEWEN  =       213.91894841
  -Hartree energ DENC   =      -472.83521800
  -exchange      EXHF   =         0.00000000
  -V(xc)+E(xc)   XCENC  =       -92.29746532
  PAW double counting   =       366.96948207     -259.20045067
  entropy T*S    EENTRO =        -0.00000000
  eigenvalues    EBANDS =       -67.54134732
  atomic energy  EATOM  =       299.89217194
  Solvation  Ediel_sol  =         0.00000000
  ---------------------------------------------------
  free energy    TOTEN  =        -8.11794412 eV

  energy without entropy =       -8.11794412  energy(sigma->0) =       -8.11794412


--------------------------------------------------------------------------------------------------------




--------------------------------------- Iteration      1(  17)  ---------------------------------------


    POTLOK:  cpu time      0.0076: real time      0.0077
    SETDIJ:  cpu time      0.2990: real time      0.2991
     EDDAV:  cpu time      0.2875: real time      0.2876
       DOS:  cpu time      0.0010: real time      0.0010
    CHARGE:  cpu time      0.0195: real time      0.0195
    MIXING:  cpu time      0.0005: real time      0.0005
    --------------------------------------------
      LOOP:  cpu time      0.6151: real time      0.6154

 eigenvalue-minimisations  :  2184
 total energy-change (2. order) : 0.1021763E-03  (-0.5301648E-04)
 number of electron      10.0000000 magnetization 
 augmentation part       -1.6250092 magnetization 

 Broyden mixing:
  rms(total) = 0.33082E-02    rms(broyden)= 0.33082E-02
  rms(prec ) = 0.38365E-02
  weight for this iteration     100.00

 eigenvalues of (default mixing * dielectric matrix)
  average eigenvalue GAMMA=   4.9772
 10.0819  8.0596  4.6694  0.9814  1.0937

 Free energy of the ion-electron system (eV)
  ---------------------------------------------------
  alpha Z        PSCENC =         2.97593478
  Ewald energy   TEWEN  =       213.91894841
  -Hartree energ DENC   =      -472.97772195
  -exchange      EXHF   =         0.00000000
  -V(xc)+E(xc)   XCENC  =       -92.29947774
  PAW double counting   =       366.49599422     -258.72593591
  entropy T*S    EENTRO =        -0.00000000
  eigenvalues    EBANDS =       -67.39775569
  atomic energy  EATOM  =       299.89217194
  Solvation  Ediel_sol  =         0.00000000
  ---------------------------------------------------
  free energy    TOTEN  =        -8.11784195 eV

  energy without entropy =       -8.11784195  energy(sigma->0) =       -8.11784195


--------------------------------------------------------------------------------------------------------




--------------------------------------- Iteration      1(  18)  ---------------------------------------


    POTLOK:  cpu time      0.0077: real time      0.0077
    SETDIJ:  cpu time      0.2985: real time      0.2986
     EDDAV:  cpu time      0.2459: real time      0.2461
       DOS:  cpu time      0.0010: real time      0.0010
    CHARGE:  cpu time      0.0196: real time      0.0196
    MIXING:  cpu time      0.0005: real time      0.0005
    --------------------------------------------
      LOOP:  cpu time      0.5731: real time      0.5735

 eigenvalue-minimisations  :  1816
 total energy-change (2. order) : 0.6236004E-05  (-0.1404825E-04)
 number of electron      10.0000000 magnetization 
 augmentation part       -1.6257203 magnetization 

 Broyden mixing:
  rms(total) = 0.54322E-03    rms(broyden)= 0.54270E-03
  rms(prec ) = 0.65855E-03
  weight for this iteration     100.00

 eigenvalues of (default mixing * dielectric matrix)
  average eigenvalue GAMMA=   4.4372
  9.9312  7.2187  4.6558  2.8196  0.9991  0.9991

 Free energy of the ion-electron system (eV)
  ---------------------------------------------------
  alpha Z        PSCENC =         2.97593478
  Ewald energy   TEWEN  =       213.91894841
  -Hartree energ DENC   =      -472.83429278
  -exchange      EXHF   =         0.00000000
  -V(xc)+E(xc)   XCENC  =       -92.29593638
  PAW double counting   =       366.52227968     -258.75093913
  entropy T*S    EENTRO =        -0.00000000
  eigenvalues    EBANDS =       -67.54600222
  atomic energy  EATOM  =       299.89217194
  Solvation  Ediel_sol  =         0.00000000
  ---------------------------------------------------
  free energy    TOTEN  =        -8.11783571 eV

  energy without entropy =       -8.11783571  energy(sigma->0) =       -8.11783571


--------------------------------------------------------------------------------------------------------




--------------------------------------- Iteration      1(  19)  ---------------------------------------


    POTLOK:  cpu time      0.0077: real time      0.0078
    SETDIJ:  cpu time      0.3000: real time      0.3000
     EDDAV:  cpu time      0.2789: real time      0.2791
       DOS:  cpu time      0.0010: real time      0.0010
    --------------------------------------------
      LOOP:  cpu time      0.5876: real time      0.5879

 eigenvalue-minimisations  :  2128
 total energy-change (2. order) : 0.9732009E-06  (-0.5402388E-06)
 number of electron      10.0000000 magnetization 
 augmentation part       -1.6257203 magnetization 

 Free energy of the ion-electron system (eV)
  ---------------------------------------------------
  alpha Z        PSCENC =         2.97593478
  Ewald energy   TEWEN  =       213.91894841
  -Hartree energ DENC   =      -472.85403951
  -exchange      EXHF   =         0.00000000
  -V(xc)+E(xc)   XCENC  =       -92.29579511
  PAW double counting   =       366.57330577     -258.80248729
  entropy T*S    EENTRO =        -0.00000000
  eigenvalues    EBANDS =       -67.52587372
  atomic energy  EATOM  =       299.89217194
  Solvation  Ediel_sol  =         0.00000000
  ---------------------------------------------------
  free energy    TOTEN  =        -8.11783474 eV

  energy without entropy =       -8.11783474  energy(sigma->0) =       -8.11783474


--------------------------------------------------------------------------------------------------------




 average (electrostatic) potential at core
  the test charge radii are     1.1712
  (the norm of the test charge is              1.0000)
       1 -80.9069       2 -80.9069
 
 
 
 E-fermi :  -2.2433     XC(G=0):  -3.3507     alpha+bet : -2.6626

 Fermi energy:        -2.2432765950

 k-point     1 :       0.0000    0.0000    0.0000
  band No.  band energies     occupation 
      1     -13.5652      2.00000
      2      -8.5922      2.00000
      3      -2.8908      2.00000
      4      -2.2843      2.00000
      5      -2.2843      2.00000
      6      -0.7176      0.00000
      7       0.5060      0.00000
      8       0.5060      0.00000
      9       2.0897      0.00000
     10       2.1680      0.00000
     11       3.6261      0.00000
     12       4.5298      0.00000
     13       4.8442      0.00000
     14       5.8845      0.00000
     15       5.8845      0.00000
     16       6.4952      0.00000

 k-point     2 :       0.0455    0.0000    0.0000
  band No.  band energies     occupation 
      1     -13.5431      2.00000
      2      -8.5907      2.00000
      3      -2.8807      2.00000
      4      -2.5582      2.00000
      5      -2.3382      2.00000
      6      -0.4847      0.00000
      7       0.4455      0.00000
      8       0.5590      0.00000
      9       2.1201      0.00000
     10       2.1943      0.00000
     11       3.6527      0.00000
     12       4.5545      0.00000
     13       4.9236      0.00000
     14       5.6150      0.00000
     15       5.8538      0.00000
     16       6.5985      0.00000

 k-point     3 :       0.0909    0.0000    0.0000
  band No.  band energies     occupation 
      1     -13.4773      2.00000
      2      -8.5894      2.00000
      3      -3.1097      2.00000
      4      -2.8528      2.00000
      5      -2.4832      2.00000
      6      -0.1968      0.00000
      7       0.4345      0.00000
      8       0.6970      0.00000
      9       2.2085      0.00000
     10       2.2700      0.00000
     11       3.7063      0.00000
     12       4.6261      0.00000
     13       4.8718      0.00000
     14       5.5658      0.00000
     15       5.8025      0.00000
     16       6.2144      0.00000

 k-point     4 :       0.1364    0.0000    0.0000
  band No.  band energies     occupation 
      1     -13.3685      2.00000
      2      -8.5972      2.00000
      3      -3.7034      2.00000
      4      -2.8160      2.00000
      5      -2.6840      2.00000
      6      -0.3308      0.00000
      7       0.7629      0.00000
      8       0.8730      0.00000
      9       2.3281      0.00000
     10       2.4048      0.00000
     11       3.7411      0.00000
     12       4.5871      0.00000
     13       4.7757      0.00000
     14       5.7469      0.00000
     15       5.8031      0.00000
     16       6.1106      0.00000

 k-point     5 :       0.1818    0.0000    0.0000
  band No.  band energies     occupation 
      1     -13.2176      2.00000
      2      -8.6301      2.00000
      3      -4.2553      2.00000
      4      -2.9067      2.00000
      5      -2.7874      2.00000
      6      -0.6049      0.00000
      7       1.0401      0.00000
      8       1.0847      0.00000
      9       2.4421      0.00000
     10       2.5947      0.00000
     11       3.7654      0.00000
     12       4.5141      0.00000
     13       4.9574      0.00000
     14       5.4614      0.00000
     15       5.9105      0.00000
     16       6.5951      0.00000

 k-point     6 :       0.2273    0.0000    0.0000
  band No.  band energies     occupation 
      1     -13.0266      2.00000
      2      -8.7103      2.00000
      3      -4.7179      2.00000
      4      -3.1275      2.00000
      5      -2.7959      2.00000
      6      -0.8490      0.00000
      7       1.1673      0.00000
      8       1.1966      0.00000
      9       2.5684      0.00000
     10       2.7978      0.00000
     11       3.8467      0.00000
     12       4.6401      0.00000
     13       5.2190      0.00000
     14       5.2695      0.00000
     15       6.1535      0.00000
     16       6.6649      0.00000

 k-point     7 :       0.2727    0.0000    0.0000
  band No.  band energies     occupation 
      1     -12.7990      2.00000
      2      -8.8600      2.00000
      3      -5.0569      2.00000
      4      -3.3309      2.00000
      5      -2.8763      2.00000
      6      -0.9982      0.00000
      7       1.0875      0.00000
      8       1.2445      0.00000
      9       2.7647      0.00000
     10       2.9987      0.00000
     11       3.8894      0.00000
     12       4.8822      0.00000
     13       5.2922      0.00000
     14       5.5887      0.00000
     15       6.3615      0.00000
     16       6.5369      0.00000

 k-point     8 :       0.3182    0.0000    0.0000
  band No.  band energies     occupation 
      1     -12.5400      2.00000
      2      -9.0884      2.00000
      3      -5.2561      2.00000
      4      -3.5067      2.00000
      5      -3.0418      2.00000
      6      -1.0281      0.00000
      7       0.8621      0.00000
      8       1.2785      0.00000
      9       3.0323      0.00000
     10       3.1504      0.00000
     11       3.8867      0.00000
     12       5.0925      0.00000
     13       5.5486      0.00000
     14       5.9433      0.00000
     15       6.2516      0.00000
     16       7.0472      0.00000

 k-point     9 :       0.3636    0.0000    0.0000
  band No.  band energies     occupation 
      1     -12.2602      2.00000
      2      -9.3796      2.00000
      3      -5.3279      2.00000
      4      -3.6487      2.00000
      5      -3.2656      2.00000
      6      -0.9599      0.00000
      7       0.6132      0.00000
      8       1.2842      0.00000
      9       3.0966      0.00000
     10       3.4026      0.00000
     11       4.0236      0.00000
     12       5.1994      0.00000
     13       5.8886      0.00000
     14       5.9261      0.00000
     15       6.4863      0.00000
     16       6.8327      0.00000

 k-point    10 :       0.4091    0.0000    0.0000
  band No.  band energies     occupation 
      1     -11.9802      2.00000
      2      -9.6915      2.00000
      3      -5.3097      2.00000
      4      -3.7527      2.00000
      5      -3.4969      2.00000
      6      -0.8386      0.00000
      7       0.3881      0.00000
      8       1.2768      0.00000
      9       2.9661      0.00000
     10       3.7892      0.00000
     11       4.3079      0.00000
     12       5.1757      0.00000
     13       5.8779      0.00000
     14       6.0904      0.00000
     15       6.2892      0.00000
     16       6.6335      0.00000

 k-point    11 :       0.4545    0.0000    0.0000
  band No.  band energies     occupation 
      1     -11.7466      2.00000
      2      -9.9547      2.00000
      3      -5.2563      2.00000
      4      -3.8161      2.00000
      5      -3.6773      2.00000
      6      -0.7174      0.00000
      7       0.2187      0.00000
      8       1.2678      0.00000
      9       2.8464      0.00000
     10       4.2110      0.00000
     11       4.6149      0.00000
     12       5.1115      0.00000
     13       5.4386      0.00000
     14       5.9148      0.00000
     15       6.4586      0.00000
     16       6.7726      0.00000

 k-point    12 :       0.5000    0.0000    0.0000
  band No.  band energies     occupation 
      1     -11.6477      2.00000
      2     -10.0653      2.00000
      3      -5.2284      2.00000
      4      -3.8374      2.00000
      5      -3.7473      2.00000
      6      -0.6628      0.00000
      7       0.1509      0.00000
      8       1.2641      0.00000
      9       2.8006      0.00000
     10       4.5353      0.00000
     11       4.7078      0.00000
     12       4.9837      0.00000
     13       5.3222      0.00000
     14       5.6687      0.00000
     15       6.5690      0.00000
     16       7.0459      0.00000

 k-point    13 :       0.0455    0.0455    0.0000
  band No.  band energies     occupation 
      1     -13.4993      2.00000
      2      -8.5894      2.00000
      3      -2.9445      2.00000
      4      -2.8619      2.00000
      5      -2.4508      2.00000
      6      -0.1945      0.00000
      7       0.3292      0.00000
      8       0.6925      0.00000
      9       2.1808      0.00000
     10       2.2440      0.00000
     11       3.6918      0.00000
     12       4.6035      0.00000
     13       4.9375      0.00000
     14       5.5118      0.00000
     15       5.7555      0.00000
     16       6.4162      0.00000

 k-point    14 :       0.0909    0.0455    0.0000
  band No.  band energies     occupation 
      1     -13.4119      2.00000
      2      -8.5925      2.00000
      3      -3.4758      2.00000
      4      -2.8309      2.00000
      5      -2.6501      2.00000
      6      -0.0797      0.00000
      7       0.3564      0.00000
      8       0.9314      0.00000
      9       2.2940      0.00000
     10       2.3412      0.00000
     11       3.7289      0.00000
     12       4.6772      0.00000
     13       4.7312      0.00000
     14       5.6248      0.00000
     15       5.8106      0.00000
     16       6.1970      0.00000

 k-point    15 :       0.1364    0.0455    0.0000
  band No.  band energies     occupation 
      1     -13.2820      2.00000
      2      -8.6125      2.00000
      3      -4.0198      2.00000
      4      -2.9024      2.00000
      5      -2.7833      2.00000
      6      -0.3308      0.00000
      7       0.6578      0.00000
      8       1.1748      0.00000
      9       2.4135      0.00000
     10       2.5038      0.00000
     11       3.7304      0.00000
     12       4.5344      0.00000
     13       4.8572      0.00000
     14       5.5181      0.00000
     15       5.9889      0.00000
     16       6.3639      0.00000

 k-point    16 :       0.1818    0.0455    0.0000
  band No.  band energies     occupation 
      1     -13.1109      2.00000
      2      -8.6684      2.00000
      3      -4.5093      2.00000
      4      -3.1427      2.00000
      5      -2.7718      2.00000
      6      -0.6017      0.00000
      7       0.9008      0.00000
      8       1.3102      0.00000
      9       2.5260      0.00000
     10       2.7039      0.00000
     11       3.7605      0.00000
     12       4.5724      0.00000
     13       5.0592      0.00000
     14       5.3716      0.00000
     15       6.0870      0.00000
     16       6.7233      0.00000

 k-point    17 :       0.2273    0.0455    0.0000
  band No.  band energies     occupation 
      1     -12.9013      2.00000
      2      -8.7832      2.00000
      3      -4.8991      2.00000
      4      -3.3710      2.00000
      5      -2.8067      2.00000
      6      -0.8072      0.00000
      7       1.0485      0.00000
      8       1.2630      0.00000
      9       2.6789      0.00000
     10       2.9144      0.00000
     11       3.8485      0.00000
     12       4.7612      0.00000
     13       5.2807      0.00000
     14       5.3232      0.00000
     15       6.3289      0.00000
     16       6.7321      0.00000

 k-point    18 :       0.2727    0.0455    0.0000
  band No.  band energies     occupation 
      1     -12.6573      2.00000
      2      -8.9737      2.00000
      3      -5.1609      2.00000
      4      -3.5709      2.00000
      5      -2.9200      2.00000
      6      -0.9049      0.00000
      7       1.0211      0.00000
      8       1.1686      0.00000
      9       2.9131      0.00000
     10       3.1117      0.00000
     11       3.8839      0.00000
     12       5.0088      0.00000
     13       5.3944      0.00000
     14       5.6449      0.00000
     15       6.3068      0.00000
     16       7.0299      0.00000

 k-point    19 :       0.3182    0.0455    0.0000
  band No.  band energies     occupation 
      1     -12.3863      2.00000
      2      -9.2371      2.00000
      3      -5.2914      2.00000
      4      -3.7331      2.00000
      5      -3.1103      2.00000
      6      -0.8893      0.00000
      7       0.7767      0.00000
      8       1.1891      0.00000
      9       3.1438      0.00000
     10       3.2718      0.00000
     11       3.9440      0.00000
     12       5.1916      0.00000
     13       5.6969      0.00000
     14       5.8748      0.00000
     15       6.3984      0.00000
     16       6.8788      0.00000

 k-point    20 :       0.3636    0.0455    0.0000
  band No.  band energies     occupation 
      1     -12.1026      2.00000
      2      -9.5446      2.00000
      3      -5.3157      2.00000
      4      -3.8504      2.00000
      5      -3.3420      2.00000
      6      -0.7902      0.00000
      7       0.5221      0.00000
      8       1.1999      0.00000
      9       3.0744      0.00000
     10       3.6149      0.00000
     11       4.1696      0.00000
     12       5.2564      0.00000
     13       5.8929      0.00000
     14       6.1232      0.00000
     15       6.2536      0.00000
     16       6.8020      0.00000

 k-point    21 :       0.4091    0.0455    0.0000
  band No.  band energies     occupation 
      1     -11.8370      2.00000
      2      -9.8424      2.00000
      3      -5.2796      2.00000
      4      -3.9151      2.00000
      5      -3.5650      2.00000
      6      -0.6530      0.00000
      7       0.3000      0.00000
      8       1.2041      0.00000
      9       2.9324      0.00000
     10       4.0247      0.00000
     11       4.4923      0.00000
     12       5.2108      0.00000
     13       5.6714      0.00000
     14       6.0185      0.00000
     15       6.4264      0.00000
     16       6.6073      0.00000

 k-point    22 :       0.4545    0.0455    0.0000
  band No.  band energies     occupation 
      1     -11.6570      2.00000
      2     -10.0437      2.00000
      3      -5.2389      2.00000
      4      -3.9263      2.00000
      5      -3.7205      2.00000
      6      -0.5400      0.00000
      7       0.1517      0.00000
      8       1.2063      0.00000
      9       2.8395      0.00000
     10       4.4559      0.00000
     11       4.7496      0.00000
     12       5.0550      0.00000
     13       5.3508      0.00000
     14       5.7848      0.00000
     15       6.4590      0.00000
     16       6.9754      0.00000

 k-point    23 :       0.0909    0.0909    0.0000
  band No.  band energies     occupation 
      1     -13.3035      2.00000
      2      -8.6075      2.00000
      3      -3.9114      2.00000
      4      -2.9459      2.00000
      5      -2.7839      2.00000
      6       0.0424      0.00000
      7       0.2510      0.00000
      8       1.2159      0.00000
      9       2.4301      0.00000
     10       2.4462      0.00000
     11       3.7113      0.00000
     12       4.5684      0.00000
     13       4.8081      0.00000
     14       5.5041      0.00000
     15       6.1726      0.00000
     16       6.1889      0.00000

 k-point    24 :       0.1364    0.0909    0.0000
  band No.  band energies     occupation 
      1     -13.1533      2.00000
      2      -8.6497      2.00000
      3      -4.3468      2.00000
      4      -3.2515      2.00000
      5      -2.7617      2.00000
      6      -0.1822      0.00000
      7       0.4946      0.00000
      8       1.3915      0.00000
      9       2.5487      0.00000
     10       2.6185      0.00000
     11       3.6610      0.00000
     12       4.5604      0.00000
     13       4.9570      0.00000
     14       5.4980      0.00000
     15       6.1438      0.00000
     16       6.5726      0.00000

 k-point    25 :       0.1818    0.0909    0.0000
  band No.  band energies     occupation 
      1     -12.9632      2.00000
      2      -8.7396      2.00000
      3      -4.7296      2.00000
      4      -3.5402      2.00000
      5      -2.7659      2.00000
      6      -0.4137      0.00000
      7       0.7236      0.00000
      8       1.4042      0.00000
      9       2.6689      0.00000
     10       2.8315      0.00000
     11       3.6936      0.00000
     12       4.6855      0.00000
     13       5.1486      0.00000
     14       5.3933      0.00000
     15       6.3494      0.00000
     16       6.8243      0.00000

 k-point    26 :       0.2273    0.0909    0.0000
  band No.  band energies     occupation 
      1     -12.7364      2.00000
      2      -8.8964      2.00000
      3      -5.0198      2.00000
      4      -3.7869      2.00000
      5      -2.8293      2.00000
      6      -0.5734      0.00000
      7       0.8709      0.00000
      8       1.2563      0.00000
      9       2.8516      0.00000
     10       3.0614      0.00000
     11       3.8137      0.00000
     12       4.9011      0.00000
     13       5.2216      0.00000
     14       5.4447      0.00000
     15       6.5389      0.00000
     16       6.9887      0.00000

 k-point    27 :       0.2727    0.0909    0.0000
  band No.  band energies     occupation 
      1     -12.4782      2.00000
      2      -9.1266      2.00000
      3      -5.1983      2.00000
      4      -3.9797      2.00000
      5      -2.9706      2.00000
      6      -0.6295      0.00000
      7       0.9125      0.00000
      8       1.0523      0.00000
      9       3.1020      0.00000
     10       3.2652      0.00000
     11       3.9168      0.00000
     12       5.1540      0.00000
     13       5.2951      0.00000
     14       5.7323      0.00000
     15       6.5264      0.00000
     16       6.8582      0.00000

 k-point    28 :       0.3182    0.0909    0.0000
  band No.  band energies     occupation 
      1     -12.1986      2.00000
      2      -9.4153      2.00000
      3      -5.2748      2.00000
      4      -4.1092      2.00000
      5      -3.1796      2.00000
      6      -0.5828      0.00000
      7       0.7059      0.00000
      8       1.0319      0.00000
      9       3.2169      0.00000
     10       3.5055      0.00000
     11       4.0779      0.00000
     12       5.3148      0.00000
     13       5.5972      0.00000
     14       6.0511      0.00000
     15       6.4262      0.00000
     16       6.7564      0.00000

 k-point    29 :       0.3636    0.0909    0.0000
  band No.  band energies     occupation 
      1     -11.9176      2.00000
      2      -9.7238      2.00000
      3      -5.2826      2.00000
      4      -4.1662      2.00000
      5      -3.4196      2.00000
      6      -0.4583      0.00000
      7       0.4461      0.00000
      8       1.0561      0.00000
      9       3.0972      0.00000
     10       3.8846      0.00000
     11       4.3759      0.00000
     12       5.3938      0.00000
     13       5.7877      0.00000
     14       6.0080      0.00000
     15       6.4093      0.00000
     16       6.6882      0.00000

 k-point    30 :       0.4091    0.0909    0.0000
  band No.  band energies     occupation 
      1     -11.6810      2.00000
      2      -9.9862      2.00000
      3      -5.2645      2.00000
      4      -4.1521      2.00000
      5      -3.6375      2.00000
      6      -0.2886      0.00000
      7       0.2048      0.00000
      8       1.0762      0.00000
      9       2.9639      0.00000
     10       4.3177      0.00000
     11       4.7312      0.00000
     12       5.2546      0.00000
     13       5.5365      0.00000
     14       5.8852      0.00000
     15       6.3499      0.00000
     16       6.8375      0.00000

 k-point    31 :       0.4545    0.0909    0.0000
  band No.  band energies     occupation 
      1     -11.5796      2.00000
      2     -10.0979      2.00000
      3      -5.2543      2.00000
      4      -4.1210      2.00000
      5      -3.7411      2.00000
      6      -0.1568      0.00000
      7       0.0512      0.00000
      8       1.0844      0.00000
      9       2.9106      0.00000
     10       4.7586      0.00000
     11       4.7747      0.00000
     12       5.0700      0.00000
     13       5.3216      0.00000
     14       5.8762      0.00000
[...]
     13       5.3091      0.00000
     14       5.9886      0.00000
     15       6.4404      0.00000
     16       6.8300      0.00000

 k-point    36 :       0.3182    0.1364    0.0000
  band No.  band energies     occupation 
      1     -11.9804      2.00000
      2      -9.6182      2.00000
      3      -5.2448      2.00000
      4      -4.4643      2.00000
      5      -3.2845      2.00000
      6      -0.2757      0.00000
      7       0.5116      0.00000
      8       1.0822      0.00000
      9       3.3037      0.00000
     10       3.7938      0.00000
     11       4.2830      0.00000
     12       5.3027      0.00000
     13       5.5202      0.00000
     14       6.2470      0.00000
     15       6.3511      0.00000
     16       6.6083      0.00000

 k-point    37 :       0.3636    0.1364    0.0000
  band No.  band energies     occupation 
      1     -11.7106      2.00000
      2      -9.9111      2.00000
      3      -5.2912      2.00000
      4      -4.4156      2.00000
      5      -3.5254      2.00000
      6      -0.1928      0.00000
      7       0.4116      0.00000
      8       1.0205      0.00000
      9       3.1773      0.00000
     10       4.2003      0.00000
     11       4.6302      0.00000
     12       5.4123      0.00000
     13       5.7031      0.00000
     14       5.7951      0.00000
     15       6.5243      0.00000
     16       6.7402      0.00000

 k-point    38 :       0.4091    0.1364    0.0000
  band No.  band energies     occupation 
      1     -11.5229      2.00000
      2     -10.1145      2.00000
      3      -5.3170      2.00000
      4      -4.3258      2.00000
      5      -3.7108      2.00000
      6      -0.1182      0.00000
      7       0.3298      0.00000
      8       0.9960      0.00000
      9       3.0807      0.00000
     10       4.6527      0.00000
     11       5.0031      0.00000
     12       5.1395      0.00000
     13       5.3875      0.00000
     14       5.9073      0.00000
     15       6.1825      0.00000
     16       7.1624      0.00000

 k-point    39 :       0.1818    0.1818    0.0000
  band No.  band energies     occupation 
      1     -12.5528      2.00000
      2      -9.0325      2.00000
      3      -4.9829      2.00000
      4      -4.3745      2.00000
      5      -2.8619      2.00000
      6      -0.0617      0.00000
      7       0.3736      0.00000
      8       1.4672      0.00000
      9       3.0975      0.00000
     10       3.1576      0.00000
     11       3.7469      0.00000
     12       4.9602      0.00000
     13       5.0270      0.00000
     14       5.6587      0.00000
     15       6.4648      0.00000
     16       7.1575      0.00000

 k-point    40 :       0.2273    0.1818    0.0000
  band No.  band energies     occupation 
      1     -12.2980      2.00000
      2      -9.2658      2.00000
      3      -5.0349      2.00000
      4      -4.6678      2.00000
      5      -2.9951      2.00000
      6      -0.0406      0.00000
      7       0.2900      0.00000
      8       1.4616      0.00000
      9       3.3042      0.00000
     10       3.4498      0.00000
     11       3.9693      0.00000
     12       4.7776      0.00000
     13       5.2102      0.00000
     14       5.9534      0.00000
     15       6.2668      0.00000
     16       7.2121      0.00000

 k-point    41 :       0.2727    0.1818    0.0000
  band No.  band energies     occupation 
      1     -12.0201      2.00000
      2      -9.5448      2.00000
      3      -5.1521      2.00000
      4      -4.7425      2.00000
      5      -3.1879      2.00000
      6      -0.1315      0.00000
      7       0.3498      0.00000
      8       1.3879      0.00000
      9       3.4837      0.00000
     10       3.7585      0.00000
     11       4.2290      0.00000
     12       4.8360      0.00000
     13       5.3349      0.00000
     14       6.2288      0.00000
     15       6.3046      0.00000
     16       6.8153      0.00000

 k-point    42 :       0.3182    0.1818    0.0000
  band No.  band energies     occupation 
      1     -11.7364      2.00000
      2      -9.8419      2.00000
      3      -5.3077      2.00000
      4      -4.6388      2.00000
      5      -3.4194      2.00000
      6      -0.2329      0.00000
      7       0.4888      0.00000
      8       1.2589      0.00000
      9       3.4678      0.00000
     10       4.1249      0.00000
     11       4.5255      0.00000
     12       5.1136      0.00000
     13       5.4661      0.00000
     14       6.1418      0.00000
     15       6.4809      0.00000
     16       6.6939      0.00000

 k-point    43 :       0.3636    0.1818    0.0000
  band No.  band energies     occupation 
      1     -11.4887      2.00000
      2     -10.1035      2.00000
      3      -5.4130      2.00000
      4      -4.4830      2.00000
      5      -3.6441      2.00000
      6      -0.3001      0.00000
      7       0.6612      0.00000
      8       1.0990      0.00000
      9       3.3718      0.00000
     10       4.5507      0.00000
     11       4.8452      0.00000
     12       5.2078      0.00000
     13       5.6177      0.00000
     14       5.7988      0.00000
     15       6.3688      0.00000
     16       6.8849      0.00000

 k-point    44 :       0.4091    0.1818    0.0000
  band No.  band energies     occupation 
      1     -11.3772      2.00000
      2     -10.2208      2.00000
      3      -5.4491      2.00000
      4      -4.3940      2.00000
      5      -3.7558      2.00000
      6      -0.3232      0.00000
      7       0.7852      0.00000
      8       0.9806      0.00000
      9       3.3282      0.00000
     10       4.8762      0.00000
     11       5.0981      0.00000
     12       5.1097      0.00000
     13       5.2853      0.00000
     14       5.9256      0.00000
     15       6.2126      0.00000
     16       7.1942      0.00000

 k-point    45 :       0.2273    0.2273    0.0000
  band No.  band energies     occupation 
      1     -12.0337      2.00000
      2      -9.5184      2.00000
      3      -5.0377      2.00000
      4      -4.9236      2.00000
      5      -3.1526      2.00000
      6      -0.0462      0.00000
      7       0.2343      0.00000
      8       1.5568      0.00000
      9       3.5604      0.00000
     10       3.7527      0.00000
     11       4.2128      0.00000
     12       4.6076      0.00000
     13       5.2369      0.00000
     14       6.1844      0.00000
     15       6.2834      0.00000
     16       7.1920      0.00000

 k-point    46 :       0.2727    0.2273    0.0000
  band No.  band energies     occupation 
      1     -11.7510      2.00000
      2      -9.8006      2.00000
      3      -5.3118      2.00000
      4      -4.7681      2.00000
      5      -3.3545      2.00000
      6      -0.2791      0.00000
      7       0.4621      0.00000
      8       1.5369      0.00000
      9       3.7844      0.00000
     10       4.0905      0.00000
     11       4.4594      0.00000
     12       4.6859      0.00000
     13       5.2075      0.00000
     14       6.3309      0.00000
     15       6.6564      0.00000
     16       6.6718      0.00000

 k-point    47 :       0.3182    0.2273    0.0000
  band No.  band energies     occupation 
      1     -11.4724      2.00000
      2     -10.0841      2.00000
      3      -5.4999      2.00000
      4      -4.5740      2.00000
      5      -3.5789      2.00000
      6      -0.4459      0.00000
      7       0.7087      0.00000
      8       1.4105      0.00000
      9       3.7920      0.00000
     10       4.4857      0.00000
     11       4.6431      0.00000
     12       5.0060      0.00000
     13       5.4214      0.00000
     14       6.0500      0.00000
     15       6.5251      0.00000
     16       6.8718      0.00000

 k-point    48 :       0.3636    0.2273    0.0000
  band No.  band energies     occupation 
      1     -11.2616      2.00000
      2     -10.2990      2.00000
      3      -5.5946      2.00000
      4      -4.4029      2.00000
      5      -3.7664      2.00000
      6      -0.5308      0.00000
      7       0.9543      0.00000
      8       1.2181      0.00000
      9       3.7406      0.00000
     10       4.6580      0.00000
     11       4.9770      0.00000
     12       5.3248      0.00000
     13       5.4848      0.00000
     14       5.9103      0.00000
     15       6.2513      0.00000
     16       6.7287      0.00000

 k-point    49 :       0.2727    0.2727    0.0000
  band No.  band energies     occupation 
      1     -11.4677      2.00000
      2     -10.0750      2.00000
      3      -5.5345      2.00000
      4      -4.6031      2.00000
      5      -3.5520      2.00000
      6      -0.5015      0.00000
      7       0.7074      0.00000
      8       1.5544      0.00000
      9       4.2025      0.00000
     10       4.3769      0.00000
     11       4.5518      0.00000
     12       4.7280      0.00000
     13       5.2591      0.00000
     14       6.4300      0.00000
     15       6.5830      0.00000
     16       6.6167      0.00000

 k-point    50 :       0.3182    0.2727    0.0000
  band No.  band energies     occupation 
      1     -11.1963      2.00000
      2     -10.3416      2.00000
      3      -5.6841      2.00000
      4      -4.4000      2.00000
      5      -3.7603      2.00000
      6      -0.6532      0.00000
      7       0.9605      0.00000
      8       1.4489      0.00000
      9       4.2980      0.00000
     10       4.4895      0.00000
     11       4.8222      0.00000
     12       5.1322      0.00000
     13       5.6008      0.00000
     14       5.9507      0.00000
     15       6.4429      0.00000
     16       6.5016      0.00000

 k-point    51 :       0.3636    0.2727    0.0000
  band No.  band energies     occupation 
      1     -11.0471      2.00000
      2     -10.4893      2.00000
      3      -5.7355      2.00000
      4      -4.2753      2.00000
      5      -3.8854      2.00000
      6      -0.7058      0.00000
      7       1.1299      0.00000
      8       1.3254      0.00000
      9       4.2796      0.00000
     10       4.4582      0.00000
     11       5.2850      0.00000
     12       5.3856      0.00000
     13       5.5335      0.00000
     14       6.0989      0.00000
     15       6.1281      0.00000
     16       6.2194      0.00000

 k-point    52 :       0.3182    0.3182    0.0000
  band No.  band energies     occupation 
      1     -10.9237      2.00000
      2     -10.6034      2.00000
      3      -5.7868      2.00000
      4      -4.1974      2.00000
      5      -3.9551      2.00000
      6      -0.7695      0.00000
      7       1.1829      0.00000
      8       1.3708      0.00000
      9       4.3636      0.00000
     10       4.8561      0.00000
     11       4.9675      0.00000
     12       5.5017      0.00000
     13       5.7239      0.00000
     14       5.8548      0.00000
     15       6.0245      0.00000
     16       6.2902      0.00000


--------------------------------------------------------------------------------------------------------


 soft charge-density along one line, spin component           1
         0         1         2         3         4         5         6         7         8         9
 total charge-density along one line
 
 pseudopotential strength for first ion, spin component:           1
 34.001 -21.120   0.000   0.076  -0.000  -0.000  -0.129   0.000
-21.120  31.261  -0.000  -0.033   0.000   0.000   0.044  -0.000
  0.000  -0.000   7.207   0.000   0.000 -12.157  -0.000  -0.000
  0.076  -0.033   0.000   7.200  -0.000  -0.000 -12.149   0.000
 -0.000   0.000   0.000  -0.000   7.207  -0.000   0.000 -12.157
 -0.000   0.000 -12.157  -0.000  -0.000  31.626   0.000   0.000
 -0.129   0.044  -0.000 -12.149   0.000   0.000  31.616  -0.000
  0.000  -0.000  -0.000   0.000 -12.157   0.000  -0.000  31.626
  0.000  -0.000  -0.000  -0.000  -0.001   0.000   0.000   0.004
  0.000  -0.000   0.022   0.000  -0.000  -0.037  -0.000   0.000
 -0.009   0.005  -0.000   0.027   0.000   0.000  -0.048  -0.000
 -0.000   0.000  -0.000   0.000   0.022   0.000   0.000  -0.037
 -0.000   0.000  -0.001   0.000  -0.000   0.004  -0.000   0.000
 -0.000   0.000   0.000   0.000   0.002  -0.000  -0.000  -0.007
 -0.000   0.000  -0.052  -0.000   0.000   0.084   0.000  -0.000
  0.016  -0.005   0.000  -0.064  -0.000  -0.000   0.107   0.000
  0.000  -0.000   0.000   0.000  -0.052  -0.000  -0.000   0.084
  0.000  -0.000   0.002  -0.000   0.000  -0.007   0.000  -0.000
  0.001  -0.002  -0.000  -0.000   0.000  -0.000   0.000   0.000
 -0.000  -0.000  -0.000   0.000  -0.000  -0.000   0.000   0.001
 -0.000  -0.000  -0.002  -0.000   0.000  -0.000  -0.000   0.000
 -0.001   0.001  -0.000  -0.002   0.000  -0.000  -0.001   0.000
  0.000   0.000   0.000   0.000  -0.002   0.000   0.000  -0.000
  0.000   0.000  -0.000  -0.000  -0.000   0.001  -0.000  -0.000
  0.000   0.000   0.000  -0.000   0.000   0.000  -0.000   0.000
  0.007  -0.002   0.000   0.000  -0.000  -0.000  -0.001   0.000
  0.000   0.000   0.000  -0.000   0.000  -0.000   0.000  -0.001
  0.000   0.000   0.007   0.000  -0.000  -0.007  -0.000   0.000
 -0.006   0.002   0.000   0.008  -0.000  -0.000  -0.007   0.000
 -0.000  -0.000  -0.000  -0.000   0.007   0.000   0.000  -0.007
 -0.000  -0.000   0.000   0.000   0.000  -0.001  -0.000  -0.000
 -0.000  -0.000  -0.000   0.000  -0.000   0.000  -0.000   0.000
 total augmentation occupancy for first ion, spin component:           1
  1.957   0.003   0.000  -0.223   0.000   0.000  -0.002   0.000   0.000   0.000  -0.008  -0.000   0.000   0.000   0.000   0.001
  0.003   0.001   0.000   0.023  -0.000   0.000   0.000   0.000   0.000   0.000  -0.000  -0.000   0.000  -0.000  -0.000  -0.000
  0.000   0.000   1.075  -0.000   0.000   0.018   0.000   0.000   0.000   0.141  -0.000   0.000   0.079   0.000   0.006  -0.000
 -0.223   0.023   0.000   1.199   0.000   0.000   0.018   0.000   0.000   0.000   0.034   0.000  -0.000   0.000   0.000  -0.001
  0.000   0.000   0.000   0.000   1.075   0.000   0.000   0.018   0.079   0.000  -0.000   0.141   0.000   0.004   0.000  -0.000
  0.000  -0.000   0.018  -0.000   0.000   0.000   0.000   0.000  -0.000   0.003  -0.000   0.000   0.001   0.000   0.000  -0.000
 -0.002   0.000   0.000   0.018  -0.000   0.000   0.000  -0.000   0.000   0.000   0.001   0.000  -0.000  -0.000  -0.000   0.000
 -0.000   0.000   0.000   0.000   0.018   0.000   0.000   0.000   0.001   0.000  -0.000   0.003   0.000   0.000   0.000  -0.000
  0.000   0.000   0.000  -0.000   0.079   0.000   0.000   0.001   0.020   0.000  -0.000   0.012   0.000   0.001   0.000  -0.000
  0.000   0.000   0.141  -0.000   0.000   0.003   0.000   0.000   0.000   0.028  -0.000   0.000   0.012   0.000   0.001  -0.000
 -0.008  -0.000  -0.000   0.034  -0.000  -0.000   0.001   0.000  -0.000  -0.000   0.012  -0.000  -0.000  -0.000  -0.000   0.001
  0.000   0.000   0.000  -0.000   0.141   0.000   0.000   0.003   0.012   0.000  -0.000   0.028   0.000   0.001   0.000   0.000
  0.000   0.000   0.079  -0.000   0.000   0.001  -0.000   0.000   0.000   0.012  -0.000   0.000   0.020   0.000   0.001  -0.000
  0.000   0.000   0.000   0.000   0.004   0.000   0.000   0.000   0.001   0.000  -0.000   0.001   0.000   0.000   0.000  -0.000
  0.000  -0.000   0.006   0.000   0.000   0.000  -0.000   0.000   0.000   0.001  -0.000   0.000   0.001   0.000   0.000  -0.000
  0.001  -0.000  -0.000  -0.001  -0.000  -0.000   0.000  -0.000  -0.000  -0.000   0.001   0.000  -0.000  -0.000  -0.000   0.000
 -0.000   0.000   0.000  -0.000   0.006   0.000  -0.000   0.000   0.001   0.000  -0.000   0.001   0.000   0.000   0.000  -0.000
 -0.000   0.000   0.004   0.000   0.000   0.000   0.000   0.000   0.000   0.001  -0.000   0.000   0.001   0.000   0.000  -0.000
  0.007   0.001  -0.000   0.029  -0.000  -0.000   0.000  -0.000   0.000  -0.000  -0.002  -0.000  -0.000   0.000  -0.000  -0.000
  0.000   0.000  -0.000  -0.000   0.038   0.000   0.000   0.001   0.007   0.000  -0.000   0.007   0.000   0.000   0.000  -0.000
 -0.000  -0.000   0.013  -0.000   0.000   0.000  -0.000   0.000   0.000   0.006   0.000   0.000   0.001   0.000   0.000   0.000
 -0.006  -0.001  -0.000  -0.030  -0.000  -0.000  -0.000  -0.000  -0.000  -0.000   0.001  -0.000  -0.000  -0.000  -0.000   0.000
 -0.000  -0.000   0.000  -0.000   0.013   0.000   0.000   0.000   0.001   0.000   0.000   0.006   0.000   0.000   0.000   0.000
  0.000   0.000   0.038   0.000   0.000   0.001   0.000   0.000   0.000   0.007  -0.000   0.000   0.007   0.000   0.000  -0.000
  0.000   0.000  -0.000   0.000   0.000   0.000   0.000  -0.000  -0.000   0.000  -0.000  -0.000   0.000  -0.000  -0.000  -0.000
  0.002   0.000  -0.000   0.005  -0.000  -0.000   0.000  -0.000  -0.000  -0.000  -0.000  -0.000  -0.000  -0.000  -0.000  -0.000
  0.000   0.000   0.000   0.000   0.007  -0.000  -0.000   0.000   0.001   0.000  -0.000   0.001   0.000   0.000   0.000  -0.000
 -0.000  -0.000   0.003  -0.000  -0.000   0.000  -0.000   0.000  -0.000   0.001  -0.000   0.000   0.000  -0.000   0.000   0.000
 -0.002  -0.000  -0.000  -0.005  -0.000  -0.000  -0.000  -0.000  -0.000  -0.000   0.000  -0.000  -0.000  -0.000  -0.000   0.000
 -0.000  -0.000   0.000   0.000   0.003   0.000  -0.000   0.000   0.000   0.000   0.000   0.001   0.000   0.000   0.000   0.000
  0.000   0.000   0.007   0.000   0.000   0.000   0.000   0.000   0.000   0.001  -0.000   0.000   0.001   0.000   0.000  -0.000
  0.000   0.000  -0.000   0.000   0.000   0.000   0.000   0.000  -0.000   0.000  -0.000  -0.000   0.000  -0.000   0.000  -0.000


------------------------ aborting loop because EDIFF is reached ----------------------------------------





 total charge

# of ion       s       p       d       f       tot
--------------------------------------------------
    1        1.581   1.846   0.079   0.012   3.518
    2        1.581   1.846   0.079   0.012   3.518
--------------------------------------------------
tot          3.162   3.692   0.158   0.025   7.036
 


--------------------------------------------------------------------------------------------------------



  FREE ENERGIE OF THE ION-ELECTRON SYSTEM (eV)
  ---------------------------------------------------
  free  energy   TOTEN  =        -8.11783474 eV

  energy  without entropy=       -8.11783474  energy(sigma->0) =       -8.11783474
 


--------------------------------------------------------------------------------------------------------




--------------------------------------------------------------------------------------------------------


     LOOP+:  cpu time     10.0498: real time     10.1648
    4ORBIT:  cpu time      0.0000: real time      0.0000



 total charge

# of ion       s       p       d       f       tot
--------------------------------------------------
    1        1.581   1.846   0.079   0.012   3.518
    2        1.581   1.846   0.079   0.012   3.518
--------------------------------------------------
tot          3.162   3.692   0.158   0.025   7.036
 

 total amount of memory used by VASP MPI-rank0    40045. kBytes
=======================================================================

   base      :      30000. kBytes
   nonl-proj :       4803. kBytes
   fftplans  :       2639. kBytes
   grid      :       1250. kBytes
   one-center:         49. kBytes
   wavefun   :       1304. kBytes
 
  
  
 General timing and accounting informations for this job:
 ========================================================
  
                  Total CPU time used (sec):       10.882
                            User time (sec):       10.713
                          System time (sec):        0.168
                         Elapsed time (sec):       12.090
  
                   Maximum memory used (kb):      157484.
                   Average memory used (kb):          N/A
  
                          Minor page faults:        19666
                          Major page faults:         3404
                 Voluntary context switches:          142
