PROCAR new format
# of k-points:   52         # of bands:   16         # of ions:    2

 k-point     1 :    0.00000000 0.00000000 0.00000000     weight = 0.00206612

band     1 # energy  -13.56518518 # occ.  2.00000000
 
ion      s      p      d      f    tot
    1  0.335  0.015  0.000  0.001  0.351
    2  0.335  0.015  0.000  0.001  0.351
tot    0.670  0.030  0.000  0.001  0.702
 
band     2 # energy   -8.59216364 # occ.  2.00000000
 
ion      s      p      d      f    tot
    1  0.356  0.031  0.001  0.000  0.388
    2  0.356  0.031  0.001  0.000  0.388
tot    0.711  0.062  0.002  0.001  0.776
 
band     3 # energy   -2.89082354 # occ.  2.00000000
 
ion      s      p      d      f    tot
    1  0.008  0.269  0.003  0.002  0.282
    2  0.008  0.269  0.003  0.002  0.282
tot    0.016  0.537  0.006  0.004  0.564
 
band     4 # energy   -2.28428548 # occ.  1.99999999
 
ion      s      p      d      f    tot
    1  0.000  0.382  0.024  0.005  0.411
    2  0.000  0.382  0.024  0.005  0.411
tot    0.000  0.764  0.048  0.009  0.821
 
band     5 # energy   -2.28428495 # occ.  1.99999999
 
ion      s      p      d      f    tot
    1  0.000  0.382  0.024  0.005  0.411
    2  0.000  0.382  0.024  0.005  0.411
tot    0.000  0.764  0.048  0.009  0.821
 
band     6 # energy   -0.71762090 # occ.  0.00000000
 
ion      s      p      d      f    tot
    1  0.146  0.163  0.018  0.007  0.334
    2  0.146  0.163  0.018  0.007  0.334
tot    0.291  0.326  0.036  0.015  0.668
 
band     7 # energy    0.50597019 # occ.  0.00000000
 
ion      s      p      d      f    tot
    1  0.000  0.340  0.030  0.005  0.375
    2  0.000  0.340  0.030  0.005  0.375
tot    0.000  0.681  0.059  0.011  0.751
 
band     8 # energy    0.50597033 # occ.  0.00000000
 
ion      s      p      d      f    tot
    1  0.000  0.340  0.030  0.005  0.375
    2  0.000  0.340  0.030  0.005  0.375
tot    0.000  0.681  0.059  0.011  0.751
 
band     9 # energy    2.08972502 # occ.  0.00000000
 
ion      s      p      d      f    tot
    1  0.000  0.015  0.027  0.001  0.043
    2  0.000  0.015  0.027  0.001  0.043
tot    0.000  0.030  0.054  0.002  0.086
 
band    10 # energy    2.16803175 # occ.  0.00000000
 
ion      s      p      d      f    tot
    1  0.007  0.024  0.000  0.000  0.032
    2  0.007  0.024  0.000  0.000  0.032
tot    0.014  0.049  0.000  0.000  0.064
 
band    11 # energy    3.62608911 # occ.  0.00000000
 
ion      s      p      d      f    tot
    1  0.025  0.036  0.000  0.000  0.061
    2  0.025  0.036  0.000  0.000  0.061
tot    0.050  0.072  0.000  0.000  0.122
 
band    12 # energy    4.52983863 # occ.  0.00000000
 
ion      s      p      d      f    tot
    1  0.003  0.000  0.041  0.001  0.045
    2  0.003  0.000  0.041  0.001  0.045
tot    0.005  0.000  0.083  0.001  0.089
 
band    13 # energy    4.84422689 # occ.  0.00000000
 
ion      s      p      d      f    tot
    1  0.066  0.001  0.024  0.024  0.115
    2  0.066  0.001  0.024  0.024  0.115
tot    0.132  0.002  0.048  0.049  0.230
 
band    14 # energy    5.88449092 # occ.  0.00000000
 
ion      s      p      d      f    tot
    1  0.000  0.040  0.180  0.006  0.226
    2  0.000  0.040  0.180  0.006  0.226
tot    0.000  0.079  0.360  0.012  0.452
 
band    15 # energy    5.88449156 # occ.  0.00000000
 
ion      s      p      d      f    tot
    1  0.000  0.040  0.180  0.006  0.226
    2  0.000  0.040  0.180  0.006  0.226
tot    0.000  0.079  0.360  0.012  0.452
 
band    16 # energy    6.49520203 # occ.  0.00000000
 
ion      s      p      d      f    tot
    1  0.018  0.039  0.005  0.024  0.086
    2  0.018  0.039  0.005  0.024  0.086
tot    0.036  0.079  0.010  0.048  0.172
 

 k-point     2 :    0.04545455 0.00000000 0.00000000     weight = 0.01239669

band     1 # energy  -13.54314547 # occ.  2.00000000
 
ion      s      p      d      f    tot
    1  0.335  0.015  0.000  0.001  0.351
    2  0.335  0.015  0.000  0.001  0.351
tot    0.670  0.031  0.000  0.001  0.703
 
band     2 # energy   -8.59073760 # occ.  2.00000000
 
ion      s      p      d      f    tot
    1  0.358  0.030  0.001  0.000  0.390
    2  0.358  0.030  0.001  0.000  0.390
tot    0.715  0.061  0.003  0.001  0.779
 
band     3 # energy   -2.88070554 # occ.  2.00000000
 
ion      s      p      d      f    tot
    1  0.008  0.270  0.003  0.002  0.283
    2  0.008  0.270  0.003  0.002  0.283
tot    0.017  0.540  0.006  0.004  0.567
 
band     4 # energy   -2.55824485 # occ.  2.00000000
 
ion      s      p      d      f    tot
    1  0.013  0.351  0.024  0.004  0.393
    2  0.013  0.351  0.024  0.004  0.393
tot    0.026  0.703  0.048  0.009  0.785
 
band     5 # energy   -2.33818728 # occ.  2.00000000
 
ion      s      p      d      f    tot
    1  0.000  0.379  0.024  0.005  0.408
    2  0.000  0.379  0.024  0.005  0.408
tot    0.000  0.758  0.048  0.009  0.815
 
band     6 # energy   -0.48467497 # occ.  0.00000000
 
ion      s      p      d      f    tot
    1  0.129  0.193  0.017  0.008  0.346
    2  0.129  0.193  0.017  0.008  0.346
tot    0.258  0.385  0.034  0.015  0.692
 
band     7 # energy    0.44549761 # occ.  0.00000000
 
ion      s      p      d      f    tot
    1  0.006  0.330  0.028  0.006  0.370
    2  0.006  0.330  0.028  0.006  0.370
tot    0.011  0.661  0.056  0.011  0.739
 
band     8 # energy    0.55897548 # occ.  0.00000000
 
ion      s      p      d      f    tot
    1  0.000  0.344  0.029  0.006  0.379
    2  0.000  0.344  0.029  0.006  0.379
tot    0.000  0.689  0.057  0.011  0.757
 
band     9 # energy    2.12009498 # occ.  0.00000000
 
ion      s      p      d      f    tot
    1  0.000  0.017  0.027  0.001  0.045
    2  0.000  0.017  0.027  0.001  0.045
tot    0.000  0.034  0.054  0.003  0.091
 
band    10 # energy    2.19430553 # occ.  0.00000000
 
ion      s      p      d      f    tot
    1  0.006  0.025  0.000  0.000  0.032
    2  0.006  0.025  0.000  0.000  0.032
tot    0.013  0.051  0.001  0.001  0.065
 
band    11 # energy    3.65272599 # occ.  0.00000000
 
ion      s      p      d      f    tot
    1  0.021  0.038  0.002  0.000  0.061
    2  0.021  0.038  0.002  0.000  0.061
tot    0.042  0.076  0.003  0.000  0.122
 
band    12 # energy    4.55452981 # occ.  0.00000000
 
ion      s      p      d      f    tot
    1  0.003  0.000  0.042  0.001  0.045
    2  0.003  0.000  0.042  0.001  0.045
tot    0.005  0.000  0.084  0.001  0.090
 
band    13 # energy    4.92361175 # occ.  0.00000000
 
ion      s      p      d      f    tot
    1  0.057  0.020  0.032  0.025  0.134
    2  0.057  0.020  0.032  0.025  0.134
tot    0.113  0.040  0.064  0.050  0.268
 
band    14 # energy    5.61502017 # occ.  0.00000000
 
ion      s      p      d      f    tot
    1  0.016  0.020  0.132  0.008  0.175
    2  0.016  0.020  0.132  0.008  0.175
tot    0.032  0.040  0.264  0.015  0.351
 
band    15 # energy    5.85382628 # occ.  0.00000000
 
ion      s      p      d      f    tot
    1  0.000  0.035  0.181  0.006  0.222
    2  0.000  0.035  0.181  0.006  0.222
tot    0.000  0.069  0.362  0.013  0.444
 
band    16 # energy    6.59850258 # occ.  0.00000000
 
ion      s      p      d      f    tot
    1  0.004  0.115  0.075  0.008  0.202
    2  0.004  0.115  0.075  0.008  0.202
tot    0.008  0.229  0.151  0.016  0.404
 

 k-point     3 :    0.09090909 0.00000000 0.00000000     weight = 0.01239669

band     1 # energy  -13.47731999 # occ.  2.00000000
 
ion      s      p      d      f    tot
    1  0.335  0.016  0.000  0.001  0.353
    2  0.335  0.016  0.000  0.001  0.353
tot    0.671  0.032  0.001  0.001  0.705
 
band     2 # energy   -8.58939101 # occ.  2.00000000
 
ion      s      p      d      f    tot
    1  0.364  0.029  0.002  0.000  0.394
    2  0.364  0.029  0.002  0.000  0.394
tot    0.727  0.057  0.003  0.001  0.788
 
band     3 # energy   -3.10970522 # occ.  2.00000000
 
ion      s      p      d      f    tot
    1  0.021  0.319  0.023  0.004  0.367
    2  0.021  0.319  0.023  0.004  0.367
tot    0.043  0.638  0.047  0.007  0.735
 
band     4 # energy   -2.85279089 # occ.  2.00000000
 
ion      s      p      d      f    tot
    1  0.010  0.273  0.003  0.002  0.288
    2  0.010  0.273  0.003  0.002  0.288
tot    0.019  0.546  0.006  0.004  0.575
 
band     5 # energy   -2.48324457 # occ.  2.00000000
 
ion      s      p      d      f    tot
    1  0.000  0.373  0.024  0.004  0.401
    2  0.000  0.373  0.024  0.004  0.401
tot    0.000  0.745  0.047  0.009  0.801
 
band     6 # energy   -0.19677018 # occ.  0.00000000
 
ion      s      p      d      f    tot
    1  0.089  0.229  0.020  0.007  0.345
    2  0.089  0.229  0.020  0.007  0.345
tot    0.178  0.458  0.041  0.014  0.690
 
band     7 # energy    0.43447577 # occ.  0.00000000
 
ion      s      p      d      f    tot
    1  0.039  0.300  0.019  0.007  0.364
    2  0.039  0.300  0.019  0.007  0.364
tot    0.078  0.599  0.038  0.013  0.728
 
band     8 # energy    0.69704873 # occ.  0.00000000
 
ion      s      p      d      f    tot
    1  0.000  0.354  0.026  0.006  0.386
    2  0.000  0.354  0.026  0.006  0.386
tot    0.000  0.709  0.052  0.012  0.773
 
band     9 # energy    2.20852788 # occ.  0.00000000
 
ion      s      p      d      f    tot
    1  0.000  0.023  0.026  0.002  0.051
    2  0.000  0.023  0.026  0.002  0.051
tot    0.001  0.046  0.053  0.003  0.103
 
band    10 # energy    2.27000880 # occ.  0.00000000
 
ion      s      p      d      f    tot
    1  0.004  0.028  0.002  0.001  0.035
    2  0.004  0.028  0.002  0.001  0.035
tot    0.009  0.056  0.004  0.001  0.070
 
band    11 # energy    3.70632890 # occ.  0.00000000
 
ion      s      p      d      f    tot
    1  0.014  0.039  0.008  0.001  0.062
    2  0.014  0.039  0.008  0.001  0.062
tot    0.028  0.078  0.016  0.002  0.123
 
band    12 # energy    4.62614629 # occ.  0.00000000
 
ion      s      p      d      f    tot
    1  0.003  0.001  0.042  0.001  0.047
    2  0.003  0.001  0.042  0.001  0.047
tot    0.005  0.001  0.085  0.002  0.093
 
band    13 # energy    4.87178323 # occ.  0.00000000
 
ion      s      p      d      f    tot
    1  0.014  0.046  0.089  0.019  0.168
    2  0.014  0.046  0.089  0.019  0.168
tot    0.027  0.093  0.178  0.039  0.337
 
band    14 # energy    5.56577878 # occ.  0.00000000
 
ion      s      p      d      f    tot
    1  0.060  0.008  0.055  0.011  0.134
    2  0.060  0.008  0.055  0.011  0.134
tot    0.120  0.016  0.110  0.023  0.269
 
band    15 # energy    5.80246871 # occ.  0.00000000
 
ion      s      p      d      f    tot
    1  0.000  0.023  0.183  0.008  0.214
    2  0.000  0.023  0.183  0.008  0.214
tot    0.000  0.047  0.365  0.016  0.428
 
band    16 # energy    6.21440426 # occ.  0.00000000
 
ion      s      p      d      f    tot
    1  0.005  0.101  0.092  0.007  0.204
    2  0.005  0.101  0.092  0.007  0.204
tot    0.010  0.202  0.183  0.013  0.409
 

 k-point     4 :    0.13636364 0.00000000 0.00000000     weight = 0.01239669

band     1 # energy  -13.36845708 # occ.  2.00000000
 
ion      s      p      d      f    tot
    1  0.336  0.017  0.001  0.001  0.354
    2  0.336  0.017  0.001  0.001  0.354
tot    0.671  0.035  0.001  0.001  0.709
 
band     2 # energy   -8.59721873 # occ.  2.00000000
 
ion      s      p      d      f    tot
    1  0.373  0.026  0.002  0.000  0.402
    2  0.373  0.026  0.002  0.000  0.402
tot    0.747  0.051  0.004  0.001  0.803
 
band     3 # energy   -3.70339276 # occ.  2.00000000
 
ion      s      p      d      f    tot
    1  0.019  0.301  0.022  0.003  0.344
    2  0.019  0.301  0.022  0.003  0.344
tot    0.038  0.602  0.043  0.005  0.688
 
band     4 # energy   -2.81596796 # occ.  2.00000000
 
ion      s      p      d      f    tot
    1  0.012  0.278  0.003  0.002  0.295
    2  0.012  0.278  0.003  0.002  0.295
tot    0.024  0.557  0.006  0.004  0.590
 
band     5 # energy   -2.68398420 # occ.  2.00000000
 
ion      s      p      d      f    tot
    1  0.000  0.365  0.023  0.004  0.392
    2  0.000  0.365  0.023  0.004  0.392
tot    0.000  0.730  0.046  0.008  0.784
 
band     6 # energy   -0.33079805 # occ.  0.00000000
 
ion      s      p      d      f    tot
    1  0.055  0.240  0.025  0.006  0.325
    2  0.055  0.240  0.025  0.006  0.325
tot    0.110  0.480  0.049  0.011  0.650
 
band     7 # energy    0.76294691 # occ.  0.00000000
 
ion      s      p      d      f    tot
    1  0.070  0.273  0.008  0.008  0.359
    2  0.070  0.273  0.008  0.008  0.359
tot    0.140  0.546  0.017  0.015  0.718
 
band     8 # energy    0.87299532 # occ.  0.00000000
 
ion      s      p      d      f    tot
    1  0.000  0.365  0.023  0.006  0.394
    2  0.000  0.365  0.023  0.006  0.394
tot    0.000  0.730  0.046  0.012  0.788
 
band     9 # energy    2.32812602 # occ.  0.00000000
 
ion      s      p      d      f    tot
    1  0.001  0.026  0.022  0.002  0.051
    2  0.001  0.026  0.022  0.002  0.051
tot    0.003  0.052  0.044  0.003  0.102
 
band    10 # energy    2.40484903 # occ.  0.00000000
 
ion      s      p      d      f    tot
    1  0.002  0.038  0.008  0.001  0.049
    2  0.002  0.038  0.008  0.001  0.049
tot    0.005  0.075  0.016  0.003  0.099
 
band    11 # energy    3.74114285 # occ.  0.00000000
 
ion      s      p      d      f    tot
    1  0.009  0.037  0.025  0.003  0.073
    2  0.009  0.037  0.025  0.003  0.073
tot    0.017  0.074  0.049  0.006  0.146
 
band    12 # energy    4.58708038 # occ.  0.00000000
 
ion      s      p      d      f    tot
    1  0.009  0.033  0.079  0.010  0.131
    2  0.009  0.033  0.079  0.010  0.131
tot    0.018  0.065  0.158  0.020  0.262
 
band    13 # energy    4.77573873 # occ.  0.00000000
 
ion      s      p      d      f    tot
    1  0.001  0.005  0.057  0.004  0.068
    2  0.001  0.005  0.057  0.004  0.068
tot    0.003  0.011  0.114  0.008  0.135
 
band    14 # energy    5.74686311 # occ.  0.00000000
 
ion      s      p      d      f    tot
    1  0.027  0.057  0.073  0.005  0.163
    2  0.027  0.057  0.073  0.005  0.163
tot    0.055  0.114  0.146  0.011  0.325
 
band    15 # energy    5.80310179 # occ.  0.00000000
 
ion      s      p      d      f    tot
    1  0.000  0.012  0.185  0.010  0.208
    2  0.000  0.012  0.185  0.010  0.208
tot    0.000  0.025  0.370  0.021  0.415
 
band    16 # energy    6.11055006 # occ.  0.00000000
 
ion      s      p      d      f    tot
    1  0.042  0.078  0.053  0.013  0.187
    2  0.042  0.078  0.053  0.013  0.187
tot    0.085  0.156  0.106  0.027  0.374
 

 k-point     5 :    0.18181818 0.00000000 0.00000000     weight = 0.01239669

band     1 # energy  -13.21756848 # occ.  2.00000000
 
ion      s      p      d      f    tot
    1  0.336  0.019  0.001  0.001  0.357
    2  0.336  0.019  0.001  0.001  0.357
tot    0.672  0.038  0.002  0.001  0.714
 
band     2 # energy   -8.63013802 # occ.  2.00000000
 
ion      s      p      d      f    tot
    1  0.385  0.022  0.003  0.001  0.411
    2  0.385  0.022  0.003  0.001  0.411
tot    0.770  0.045  0.006  0.001  0.822
 
band     3 # energy   -4.25529486 # occ.  2.00000000
 
ion      s      p      d      f    tot
    1  0.012  0.290  0.019  0.002  0.323
    2  0.012  0.290  0.019  0.002  0.323
tot    0.023  0.580  0.039  0.004  0.645
 
band     4 # energy   -2.90670992 # occ.  2.00000000
 
ion      s      p      d      f    tot
    1  0.000  0.358  0.022  0.004  0.384
    2  0.000  0.358  0.022  0.004  0.384
tot    0.000  0.717  0.044  0.007  0.768
 
band     5 # energy   -2.78735592 # occ.  2.00000000
 
ion      s      p      d      f    tot
    1  0.016  0.286  0.003  0.002  0.306
    2  0.016  0.286  0.003  0.002  0.306
tot    0.032  0.571  0.006  0.003  0.613
 
band     6 # energy   -0.60488229 # occ.  0.00000000
 
ion      s      p      d      f    tot
    1  0.051  0.224  0.025  0.005  0.305
    2  0.051  0.224  0.025  0.005  0.305
tot    0.102  0.448  0.050  0.010  0.611
 
band     7 # energy    1.04010414 # occ.  0.00000000
 
ion      s      p      d      f    tot
    1  0.000  0.372  0.020  0.006  0.398
    2  0.000  0.372  0.020  0.006  0.398
tot    0.000  0.745  0.040  0.011  0.796
 
band     8 # energy    1.08465258 # occ.  0.00000000
 
ion      s      p      d      f    tot
    1  0.065  0.259  0.008  0.007  0.340
    2  0.065  0.259  0.008  0.007  0.340
tot    0.131  0.519  0.016  0.014  0.680
 
band     9 # energy    2.44211565 # occ.  0.00000000
 
ion      s      p      d      f    tot
    1  0.001  0.021  0.024  0.002  0.048
    2  0.001  0.021  0.024  0.002  0.048
tot    0.003  0.042  0.049  0.003  0.097
 
band    10 # energy    2.59469121 # occ.  0.00000000
 
ion      s      p      d      f    tot
    1  0.002  0.049  0.008  0.002  0.060
    2  0.002  0.049  0.008  0.002  0.060
tot    0.003  0.098  0.016  0.004  0.120
 
band    11 # energy    3.76541319 # occ.  0.00000000
 
ion      s      p      d      f    tot
    1  0.006  0.046  0.043  0.006  0.101
    2  0.006  0.046  0.043  0.006  0.101
tot    0.013  0.092  0.086  0.012  0.202
 
band    12 # energy    4.51407009 # occ.  0.00000000
 
ion      s      p      d      f    tot
    1  0.014  0.036  0.061  0.007  0.118
    2  0.014  0.036  0.061  0.007  0.118
tot    0.029  0.072  0.122  0.014  0.236
 
band    13 # energy    4.95744912 # occ.  0.00000000
 
ion      s      p      d      f    tot
    1  0.001  0.005  0.058  0.004  0.068
    2  0.001  0.005  0.058  0.004  0.068
tot    0.001  0.010  0.116  0.009  0.136
 
band    14 # energy    5.46140495 # occ.  0.00000000
 
ion      s      p      d      f    tot
    1  0.016  0.057  0.087  0.003  0.164
    2  0.016  0.057  0.087  0.003  0.164
tot    0.032  0.115  0.175  0.007  0.328
 
band    15 # energy    5.91054765 # occ.  0.00000000
 
ion      s      p      d      f    tot
    1  0.000  0.006  0.187  0.014  0.206
    2  0.000  0.006  0.187  0.014  0.206
tot    0.000  0.012  0.373  0.028  0.413
 
band    16 # energy    6.59507144 # occ.  0.00000000
 
ion      s      p      d      f    tot
    1  0.044  0.094  0.031  0.011  0.180
    2  0.044  0.094  0.031  0.011  0.180
tot    0.087  0.188  0.062  0.023  0.360
 

 k-point     6 :    0.22727273 0.00000000 0.00000000     weight = 0.01239669

band     1 # energy  -13.02657330 # occ.  2.00000000
 
ion      s      p      d      f    tot
    1  0.337  0.021  0.001  0.001  0.360
    2  0.337  0.021  0.001  0.001  0.360
tot    0.674  0.042  0.003  0.001  0.720
 
band     2 # energy   -8.71028080 # occ.  2.00000000
 
ion      s      p      d      f    tot
    1  0.396  0.020  0.004  0.001  0.421
    2  0.396  0.020  0.004  0.001  0.421
tot    0.792  0.041  0.008  0.001  0.842
 
band     3 # energy   -4.71794610 # occ.  2.00000000
 
ion      s      p      d      f    tot
    1  0.004  0.281  0.016  0.001  0.303
    2  0.004  0.281  0.016  0.001  0.303
tot    0.009  0.563  0.032  0.003  0.606
 
band     4 # energy   -3.12751492 # occ.  2.00000000
 
ion      s      p      d      f    tot
    1  0.000  0.353  0.021  0.003  0.377
    2  0.000  0.353  0.021  0.003  0.377
tot    0.000  0.705  0.041  0.007  0.754
 
band     5 # energy   -2.79592842 # occ.  2.00000000
 
ion      s      p      d      f    tot
    1  0.023  0.293  0.002  0.002  0.320
    2  0.023  0.293  0.002  0.002  0.320
tot    0.047  0.586  0.005  0.003  0.640
 
band     6 # energy   -0.84899587 # occ.  0.00000000
 
ion      s      p      d      f    tot
    1  0.048  0.207  0.026  0.005  0.286
    2  0.048  0.207  0.026  0.005  0.286
tot    0.097  0.414  0.052  0.010  0.572
 
band     7 # energy    1.16730059 # occ.  0.00000000
 
ion      s      p      d      f    tot
    1  0.000  0.373  0.019  0.005  0.397
    2  0.000  0.373  0.019  0.005  0.397
tot    0.000  0.747  0.038  0.010  0.795
 
band     8 # energy    1.19659515 # occ.  0.00000000
 
ion      s      p      d      f    tot
    1  0.050  0.238  0.020  0.006  0.314
    2  0.050  0.238  0.020  0.006  0.314
tot    0.100  0.476  0.040  0.012  0.627
 
band     9 # energy    2.56842481 # occ.  0.00000000
 
ion      s      p      d      f    tot
    1  0.003  0.012  0.029  0.001  0.045
    2  0.003  0.012  0.029  0.001  0.045
tot    0.006  0.024  0.058  0.003  0.090
 
band    10 # energy    2.79776235 # occ.  0.00000000
 
ion      s      p      d      f    tot
    1  0.002  0.050  0.005  0.001  0.058
    2  0.002  0.050  0.005  0.001  0.058
tot    0.003  0.100  0.010  0.003  0.116
 
band    11 # energy    3.84673509 # occ.  0.00000000
 
ion      s      p      d      f    tot
    1  0.006  0.071  0.043  0.006  0.126
    2  0.006  0.071  0.043  0.006  0.126
tot    0.012  0.143  0.086  0.012  0.252
 
band    12 # energy    4.64011485 # occ.  0.00000000
 
ion      s      p      d      f    tot
    1  0.020  0.044  0.046  0.005  0.115
    2  0.020  0.044  0.046  0.005  0.115
tot    0.040  0.088  0.092  0.010  0.230
 
band    13 # energy    5.21903039 # occ.  0.00000000
 
ion      s      p      d      f    tot
    1  0.001  0.013  0.064  0.007  0.086
    2  0.001  0.013  0.064  0.007  0.086
tot    0.001  0.027  0.129  0.015  0.171
 
band    14 # energy    5.26950158 # occ.  0.00000000
 
ion      s      p      d      f    tot
    1  0.017  0.045  0.085  0.003  0.150
    2  0.017  0.045  0.085  0.003  0.150
tot    0.034  0.091  0.170  0.005  0.299
 
band    15 # energy    6.15352088 # occ.  0.00000000
 
ion      s      p      d      f    tot
    1  0.000  0.006  0.186  0.019  0.211
    2  0.000  0.006  0.186  0.019  0.211
tot    0.000  0.012  0.372  0.037  0.422
 
band    16 # energy    6.66491791 # occ.  0.00000000
 
ion      s      p      d      f    tot
    1  0.025  0.040  0.035  0.014  0.115
    2  0.025  0.040  0.035  0.014  0.115
tot    0.051  0.080  0.071  0.029  0.231
 

 k-point     7 :    0.27272727 0.00000000 0.00000000     weight = 0.01239669

band     1 # energy  -12.79895516 # occ.  2.00000000
 
ion      s      p      d      f    tot
    1  0.338  0.023  0.002  0.001  0.364
    2  0.338  0.023  0.002  0.001  0.364
tot    0.677  0.046  0.004  0.001  0.729
 
band     2 # energy   -8.86000186 # occ.  2.00000000
 
ion      s      p      d      f    tot
    1  0.401  0.021  0.006  0.001  0.428
    2  0.401  0.021  0.006  0.001  0.428
tot    0.801  0.042  0.011  0.002  0.856
 
band     3 # energy   -5.05688666 # occ.  2.00000000
 
ion      s      p      d      f    tot
    1  0.003  0.273  0.012  0.001  0.289
    2  0.003  0.273  0.012  0.001  0.289
tot    0.005  0.546  0.025  0.002  0.578
 
band     4 # energy   -3.33085022 # occ.  2.00000000
 
ion      s      p      d      f    tot
    1  0.000  0.348  0.019  0.003  0.371
    2  0.000  0.348  0.019  0.003  0.371
tot    0.000  0.697  0.038  0.007  0.742
 
band     5 # energy   -2.87627558 # occ.  2.00000000
 
ion      s      p      d      f    tot
    1  0.033  0.295  0.002  0.002  0.332
    2  0.033  0.295  0.002  0.002  0.332
tot    0.066  0.591  0.004  0.003  0.663
 
band     6 # energy   -0.99820155 # occ.  0.00000000
 
ion      s      p      d      f    tot
    1  0.043  0.196  0.028  0.004  0.271
    2  0.043  0.196  0.028  0.004  0.271
tot    0.085  0.391  0.056  0.009  0.541
 
band     7 # energy    1.08746859 # occ.  0.00000000
 
ion      s      p      d      f    tot
    1  0.034  0.211  0.036  0.005  0.286
    2  0.034  0.211  0.036  0.005  0.286
tot    0.068  0.422  0.071  0.010  0.571
 
band     8 # energy    1.24445213 # occ.  0.00000000
 
ion      s      p      d      f    tot
    1  0.000  0.369  0.019  0.004  0.392
    2  0.000  0.369  0.019  0.004  0.392
tot    0.000  0.737  0.039  0.009  0.785
 
band     9 # energy    2.76468117 # occ.  0.00000000
 
ion      s      p      d      f    tot
    1  0.007  0.010  0.028  0.001  0.046
    2  0.007  0.010  0.028  0.001  0.046
tot    0.013  0.021  0.056  0.002  0.092
 
band    10 # energy    2.99866448 # occ.  0.00000000
 
ion      s      p      d      f    tot
    1  0.002  0.053  0.007  0.001  0.064
    2  0.002  0.053  0.007  0.001  0.064
tot    0.005  0.106  0.015  0.002  0.128
 
band    11 # energy    3.88940512 # occ.  0.00000000
 
ion      s      p      d      f    tot
    1  0.003  0.070  0.047  0.004  0.124
    2  0.003  0.070  0.047  0.004  0.124
tot    0.006  0.140  0.094  0.008  0.248
 
band    12 # energy    4.88224113 # occ.  0.00000000
 
ion      s      p      d      f    tot
    1  0.017  0.052  0.031  0.003  0.104
    2  0.017  0.052  0.031  0.003  0.104
tot    0.034  0.105  0.062  0.007  0.207
 
band    13 # energy    5.29215251 # occ.  0.00000000
 
ion      s      p      d      f    tot
    1  0.021  0.039  0.051  0.002  0.113
    2  0.021  0.039  0.051  0.002  0.113
tot    0.041  0.077  0.103  0.005  0.226
 
band    14 # energy    5.58870297 # occ.  0.00000000
 
ion      s      p      d      f    tot
    1  0.004  0.044  0.089  0.014  0.150
    2  0.004  0.044  0.089  0.014  0.150
tot    0.007  0.088  0.178  0.027  0.300
 
band    15 # energy    6.36147959 # occ.  0.00000000
 
ion      s      p      d      f    tot
    1  0.022  0.009  0.034  0.016  0.081
    2  0.022  0.009  0.034  0.016  0.081
tot    0.044  0.018  0.069  0.032  0.163
 
band    16 # energy    6.53689959 # occ.  0.00000000
 
ion      s      p      d      f    tot
    1  0.000  0.012  0.183  0.024  0.220
    2  0.000  0.012  0.183  0.024  0.220
tot    0.000  0.024  0.367  0.049  0.440
 

 k-point     8 :    0.31818182 0.00000000 0.00000000     weight = 0.01239669

band     1 # energy  -12.54000023 # occ.  2.00000000
 
ion      s      p      d      f    tot
    1  0.341  0.025  0.003  0.001  0.369
    2  0.341  0.025  0.003  0.001  0.369
tot    0.682  0.050  0.006  0.001  0.739
 
band     2 # energy   -9.08839076 # occ.  2.00000000
 
ion      s      p      d      f    tot
    1  0.396  0.025  0.007  0.001  0.429
    2  0.396  0.025  0.007  0.001  0.429
tot    0.793  0.051  0.014  0.002  0.858
 
band     3 # energy   -5.25611903 # occ.  2.00000000
 
ion      s      p      d      f    tot
    1  0.010  0.263  0.009  0.001  0.283
    2  0.010  0.263  0.009  0.001  0.283
tot    0.021  0.525  0.018  0.001  0.565
 
band     4 # energy   -3.50671744 # occ.  2.00000000
 
ion      s      p      d      f    tot
    1  0.000  0.345  0.018  0.003  0.366
    2  0.000  0.345  0.018  0.003  0.366
tot    0.000  0.690  0.035  0.006  0.732
 
band     5 # energy   -3.04175958 # occ.  2.00000000
 
ion      s      p      d      f    tot
    1  0.041  0.291  0.001  0.002  0.335
    2  0.041  0.291  0.001  0.002  0.335
tot    0.083  0.582  0.003  0.003  0.670
 
band     6 # energy   -1.02813736 # occ.  0.00000000
 
ion      s      p      d      f    tot
    1  0.036  0.193  0.031  0.004  0.263
    2  0.036  0.193  0.031  0.004  0.263
tot    0.072  0.386  0.061  0.008  0.527
 
band     7 # energy    0.86211922 # occ.  0.00000000
 
ion      s      p      d      f    tot
    1  0.023  0.194  0.045  0.004  0.267
    2  0.023  0.194  0.045  0.004  0.267
tot    0.046  0.389  0.090  0.008  0.533
 
band     8 # energy    1.27846895 # occ.  0.00000000
 
ion      s      p      d      f    tot
    1  0.000  0.361  0.021  0.004  0.386
    2  0.000  0.361  0.021  0.004  0.386
tot    0.000  0.722  0.042  0.007  0.771
 
band     9 # energy    3.03232261 # occ.  0.00000000
 
ion      s      p      d      f    tot
    1  0.007  0.022  0.033  0.001  0.063
    2  0.007  0.022  0.033  0.001  0.063
tot    0.015  0.044  0.065  0.002  0.126
 
band    10 # energy    3.15043596 # occ.  0.00000000
 
ion      s      p      d      f    tot
    1  0.005  0.054  0.018  0.001  0.078
    2  0.005  0.054  0.018  0.001  0.078
tot    0.010  0.108  0.036  0.002  0.156
 
band    11 # energy    3.88665463 # occ.  0.00000000
 
ion      s      p      d      f    tot
    1  0.001  0.040  0.044  0.002  0.088
    2  0.001  0.040  0.044  0.002  0.088
tot    0.002  0.081  0.089  0.004  0.175
 
band    12 # energy    5.09247583 # occ.  0.00000000
 
ion      s      p      d      f    tot
    1  0.012  0.045  0.025  0.002  0.084
    2  0.012  0.045  0.025  0.002  0.084
tot    0.024  0.090  0.050  0.004  0.168
 
band    13 # energy    5.54860649 # occ.  0.00000000
 
ion      s      p      d      f    tot
    1  0.021  0.037  0.026  0.002  0.085
    2  0.021  0.037  0.026  0.002  0.085
tot    0.042  0.074  0.052  0.004  0.171
 
band    14 # energy    5.94331718 # occ.  0.00000000
 
ion      s      p      d      f    tot
    1  0.003  0.057  0.057  0.019  0.136
    2  0.003  0.057  0.057  0.019  0.136
tot    0.007  0.114  0.113  0.038  0.272
 
band    15 # energy    6.25162259 # occ.  0.00000000
 
ion      s      p      d      f    tot
    1  0.026  0.039  0.063  0.014  0.143
    2  0.026  0.039  0.063  0.014  0.143
tot    0.053  0.079  0.125  0.028  0.285
 
band    16 # energy    7.04719627 # occ.  0.00000000
 
ion      s      p      d      f    tot
    1  0.000  0.022  0.179  0.031  0.231
    2  0.000  0.022  0.179  0.031  0.231
tot    0.000  0.044  0.357  0.062  0.463
 

 k-point     9 :    0.36363636 0.00000000 0.00000000     weight = 0.01239669

band     1 # energy  -12.26017108 # occ.  2.00000000
 
ion      s      p      d      f    tot
    1  0.345  0.027  0.004  0.001  0.376
    2  0.345  0.027  0.004  0.001  0.376
tot    0.689  0.053  0.007  0.001  0.751
 
band     2 # energy   -9.37962453 # occ.  2.00000000
 
ion      s      p      d      f    tot
    1  0.384  0.032  0.007  0.001  0.424
    2  0.384  0.032  0.007  0.001  0.424
tot    0.768  0.064  0.015  0.002  0.848
 
band     3 # energy   -5.32788991 # occ.  2.00000000
 
ion      s      p      d      f    tot
    1  0.026  0.252  0.006  0.000  0.284
    2  0.026  0.252  0.006  0.000  0.284
tot    0.052  0.503  0.012  0.001  0.568
 
band     4 # energy   -3.64871872 # occ.  2.00000000
 
ion      s      p      d      f    tot
    1  0.000  0.343  0.016  0.003  0.363
    2  0.000  0.343  0.016  0.003  0.363
tot    0.000  0.686  0.033  0.006  0.725
 
band     5 # energy   -3.26563186 # occ.  2.00000000
 
ion      s      p      d      f    tot
    1  0.045  0.282  0.002  0.002  0.331
    2  0.045  0.282  0.002  0.002  0.331
tot    0.090  0.565  0.003  0.003  0.661
 
band     6 # energy   -0.95992062 # occ.  0.00000000
 