<?xml version="1.0" encoding="ISO-8859-1"?>
<modeling>
 <generator>
  <i name="program" type="string">vasp </i>
  <i name="version" type="string">6.4.2  </i>
  <i name="subversion" type="string">20Jul23 (build Nov 14 2023 12:59:38) complex                          parallel </i>
  <i name="platform" type="string">LinuxIFC </i>
  <i name="date" type="string">2023 12 17 </i>
  <i name="time" type="string">08:38:11 </i>
 </generator>
 <incar>
  <i type="string" name="PREC">Accurate</i>
  <i type="string" name="ALGO">Normal</i>
  <i type="logical" name="ADDGRID"> T  </i>
  <i type="int" name="ISPIN">     1</i>
  <i name="AMIX">      0.10000000</i>
  <i name="BMIX">      0.00010000</i>
  <i type="int" name="NELM">   200</i>
  <i type="int" name="NELMDL">   -12</i>
  <i type="int" name="NELMIN">     6</i>
  <i type="int" name="IBRION">     2</i>
  <i name="EDIFF">      0.00000100</i>
  <i name="EDIFFG">     -0.01000000</i>
  <i type="int" name="NSW">     0</i>
  <i type="int" name="ISIF">    -1</i>
  <i name="ENCUT">    193.57762500</i>
  <i type="int" name="NBANDS">    16</i>
  <i name="POTIM">      0.50000000</i>
  <i type="int" name="NEDOS">  6001</i>
  <i type="logical" name="LPLANE"> T  </i>
  <i type="int" name="ISMEAR">     0</i>
  <i name="SIGMA">      0.01000000</i>
  <i type="int" name="NWRITE">     1</i>
  <i type="logical" name="LWAVE"> F  </i>
  <i type="logical" name="LCHARG"> F  </i>
  <i type="int" name="LORBIT">    10</i>
  <i type="logical" name="LASPH"> T  </i>
  <i type="int" name="IVDW">     0</i>
 </incar>
 <primitive_cell>
  <structure name="primitive_cell" >
   <crystal>
    <varray name="basis" >
     <v>       4.11336655       0.00000000       0.00000000 </v>
     <v>      -2.05668327       3.56227993       0.00000000 </v>
     <v>       0.00000000       0.00000000      16.00000000 </v>
    </varray>
    <i name="volume">    234.44740948 </i>
    <varray name="rec_basis" >
     <v>       0.24310987       0.14035955       0.00000000 </v>
     <v>       0.00000000       0.28071910       0.00000000 </v>
     <v>       0.00000000       0.00000000       0.06250000 </v>
    </varray>
   </crystal>
   <varray name="positions" >
    <v>       0.66666667       0.33333333       0.44862540 </v>
    <v>       0.33333333       0.66666667       0.55137460 </v>
   </varray>
  </structure>
  <varray name="primitive_index" >
   <v type="int" >        1 </v>
   <v type="int" >        2 </v>
  </varray>
 </primitive_cell>
 <kpoints>
  <generation param="Gamma">
   <v type="int" name="divisions">      22       22        1 </v>
   <v name="usershift">      0.00000000       0.00000000       0.00000000 </v>
   <v name="genvec1">      0.04545455       0.00000000       0.00000000 </v>
   <v name="genvec2">      0.00000000       0.04545455       0.00000000 </v>
   <v name="genvec3">      0.00000000       0.00000000       1.00000000 </v>
   <v name="shift">      0.00000000       0.00000000       0.00000000 </v>
  </generation>
  <varray name="kpointlist" >
   <v>       0.00000000       0.00000000       0.00000000 </v>
   <v>       0.04545455       0.00000000       0.00000000 </v>
   <v>       0.09090909       0.00000000       0.00000000 </v>
   <v>       0.13636364       0.00000000       0.00000000 </v>
   <v>       0.18181818       0.00000000       0.00000000 </v>
   <v>       0.22727273       0.00000000       0.00000000 </v>
   <v>       0.27272727       0.00000000       0.00000000 </v>
   <v>       0.31818182       0.00000000       0.00000000 </v>
   <v>       0.36363636       0.00000000       0.00000000 </v>
   <v>       0.40909091       0.00000000       0.00000000 </v>
   <v>       0.45454545       0.00000000       0.00000000 </v>
   <v>       0.50000000       0.00000000       0.00000000 </v>
   <v>       0.04545455       0.04545455       0.00000000 </v>
   <v>       0.09090909       0.04545455       0.00000000 </v>
   <v>       0.13636364       0.04545455       0.00000000 </v>
   <v>       0.18181818       0.04545455       0.00000000 </v>
   <v>       0.22727273       0.04545455       0.00000000 </v>
   <v>       0.27272727       0.04545455       0.00000000 </v>
   <v>       0.31818182       0.04545455       0.00000000 </v>
   <v>       0.36363636       0.04545455       0.00000000 </v>
   <v>       0.40909091       0.04545455       0.00000000 </v>
   <v>       0.45454545       0.04545455       0.00000000 </v>
   <v>       0.09090909       0.09090909       0.00000000 </v>
   <v>       0.13636364       0.09090909       0.00000000 </v>
   <v>       0.18181818       0.09090909       0.00000000 </v>
   <v>       0.22727273       0.09090909       0.00000000 </v>
   <v>       0.27272727       0.09090909       0.00000000 </v>
   <v>       0.31818182       0.09090909       0.00000000 </v>
   <v>       0.36363636       0.09090909       0.00000000 </v>
   <v>       0.40909091       0.09090909       0.00000000 </v>
   <v>       0.45454545       0.09090909       0.00000000 </v>
   <v>       0.13636364       0.13636364       0.00000000 </v>
   <v>       0.18181818       0.13636364       0.00000000 </v>
   <v>       0.22727273       0.13636364       0.00000000 </v>
   <v>       0.27272727       0.13636364       0.00000000 </v>
   <v>       0.31818182       0.13636364       0.00000000 </v>
   <v>       0.36363636       0.13636364       0.00000000 </v>
   <v>       0.40909091       0.13636364       0.00000000 </v>
   <v>       0.18181818       0.18181818       0.00000000 </v>
   <v>       0.22727273       0.18181818       0.00000000 </v>
   <v>       0.27272727       0.18181818       0.00000000 </v>
   <v>       0.31818182       0.18181818       0.00000000 </v>
   <v>       0.36363636       0.18181818       0.00000000 </v>
   <v>       0.40909091       0.18181818       0.00000000 </v>
   <v>       0.22727273       0.22727273       0.00000000 </v>
   <v>       0.27272727       0.22727273       0.00000000 </v>
   <v>       0.31818182       0.22727273       0.00000000 </v>
   <v>       0.36363636       0.22727273       0.00000000 </v>
   <v>       0.27272727       0.27272727       0.00000000 </v>
   <v>       0.31818182       0.27272727       0.00000000 </v>
   <v>       0.36363636       0.27272727       0.00000000 </v>
   <v>       0.31818182       0.31818182       0.00000000 </v>
  </varray>
  <varray name="weights" >
   <v>       0.00206612 </v>
   <v>       0.01239669 </v>
   <v>       0.01239669 </v>
   <v>       0.01239669 </v>
   <v>       0.01239669 </v>
   <v>       0.01239669 </v>
   <v>       0.01239669 </v>
   <v>       0.01239669 </v>
   <v>       0.01239669 </v>
   <v>       0.01239669 </v>
   <v>       0.01239669 </v>
   <v>       0.00619835 </v>
   <v>       0.01239669 </v>
   <v>       0.02479339 </v>
   <v>       0.02479339 </v>
   <v>       0.02479339 </v>
   <v>       0.02479339 </v>
   <v>       0.02479339 </v>
   <v>       0.02479339 </v>
   <v>       0.02479339 </v>
   <v>       0.02479339 </v>
   <v>       0.02479339 </v>
   <v>       0.01239669 </v>
   <v>       0.02479339 </v>
   <v>       0.02479339 </v>
   <v>       0.02479339 </v>
   <v>       0.02479339 </v>
   <v>       0.02479339 </v>
   <v>       0.02479339 </v>
   <v>       0.02479339 </v>
   <v>       0.01239669 </v>
   <v>       0.01239669 </v>
   <v>       0.02479339 </v>
   <v>       0.02479339 </v>
   <v>       0.02479339 </v>
   <v>       0.02479339 </v>
   <v>       0.02479339 </v>
   <v>       0.02479339 </v>
   <v>       0.01239669 </v>
   <v>       0.02479339 </v>
   <v>       0.02479339 </v>
   <v>       0.02479339 </v>
   <v>       0.02479339 </v>
   <v>       0.01239669 </v>
   <v>       0.01239669 </v>
   <v>       0.02479339 </v>
   <v>       0.02479339 </v>
   <v>       0.02479339 </v>
   <v>       0.01239669 </v>
   <v>       0.02479339 </v>
   <v>       0.01239669 </v>
   <v>       0.01239669 </v>
  </varray>
 </kpoints>
 <parameters>
  <separator name="general" >
   <i type="string" name="SYSTEM">unknown system</i>
   <i type="logical" name="LCOMPAT"> F  </i>
  </separator>
  <separator name="electronic" >
   <i type="string" name="PREC">accura</i>
   <i name="ENMAX">    193.57762500</i>
   <i name="ENAUG">    560.61200000</i>
   <i name="EDIFF">      0.00000100</i>
   <i type="int" name="IALGO">    38</i>
   <i type="int" name="IWAVPR">    10</i>
   <i type="int" name="NBANDS">    16</i>
   <i type="int" name="NBANDSLOW">    -1</i>
   <i type="int" name="NBANDSHIGH">    -1</i>
   <i name="NELECT">     10.00000000</i>
   <i type="int" name="TURBO">     0</i>
   <i type="int" name="IRESTART">     0</i>
   <i type="int" name="NREBOOT">     0</i>
   <i type="int" name="NMIN">     0</i>
   <i name="EREF">      0.00000000</i>
   <separator name="electronic smearing" >
    <i type="int" name="ISMEAR">     0</i>
    <i name="SIGMA">      0.01000000</i>
    <i name="KSPACING">      0.50000000</i>
    <i type="logical" name="KGAMMA"> T  </i>
    <i type="logical" name="KBLOWUP"> T  </i>
   </separator>
   <separator name="electronic projectors" >
    <i type="logical" name="LREAL"> F  </i>
    <v name="ROPT">      0.00000000</v>
    <i type="int" name="LMAXPAW">  -100</i>
    <i type="int" name="LMAXMIX">     2</i>
    <i type="logical" name="NLSPLINE"> F  </i>
   </separator>
   <separator name="electronic startup" >
    <i type="int" name="ISTART">     0</i>
    <i type="int" name="ICHARG">     2</i>
    <i type="int" name="INIWAV">     1</i>
   </separator>
   <separator name="electronic spin" >
    <i type="int" name="ISPIN">     1</i>
    <i type="logical" name="LNONCOLLINEAR"> F  </i>
    <v name="MAGMOM">      1.00000000      1.00000000</v>
    <i name="NUPDOWN">     -1.00000000</i>
    <i type="logical" name="LSORBIT"> F  </i>
    <v name="SAXIS">      0.00000000      0.00000000      1.00000000</v>
    <i type="logical" name="LSPIRAL"> F  </i>
    <v name="QSPIRAL">      0.00000000      0.00000000      0.00000000</v>
    <i type="logical" name="LZEROZ"> F  </i>
   </separator>
   <separator name="electronic exchange-correlation" >
    <i type="logical" name="LASPH"> T  </i>
    <i type="logical" name="LMETAGGA"> F  </i>
   </separator>
   <separator name="electronic convergence" >
    <i type="int" name="NELM">   200</i>
    <i type="int" name="NELMDL">   -12</i>
    <i type="int" name="NELMIN">     6</i>
    <i name="ENINI">    193.57762500</i>
    <separator name="electronic convergence detail" >
     <i type="logical" name="LDIAG"> T  </i>
     <i type="logical" name="LSUBROT"> F  </i>
     <i name="WEIMIN">      0.00000000</i>
     <i name="EBREAK">      0.00000002</i>
     <i name="DEPER">      0.30000000</i>
     <i type="int" name="NRMM">     4</i>
     <i name="TIME">      0.40000000</i>
    </separator>
   </separator>
   <separator name="electronic mixer" >
    <i name="AMIX">      0.10000000</i>
    <i name="BMIX">      0.00010000</i>
    <i name="AMIN">      0.10000000</i>
    <i name="AMIX_MAG">      0.40000000</i>
    <i name="BMIX_MAG">      0.00010000</i>
    <separator name="electronic mixer details" >
     <i type="int" name="IMIX">     4</i>
     <i type="logical" name="MIXFIRST"> F  </i>
     <i type="int" name="MAXMIX">   -45</i>
     <i name="WC">    100.00000000</i>
     <i type="int" name="INIMIX">     1</i>
     <i type="int" name="MIXPRE">     1</i>
     <i type="int" name="MREMOVE">     5</i>
    </separator>
   </separator>
   <separator name="electronic dipolcorrection" >
    <i type="logical" name="LDIPOL"> F  </i>
    <i type="logical" name="LMONO"> F  </i>
    <i type="int" name="IDIPOL">     0</i>
    <i name="EPSILON">      1.00000000</i>
    <v name="DIPOL">   -100.00000000   -100.00000000   -100.00000000</v>
    <i name="EFIELD">      0.00000000</i>
   </separator>
  </separator>
  <separator name="grids" >
   <i type="int" name="NGX">    20</i>
   <i type="int" name="NGY">    20</i>
   <i type="int" name="NGZ">    80</i>
   <i type="int" name="NGXF">    40</i>
   <i type="int" name="NGYF">    40</i>
   <i type="int" name="NGZF">   160</i>
   <i type="logical" name="ADDGRID"> T  </i>
  </separator>
  <separator name="ionic" >
   <i type="int" name="NSW">     0</i>
   <i type="int" name="IBRION">    -1</i>
   <i type="int" name="MDALGO">     0</i>
   <i type="int" name="ISIF">    -1</i>
   <i name="PSTRESS">      0.00000000</i>
   <i name="EDIFFG">     -0.01000000</i>
   <i type="int" name="NFREE">     1</i>
   <i name="POTIM">      0.50000000</i>
   <i name="SMASS">     -3.00000000</i>
   <i name="SCALEE">      1.00000000</i>
  </separator>
  <separator name="ionic md" >
   <i name="TEBEG">      0.00010000</i>
   <i name="TEEND">      0.00010000</i>
   <i type="int" name="NBLOCK">     1</i>
   <i type="int" name="KBLOCK">     1</i>
   <i type="int" name="NPACO">   256</i>
   <i name="APACO">     10.00000000</i>
  </separator>
  <separator name="symmetry" >
   <i type="int" name="ISYM">     2</i>
   <i name="SYMPREC">      0.00001000</i>
  </separator>
  <separator name="dos" >
   <i type="int" name="LORBIT">    10</i>
   <v name="RWIGS">     -1.00000000</v>
   <i type="int" name="NEDOS">  6001</i>
   <i name="EMIN">     10.00000000</i>
   <i name="EMAX">    -10.00000000</i>
   <i name="EFERMI">      0.00000000</i>
  </separator>
  <separator name="writing" >
   <i type="int" name="NWRITE">     1</i>
   <i type="logical" name="LWAVE"> F  </i>
   <i type="logical" name="LDOWNSAMPLE"> F  </i>
   <i type="logical" name="LCHARG"> F  </i>
   <i type="logical" name="LPARD"> F  </i>
   <i type="logical" name="LVTOT"> F  </i>
   <i type="logical" name="LVHAR"> F  </i>
   <i type="logical" name="LELF"> F  </i>
   <i type="logical" name="LOPTICS"> F  </i>
   <v name="STM">      0.00000000      0.00000000      0.00000000      0.00000000      0.00000000      0.00000000      0.00000000</v>
  </separator>
  <separator name="performance" >
   <i type="int" name="NPAR">     4</i>
   <i type="int" name="NSIM">     4</i>
   <i type="int" name="NBLK">    -1</i>
   <i type="logical" name="LPLANE"> T  </i>
   <i type="logical" name="LSCALAPACK"> T  </i>
   <i type="logical" name="LSCAAWARE"> F  </i>
   <i type="logical" name="LSCALU"> F  </i>
   <i type="logical" name="LASYNC"> F  </i>
   <i type="logical" name="LORBITALREAL"> F  </i>
  </separator>
  <separator name="miscellaneous" >
   <i type="int" name="IDIOT">     3</i>
   <i type="int" name="PHON_NSTRUCT">    -1</i>
   <i type="logical" name="LMUSIC"> F  </i>
   <v name="POMASS">    121.75000000</v>
   <v name="DARWINR">      0.00000000</v>
   <v name="DARWINV">      1.00000000</v>
   <i type="logical" name="LCORR"> T  </i>
  </separator>
  <i type="logical" name="GGA_COMPAT"> T  </i>
  <i type="logical" name="LBERRY"> F  </i>
  <i type="int" name="ICORELEVEL">     0</i>
  <i type="logical" name="LDAU"> F  </i>
  <i type="int" name="I_CONSTRAINED_M">     0</i>
  <separator name="electronic exchange-correlation" >
   <i type="string" name="GGA">--</i>
   <i type="int" name="VOSKOWN">     0</i>
   <i type="logical" name="LHFCALC"> F  </i>
   <i type="string" name="PRECFOCK"></i>
   <i type="logical" name="LSYMGRAD"> F  </i>
   <i type="logical" name="LHFONE"> F  </i>
   <i type="logical" name="LRHFCALC"> F  </i>
   <i type="logical" name="LTHOMAS"> F  </i>
   <i type="logical" name="LMODELHF"> F  </i>
   <i type="logical" name="LFOCKACE"> F  </i>
   <i name="ENCUT4O">     -1.00000000</i>
   <i type="int" name="EXXOEP">     0</i>
   <i type="int" name="FOURORBIT">     0</i>
   <i name="AEXX">      0.00000000</i>
   <i name="HFALPHA">      0.00000000</i>
   <i name="MCALPHA">      0.00000000</i>
   <i name="ALDAX">      1.00000000</i>
   <i name="AGGAX">      1.00000000</i>
   <i name="ALDAC">      1.00000000</i>
   <i name="AGGAC">      1.00000000</i>
   <i type="int" name="NKREDX">     1</i>
   <i type="int" name="NKREDY">     1</i>
   <i type="int" name="NKREDZ">     1</i>
   <i type="logical" name="SHIFTRED"> F  </i>
   <i type="logical" name="ODDONLY"> F  </i>
   <i type="logical" name="EVENONLY"> F  </i>
   <i type="int" name="LMAXFOCK">     0</i>
   <i type="int" name="NMAXFOCKAE">     0</i>
   <i type="logical" name="LFOCKAEDFT"> F  </i>
   <i name="HFSCREEN">      0.00000000</i>
   <i name="HFSCREENC">      0.00000000</i>
   <i type="int" name="NBANDSGWLOW">     0</i>
  </separator>
  <separator name="vdW DFT" >
   <i type="logical" name="LUSE_VDW"> F  </i>
   <i type="int" name="IVDW_NL">     1</i>
   <i type="logical" name="LSPIN_VDW"> F  </i>
   <i name="Zab_VDW">     -0.84910000</i>
   <i name="PARAM1">      0.12340000</i>
   <i name="PARAM2">      1.00000000</i>
   <i name="PARAM3">      0.00000000</i>
  </separator>
  <separator name="model GW" >
   <i type="int" name="MODEL_GW">     0</i>
   <i name="MODEL_EPS0">     70.33422284</i>
   <i name="MODEL_ALPHA">      1.00000000</i>
  </separator>
  <separator name="linear response parameters" >
   <i type="logical" name="LEPSILON"> F  </i>
   <i type="logical" name="LRPA"> F  </i>
   <i type="logical" name="LNABLA"> F  </i>
   <i type="logical" name="LVEL"> F  </i>
   <i name="CSHIFT">      0.10000000</i>
   <i name="OMEGAMAX">     -1.00000000</i>
   <i name="DEG_THRESHOLD">      0.00200000</i>
   <i name="RTIME">     -0.10000000</i>
   <i name="WPLASMAI">      0.00000000</i>
   <v name="DFIELD">      0.00000000      0.00000000      0.00000000</v>
   <v name="WPLASMA">      0.00000000      0.00000000      0.00000000      0.00000000      0.00000000      0.00000000      0.00000000      0.00000000      0.00000000</v>
  </separator>
  <separator name="orbital magnetization" >
   <i type="logical" name="NUCIND"> F  </i>
   <v name="MAGPOS">      0.00000000      0.00000000      0.00000000</v>
   <i type="logical" name="LNICSALL"> T  </i>
   <i type="logical" name="ORBITALMAG"> F  </i>
   <i type="logical" name="LMAGBLOCH"> F  </i>
   <i type="logical" name="LCHIMAG"> F  </i>
   <i type="logical" name="LGAUGE"> T  </i>
   <i type="int" name="MAGATOM">     0</i>
   <v name="MAGDIPOL">      0.00000000      0.00000000      0.00000000</v>
   <v name="AVECCONST">      0.00000000      0.00000000      0.00000000</v>
  </separator>
  <separator name="response functions" >
   <i type="logical" name="LALL_IN_ONE"> F  </i>
   <i type="int" name="IALL_IN_ONE">    -1</i>
   <i type="int" name="NBANDS_WAVE">    -1</i>
   <i type="logical" name="LFINITE_TEMPERATURE"> F  </i>
   <i type="logical" name="LADDER"> F  </i>
   <i type="logical" name="LRPAFORCE"> F  </i>
   <i type="logical" name="LFXC"> F  </i>
   <i type="logical" name="LHARTREE"> T  </i>
   <i type="int" name="IBSE">     0</i>
   <v type="int" name="KPOINT">    -1     0     0     0</v>
   <i type="logical" name="LTCTC"> F  </i>
   <i type="logical" name="LTCTE"> F  </i>
   <i type="logical" name="LTETE"> F  </i>
   <i type="logical" name="LTRIPLET"> F  </i>
   <i type="logical" name="LFXCEPS"> F  </i>
   <i type="logical" name="LFXHEG"> F  </i>
   <i type="int" name="NATURALO">     2</i>
   <i type="logical" name="LHOLEGF"> F  </i>
   <i type="logical" name="L2ORDER"> F  </i>
   <i type="logical" name="LDMP1"> F  </i>
   <i type="logical" name="LMP2LT"> F  </i>
   <i type="logical" name="LSMP2LT"> F  </i>
   <i type="logical" name="LGWLF"> F  </i>
   <i name="ENCUTGW">     -1.60000002</i>
   <i name="ENCUTGWSOFT">     -1.60000002</i>
   <i name="ENCUTLF">     -1.00000000</i>
   <i type="logical" name="LESF_SPLINES"> F  </i>
   <i type="int" name="LMAXMP2">    -1</i>
   <i name="SCISSOR">      0.00000000</i>
   <i type="int" name="NOMEGA">     0</i>
   <i type="int" name="NOMEGAR">     0</i>
   <i type="int" name="NBANDSGW">    -1</i>
   <i type="int" name="NBANDSO">    -1</i>
   <i type="int" name="NBANDSV">    -1</i>
   <i type="int" name="NELMGW">     1</i>
   <i type="int" name="NELMHF">     1</i>
   <i type="int" name="DIM">     3</i>
   <i type="int" name="IESPILON">     4</i>
   <i type="int" name="ANTIRES">     0</i>
   <i name="OMEGAMAX">    -30.00000000</i>
   <i name="OMEGAMIN">    -30.00000000</i>
   <i name="OMEGATL">   -200.00000000</i>
   <i type="int" name="OMEGAGRID">     0</i>
   <i name="CSHIFT">     -0.10000000</i>
   <i type="logical" name="LSELFENERGY"> F  </i>
   <i type="logical" name="LSPECTRAL"> F  </i>
   <i type="logical" name="LSPECTRALGW"> F  </i>
   <i type="logical" name="LSINGLES"> F  </i>
   <i type="logical" name="LFERMIGW"> F  </i>
   <i type="logical" name="ODDONLYGW"> F  </i>
   <i type="logical" name="EVENONLYGW"> F  </i>
   <i type="int" name="NKREDLFX">     1</i>
   <i type="int" name="NKREDLFY">     1</i>
   <i type="int" name="NKREDLFZ">     1</i>
   <i type="int" name="MAXMEM">  2800</i>
   <i type="int" name="TELESCOPE">     0</i>
   <i type="int" name="NTAUPAR">    -1</i>
   <i type="int" name="NOMEGAPAR">    -1</i>
   <i name="DAMP_NEWTON">      0.80000001</i>
   <i name="LAMBDA">      1.00000000</i>
  </separator>
  <separator name="External order field" >
   <i name="OFIELD_KAPPA">      0.00000000</i>
   <v name="OFIELD_K">      0.00000000      0.00000000      0.00000000</v>
   <i name="OFIELD_Q6_NEAR">      0.00000000</i>
   <i name="OFIELD_Q6_FAR">      0.00000000</i>
   <i name="OFIELD_A">      0.00000000</i>
  </separator>
  <separator name="optional k-points parameters" >
   <i type="int" name="KPOINTS_OPT_MODE">     1</i>
   <i type="logical" name="LKPOINTS_OPT"> F  </i>
  </separator>
 </parameters>
 <atominfo>
  <atoms>       2 </atoms>
  <types>       1 </types>
  <array name="atoms" >
   <dimension dim="1">ion</dimension>
   <field type="string">element</field>
   <field type="int">atomtype</field>
   <set>
    <rc><c>Sb</c><c>   1</c></rc>
    <rc><c>Sb</c><c>   1</c></rc>
   </set>
  </array>
  <array name="atomtypes" >
   <dimension dim="1">type</dimension>
   <field type="int">atomspertype</field>
   <field type="string">element</field>
   <field>mass</field>
   <field>valence</field>
   <field type="string">pseudopotential</field>
   <set>
    <rc><c>   2</c><c>Sb</c><c>    121.75000000</c><c>      5.00000000</c><c>  PAW_PBE Sb_GW 21Mar2012               </c></rc>
   </set>
  </array>
 </atominfo>
 <structure name="initialpos" >
  <crystal>
   <varray name="basis" >
    <v>       4.11336655       0.00000000       0.00000000 </v>
    <v>      -2.05668327       3.56227993       0.00000000 </v>
    <v>       0.00000000       0.00000000      16.00000000 </v>
   </varray>
   <i name="volume">    234.44740948 </i>
   <varray name="rec_basis" >
    <v>       0.24310987       0.14035955       0.00000000 </v>
    <v>       0.00000000       0.28071910       0.00000000 </v>
    <v>       0.00000000       0.00000000       0.06250000 </v>
   </varray>
  </crystal>
  <varray name="positions" >
   <v>       0.66666667       0.33333333       0.44862540 </v>
   <v>       0.33333333       0.66666667       0.55137460 </v>
  </varray>
 </structure>
 <calculation>
  <scstep>
   <time name="dav">    0.40    0.40</time>
   <time name="total">    0.91    0.91</time>
   <energy>
    <i name="alphaZ">      2.97593478 </i>
    <i name="ewald">    213.91894841 </i>
    <i name="hartreedc">   -467.82089709 </i>
    <i name="XCdc">    -92.70009852 </i>
    <i name="pawpsdc">    327.35893868 </i>
    <i name="pawaedc">   -219.44694627 </i>
    <i name="eentropy">     -0.00008306 </i>
    <i name="bandstr">    -35.96340243 </i>
    <i name="atom">    299.89217194 </i>
    <i name="e_fr_energy">     28.21456645 </i>
    <i name="e_wo_entrp">     28.21464951 </i>
    <i name="e_0_energy">     28.21460798 </i>
   </energy>
  </scstep>
  <scstep>
   <time name="dav">    0.47    0.47</time>
   <time name="total">    0.47    0.47</time>
   <energy>
    <i name="e_fr_energy">     -5.93090260 </i>
    <i name="e_wo_entrp">     -5.93090260 </i>
    <i name="e_0_energy">     -5.93090260 </i>
   </energy>
  </scstep>
  <scstep>
   <time name="dav">    0.44    0.44</time>
   <time name="total">    0.44    0.44</time>
   <energy>
    <i name="e_fr_energy">     -8.12321271 </i>
    <i name="e_wo_entrp">     -8.12321271 </i>
    <i name="e_0_energy">     -8.12321271 </i>
   </energy>
  </scstep>
  <scstep>
   <time name="dav">    0.39    0.39</time>
   <time name="total">    0.39    0.40</time>
   <energy>
    <i name="e_fr_energy">     -8.16535175 </i>
    <i name="e_wo_entrp">     -8.16535175 </i>
    <i name="e_0_energy">     -8.16535175 </i>
   </energy>
  </scstep>
  <scstep>
   <time name="dav">    0.49    0.49</time>
   <time name="total">    0.49    0.49</time>
   <energy>
    <i name="e_fr_energy">     -8.16675613 </i>
    <i name="e_wo_entrp">     -8.16675613 </i>
    <i name="e_0_energy">     -8.16675613 </i>
   </energy>
  </scstep>
  <scstep>
   <time name="dav">    0.41    0.41</time>
   <time name="total">    0.41    0.42</time>
   <energy>
    <i name="e_fr_energy">     -8.16676653 </i>
    <i name="e_wo_entrp">     -8.16676653 </i>
    <i name="e_0_energy">     -8.16676653 </i>
   </energy>
  </scstep>
  <scstep>
   <time name="dav">    0.48    0.48</time>
   <time name="total">    0.48    0.48</time>
   <energy>
    <i name="e_fr_energy">     -8.16676667 </i>
    <i name="e_wo_entrp">     -8.16676667 </i>
    <i name="e_0_energy">     -8.16676667 </i>
   </energy>
  </scstep>
  <scstep>
   <time name="dav">    0.36    0.36</time>
   <time name="total">    0.36    0.36</time>
   <energy>
    <i name="e_fr_energy">     -8.16676667 </i>
    <i name="e_wo_entrp">     -8.16676667 </i>
    <i name="e_0_energy">     -8.16676667 </i>
   </energy>
  </scstep>
  <scstep>
   <time name="dav">    0.36    0.36</time>
   <time name="total">    0.36    0.36</time>
   <energy>
    <i name="e_fr_energy">     -8.16676667 </i>
    <i name="e_wo_entrp">     -8.16676667 </i>
    <i name="e_0_energy">     -8.16676667 </i>
   </energy>
  </scstep>
  <scstep>
   <time name="dav">    0.32    0.32</time>
   <time name="total">    0.32    0.32</time>
   <energy>
    <i name="e_fr_energy">     -8.16676668 </i>
    <i name="e_wo_entrp">     -8.16676668 </i>
    <i name="e_0_energy">     -8.16676668 </i>
   </energy>
  </scstep>
  <scstep>
   <time name="dav">    0.29    0.29</time>
   <time name="total">    0.29    0.29</time>
   <energy>
    <i name="e_fr_energy">     -8.16676668 </i>
    <i name="e_wo_entrp">     -8.16676668 </i>
    <i name="e_0_energy">     -8.16676668 </i>
   </energy>
  </scstep>
  <scstep>
   <time name="dav">    0.26    0.26</time>
   <time name="total">    0.29    0.29</time>
   <energy>
    <i name="e_fr_energy">     -8.16676668 </i>
    <i name="e_wo_entrp">     -8.16676668 </i>
    <i name="e_0_energy">     -8.16676668 </i>
   </energy>
  </scstep>
  <scstep>
   <time name="dav">    0.37    0.37</time>
   <time name="total">    0.93    0.93</time>
   <energy>
    <i name="e_fr_energy">     -8.15148956 </i>
    <i name="e_wo_entrp">     -8.15148956 </i>
    <i name="e_0_energy">     -8.15148956 </i>
   </energy>
  </scstep>
  <scstep>
   <time name="dav">    0.38    0.38</time>
   <time name="total">    0.90    0.90</time>
   <energy>
    <i name="e_fr_energy">     -8.12155688 </i>
    <i name="e_wo_entrp">     -8.12155688 </i>
    <i name="e_0_energy">     -8.12155688 </i>
   </energy>
  </scstep>
  <scstep>
   <time name="dav">    0.27    0.27</time>
   <time name="total">    0.60    0.60</time>
   <energy>
    <i name="e_fr_energy">     -8.11827905 </i>
    <i name="e_wo_entrp">     -8.11827905 </i>
    <i name="e_0_energy">     -8.11827905 </i>
   </energy>
  </scstep>
  <scstep>
   <time name="dav">    0.29    0.29</time>
   <time name="total">    0.62    0.62</time>
   <energy>
    <i name="e_fr_energy">     -8.11794412 </i>
    <i name="e_wo_entrp">     -8.11794412 </i>
    <i name="e_0_energy">     -8.11794412 </i>
   </energy>
  </scstep>
  <scstep>
   <time name="dav">    0.29    0.29</time>
   <time name="total">    0.62    0.62</time>
   <energy>
    <i name="e_fr_energy">     -8.11784195 </i>
    <i name="e_wo_entrp">     -8.11784195 </i>
    <i name="e_0_energy">     -8.11784195 </i>
   </energy>
  </scstep>
  <scstep>
   <time name="dav">    0.25    0.25</time>
   <time name="total">    0.57    0.57</time>
   <energy>
    <i name="e_fr_energy">     -8.11783571 </i>
    <i name="e_wo_entrp">     -8.11783571 </i>
    <i name="e_0_energy">     -8.11783571 </i>
   </energy>
  </scstep>
  <scstep>
   <time name="dav">    0.28    0.28</time>
   <time name="total">    0.59    0.59</time>
   <energy>
    <i name="alphaZ">      2.97593478 </i>
    <i name="ewald">    213.91894841 </i>
    <i name="hartreedc">   -472.85403951 </i>
    <i name="XCdc">    -92.29579511 </i>
    <i name="pawpsdc">    366.57330577 </i>
    <i name="pawaedc">   -258.80248729 </i>
    <i name="eentropy">     -0.00000000 </i>
    <i name="bandstr">    -67.52587372 </i>
    <i name="atom">    299.89217194 </i>
    <i name="e_fr_energy">     -8.11783474 </i>
    <i name="e_wo_entrp">     -8.11783474 </i>
    <i name="e_0_energy">     -8.11783474 </i>
   </energy>
  </scstep>
  <structure>
   <crystal>
    <varray name="basis" >
     <v>       4.11336655       0.00000000       0.00000000 </v>
     <v>      -2.05668327       3.56227993       0.00000000 </v>
     <v>       0.00000000       0.00000000      16.00000000 </v>
    </varray>
    <i name="volume">    234.44740948 </i>
    <varray name="rec_basis" >
     <v>       0.24310987       0.14035955       0.00000000 </v>
     <v>       0.00000000       0.28071910       0.00000000 </v>
     <v>       0.00000000       0.00000000       0.06250000 </v>
    </varray>
   </crystal>
   <varray name="positions" >
    <v>       0.66666667       0.33333333       0.44862540 </v>
    <v>       0.33333333       0.66666667       0.55137460 </v>
   </varray>
  </structure>
  <varray name="forces" >
   <v>       0.00000000       0.00000000       0.00000000 </v>
   <v>       0.00000000       0.00000000       0.00000000 </v>
  </varray>
  <varray name="stress" >
   <v>       0.00000000       0.00000000       0.00000000 </v>
   <v>       0.00000000       0.00000000       0.00000000 </v>
   <v>       0.00000000       0.00000000       0.00000000 </v>
  </varray>
  <energy>
   <i name="e_fr_energy">     -8.11783474 </i>
   <i name="e_wo_entrp">     -8.11783474 </i>
   <i name="e_0_energy">     -8.11783474 </i>
  </energy>
  <time name="totalsc">   10.05   10.16</time>
  <eigenvalues>
   <array>
    <dimension dim="1">band</dimension>
    <dimension dim="2">kpoint</dimension>
    <dimension dim="3">spin</dimension>
    <field>eigene</field>
    <field>occ</field>
    <set>
     <set comment="spin 1">
      <set comment="kpoint 1">
       <r>  -13.5652    1.0000 </r>
       <r>   -8.5922    1.0000 </r>
       <r>   -2.8908    1.0000 </r>
       <r>   -2.2843    1.0000 </r>
       <r>   -2.2843    1.0000 </r>
       <r>   -0.7176    0.0000 </r>
       <r>    0.5060    0.0000 </r>
       <r>    0.5060    0.0000 </r>
       <r>    2.0897    0.0000 </r>
       <r>    2.1680    0.0000 </r>
       <r>    3.6261    0.0000 </r>
       <r>    4.5298    0.0000 </r>
       <r>    4.8442    0.0000 </r>
       <r>    5.8845    0.0000 </r>
       <r>    5.8845    0.0000 </r>
       <r>    6.4952    0.0000 </r>
      </set>
      <set comment="kpoint 2">
       <r>  -13.5431    1.0000 </r>
       <r>   -8.5907    1.0000 </r>
       <r>   -2.8807    1.0000 </r>
       <r>   -2.5582    1.0000 </r>
       <r>   -2.3382    1.0000 </r>
       <r>   -0.4847    0.0000 </r>
       <r>    0.4455    0.0000 </r>
       <r>    0.5590    0.0000 </r>
       <r>    2.1201    0.0000 </r>
       <r>    2.1943    0.0000 </r>
       <r>    3.6527    0.0000 </r>
       <r>    4.5545    0.0000 </r>
       <r>    4.9236    0.0000 </r>
       <r>    5.6150    0.0000 </r>
       <r>    5.8538    0.0000 </r>
       <r>    6.5985    0.0000 </r>
      </set>
      <set comment="kpoint 3">
       <r>  -13.4773    1.0000 </r>
       <r>   -8.5894    1.0000 </r>
       <r>   -3.1097    1.0000 </r>
       <r>   -2.8528    1.0000 </r>
       <r>   -2.4832    1.0000 </r>
       <r>   -0.1968    0.0000 </r>
       <r>    0.4345    0.0000 </r>
       <r>    0.6970    0.0000 </r>
       <r>    2.2085    0.0000 </r>
       <r>    2.2700    0.0000 </r>
       <r>    3.7063    0.0000 </r>
       <r>    4.6261    0.0000 </r>
       <r>    4.8718    0.0000 </r>
       <r>    5.5658    0.0000 </r>
       <r>    5.8025    0.0000 </r>
       <r>    6.2144    0.0000 </r>
      </set>
      <set comment="kpoint 4">
       <r>  -13.3685    1.0000 </r>
       <r>   -8.5972    1.0000 </r>
       <r>   -3.7034    1.0000 </r>
       <r>   -2.8160    1.0000 </r>
       <r>   -2.6840    1.0000 </r>
       <r>   -0.3308    0.0000 </r>
       <r>    0.7629    0.0000 </r>
       <r>    0.8730    0.0000 </r>
       <r>    2.3281    0.0000 </r>
       <r>    2.4048    0.0000 </r>
       <r>    3.7411    0.0000 </r>
       <r>    4.5871    0.0000 </r>
       <r>    4.7757    0.0000 </r>
       <r>    5.7469    0.0000 </r>
       <r>    5.8031    0.0000 </r>
       <r>    6.1106    0.0000 </r>
      </set>
      <set comment="kpoint 5">
       <r>  -13.2176    1.0000 </r>
       <r>   -8.6301    1.0000 </r>
       <r>   -4.2553    1.0000 </r>
       <r>   -2.9067    1.0000 </r>
       <r>   -2.7874    1.0000 </r>
       <r>   -0.6049    0.0000 </r>
       <r>    1.0401    0.0000 </r>
       <r>    1.0847    0.0000 </r>
       <r>    2.4421    0.0000 </r>
       <r>    2.5947    0.0000 </r>
       <r>    3.7654    0.0000 </r>
       <r>    4.5141    0.0000 </r>
       <r>    4.9574    0.0000 </r>
       <r>    5.4614    0.0000 </r>
       <r>    5.9105    0.0000 </r>
       <r>    6.5951    0.0000 </r>
      </set>
      <set comment="kpoint 6">
       <r>  -13.0266    1.0000 </r>
       <r>   -8.7103    1.0000 </r>
       <r>   -4.7179    1.0000 </r>
       <r>   -3.1275    1.0000 </r>
       <r>   -2.7959    1.0000 </r>
       <r>   -0.8490    0.0000 </r>
       <r>    1.1673    0.0000 </r>
       <r>    1.1966    0.0000 </r>
       <r>    2.5684    0.0000 </r>
       <r>    2.7978    0.0000 </r>
       <r>    3.8467    0.0000 </r>
       <r>    4.6401    0.0000 </r>
       <r>    5.2190    0.0000 </r>
       <r>    5.2695    0.0000 </r>
       <r>    6.1535    0.0000 </r>
       <r>    6.6649    0.0000 </r>
      </set>
      <set comment="kpoint 7">
       <r>  -12.7990    1.0000 </r>
       <r>   -8.8600    1.0000 </r>
       <r>   -5.0569    1.0000 </r>
       <r>   -3.3309    1.0000 </r>
       <r>   -2.8763    1.0000 </r>
       <r>   -0.9982    0.0000 </r>
       <r>    1.0875    0.0000 </r>
       <r>    1.2445    0.0000 </r>
       <r>    2.7647    0.0000 </r>
       <r>    2.9987    0.0000 </r>
       <r>    3.8894    0.0000 </r>
       <r>    4.8822    0.0000 </r>
       <r>    5.2922    0.0000 </r>
       <r>    5.5887    0.0000 </r>
       <r>    6.3615    0.0000 </r>
       <r>    6.5369    0.0000 </r>
      </set>
      <set comment="kpoint 8">
       <r>  -12.5400    1.0000 </r>
       <r>   -9.0884    1.0000 </r>
       <r>   -5.2561    1.0000 </r>
       <r>   -3.5067    1.0000 </r>
       <r>   -3.0418    1.0000 </r>
       <r>   -1.0281    0.0000 </r>
       <r>    0.8621    0.0000 </r>
       <r>    1.2785    0.0000 </r>
       <r>    3.0323    0.0000 </r>
       <r>    3.1504    0.0000 </r>
       <r>    3.8867    0.0000 </r>
       <r>    5.0925    0.0000 </r>
       <r>    5.5486    0.0000 </r>
       <r>    5.9433    0.0000 </r>
       <r>    6.2516    0.0000 </r>
       <r>    7.0472    0.0000 </r>
      </set>
      <set comment="kpoint 9">
       <r>  -12.2602    1.0000 </r>
       <r>   -9.3796    1.0000 </r>
       <r>   -5.3279    1.0000 </r>
       <r>   -3.6487    1.0000 </r>
       <r>   -3.2656    1.0000 </r>
       <r>   -0.9599    0.0000 </r>
       <r>    0.6132    0.0000 </r>
       <r>    1.2842    0.0000 </r>
       <r>    3.0966    0.0000 </r>
       <r>    3.4026    0.0000 </r>
       <r>    4.0236    0.0000 </r>
       <r>    5.1994    0.0000 </r>
       <r>    5.8886    0.0000 </r>
       <r>    5.9261    0.0000 </r>
       <r>    6.4863    0.0000 </r>
       <r>    6.8327    0.0000 </r>
      </set>
      <set comment="kpoint 10">
       <r>  -11.9802    1.0000 </r>
       <r>   -9.6915    1.0000 </r>
       <r>   -5.3097    1.0000 </r>
       <r>   -3.7527    1.0000 </r>
       <r>   -3.4969    1.0000 </r>
       <r>   -0.8386    0.0000 </r>
       <r>    0.3881    0.0000 </r>
       <r>    1.2768    0.0000 </r>
       <r>    2.9661    0.0000 </r>
       <r>    3.7892    0.0000 </r>
       <r>    4.3079    0.0000 </r>
       <r>    5.1757    0.0000 </r>
       <r>    5.8779    0.0000 </r>
       <r>    6.0904    0.0000 </r>
       <r>    6.2892    0.0000 </r>
       <r>    6.6335    0.0000 </r>
      </set>
      <set comment="kpoint 11">
       <r>  -11.7466    1.0000 </r>
       <r>   -9.9547    1.0000 </r>
       <r>   -5.2563    1.0000 </r>
       <r>   -3.8161    1.0000 </r>
       <r>   -3.6773    1.0000 </r>
       <r>   -0.7174    0.0000 </r>
       <r>    0.2187    0.0000 </r>
       <r>    1.2678    0.0000 </r>
       <r>    2.8464    0.0000 </r>
       <r>    4.2110    0.0000 </r>
       <r>    4.6149    0.0000 </r>
       <r>    5.1115    0.0000 </r>
       <r>    5.4386    0.0000 </r>
       <r>    5.9148    0.0000 </r>
       <r>    6.4586    0.0000 </r>
       <r>    6.7726    0.0000 </r>
      </set>
      <set comment="kpoint 12">
       <r>  -11.6477    1.0000 </r>
       <r>  -10.0653    1.0000 </r>
       <r>   -5.2284    1.0000 </r>
       <r>   -3.8374    1.0000 </r>
       <r>   -3.7473    1.0000 </r>
       <r>   -0.6628    0.0000 </r>
       <r>    0.1509    0.0000 </r>
       <r>    1.2641    0.0000 </r>
       <r>    2.8006    0.0000 </r>
       <r>    4.5353    0.0000 </r>
       <r>    4.7078    0.0000 </r>
       <r>    4.9837    0.0000 </r>
       <r>    5.3222    0.0000 </r>
       <r>    5.6687    0.0000 </r>
       <r>    6.5690    0.0000 </r>
       <r>    7.0459    0.0000 </r>
      </set>
      <set comment="kpoint 13">
       <r>  -13.4993    1.0000 </r>
       <r>   -8.5894    1.0000 </r>
       <r>   -2.9445    1.0000 </r>
       <r>   -2.8619    1.0000 </r>
       <r>   -2.4508    1.0000 </r>
       <r>   -0.1945    0.0000 </r>
       <r>    0.3292    0.0000 </r>
       <r>    0.6925    0.0000 </r>
       <r>    2.1808    0.0000 </r>
       <r>    2.2440    0.0000 </r>
       <r>    3.6918    0.0000 </r>
       <r>    4.6035    0.0000 </r>
       <r>    4.9375    0.0000 </r>
       <r>    5.5118    0.0000 </r>
       <r>    5.7555    0.0000 </r>
       <r>    6.4162    0.0000 </r>
      </set>
      <set comment="kpoint 14">
       <r>  -13.4119    1.0000 </r>
       <r>   -8.5925    1.0000 </r>
       <r>   -3.4758    1.0000 </r>
       <r>   -2.8309    1.0000 </r>
       <r>   -2.6501    1.0000 </r>
       <r>   -0.0797    0.0000 </r>
       <r>    0.3564    0.0000 </r>
       <r>    0.9314    0.0000 </r>
       <r>    2.2940    0.0000 </r>
       <r>    2.3412    0.0000 </r>
       <r>    3.7289    0.0000 </r>
       <r>    4.6772    0.0000 </r>
       <r>    4.7312    0.0000 </r>
       <r>    5.6248    0.0000 </r>
       <r>    5.8106    0.0000 </r>
       <r>    6.1970    0.0000 </r>
      </set>
      <set comment="kpoint 15">
       <r>  -13.2820    1.0000 </r>
       <r>   -8.6125    1.0000 </r>
       <r>   -4.0198    1.0000 </r>
       <r>   -2.9024    1.0000 </r>
       <r>   -2.7833    1.0000 </r>
       <r>   -0.3308    0.0000 </r>
       <r>    0.6578    0.0000 </r>
       <r>    1.1748    0.0000 </r>
       <r>    2.4135    0.0000 </r>
       <r>    2.5038    0.0000 </r>
       <r>    3.7304    0.0000 </r>
       <r>    4.5344    0.0000 </r>
       <r>    4.8572    0.0000 </r>
       <r>    5.5181    0.0000 </r>
       <r>    5.9889    0.0000 </r>
       <r>    6.3639    0.0000 </r>
      </set>
      <set comment="kpoint 16">
       <r>  -13.1109    1.0000 </r>
       <r>   -8.6684    1.0000 </r>
       <r>   -4.5093    1.0000 </r>
       <r>   -3.1427    1.0000 </r>
       <r>   -2.7718    1.0000 </r>
       <r>   -0.6017    0.0000 </r>
       <r>    0.9008    0.0000 </r>
       <r>    1.3102    0.0000 </r>
       <r>    2.5260    0.0000 </r>
       <r>    2.7039    0.0000 </r>
       <r>    3.7605    0.0000 </r>
       <r>    4.5724    0.0000 </r>
       <r>    5.0592    0.0000 </r>
       <r>    5.3716    0.0000 </r>
       <r>    6.0870    0.0000 </r>
       <r>    6.7233    0.0000 </r>
      </set>
      <set comment="kpoint 17">
       <r>  -12.9013    1.0000 </r>
       <r>   -8.7832    1.0000 </r>
       <r>   -4.8991    1.0000 </r>
       <r>   -3.3710    1.0000 </r>
       <r>   -2.8067    1.0000 </r>
       <r>   -0.8072    0.0000 </r>
       <r>    1.0485    0.0000 </r>
       <r>    1.2630    0.0000 </r>
       <r>    2.6789    0.0000 </r>
       <r>    2.9144    0.0000 </r>
       <r>    3.8485    0.0000 </r>
       <r>    4.7612    0.0000 </r>
       <r>    5.2807    0.0000 </r>
       <r>    5.3232    0.0000 </r>
       <r>    6.3289    0.0000 </r>
       <r>    6.7321    0.0000 </r>
      </set>
      <set comment="kpoint 18">
       <r>  -12.6573    1.0000 </r>
       <r>   -8.9737    1.0000 </r>
       <r>   -5.1609    1.0000 </r>
       <r>   -3.5709    1.0000 </r>
       <r>   -2.9200    1.0000 </r>
       <r>   -0.9049    0.0000 </r>
       <r>    1.0211    0.0000 </r>
       <r>    1.1686    0.0000 </r>
       <r>    2.9131    0.0000 </r>
       <r>    3.1117    0.0000 </r>
       <r>    3.8839    0.0000 </r>
       <r>    5.0088    0.0000 </r>
       <r>    5.3944    0.0000 </r>
       <r>    5.6449    0.0000 </r>
       <r>    6.3068    0.0000 </r>
       <r>    7.0299    0.0000 </r>
      </set>
      <set comment="kpoint 19">
       <r>  -12.3863    1.0000 </r>
       <r>   -9.2371    1.0000 </r>
       <r>   -5.2914    1.0000 </r>
       <r>   -3.7331    1.0000 </r>
       <r>   -3.1103    1.0000 </r>
       <r>   -0.8893    0.0000 </r>
       <r>    0.7767    0.0000 </r>
       <r>    1.1891    0.0000 </r>
       <r>    3.1438    0.0000 </r>
       <r>    3.2718    0.0000 </r>
       <r>    3.9440    0.0000 </r>
       <r>    5.1916    0.0000 </r>
       <r>    5.6969    0.0000 </r>
       <r>    5.8748    0.0000 </r>
       <r>    6.3984    0.0000 </r>
       <r>    6.8788    0.0000 </r>
      </set>
      <set comment="kpoint 20">
       <r>  -12.1026    1.0000 </r>
       <r>   -9.5446    1.0000 </r>
       <r>   -5.3157    1.0000 </r>
       <r>   -3.8504    1.0000 </r>
       <r>   -3.3420    1.0000 </r>
       <r>   -0.7902    0.0000 </r>
       <r>    0.5221    0.0000 </r>
       <r>    1.1999    0.0000 </r>
       <r>    3.0744    0.0000 </r>
       <r>    3.6149    0.0000 </r>
       <r>    4.1696    0.0000 </r>
       <r>    5.2564    0.0000 </r>
       <r>    5.8929    0.0000 </r>
       <r>    6.1232    0.0000 </r>
       <r>    6.2536    0.0000 </r>
       <r>    6.8020    0.0000 </r>
      </set>
      <set comment="kpoint 21">
       <r>  -11.8370    1.0000 </r>
       <r>   -9.8424    1.0000 </r>
       <r>   -5.2796    1.0000 </r>
       <r>   -3.9151    1.0000 </r>
       <r>   -3.5650    1.0000 </r>
       <r>   -0.6530    0.0000 </r>
       <r>    0.3000    0.0000 </r>
       <r>    1.2041    0.0000 </r>
       <r>    2.9324    0.0000 </r>
       <r>    4.0247    0.0000 </r>
       <r>    4.4923    0.0000 </r>
       <r>    5.2108    0.0000 </r>
       <r>    5.6714    0.0000 </r>
       <r>    6.0185    0.0000 </r>
       <r>    6.4264    0.0000 </r>
       <r>    6.6073    0.0000 </r>
      </set>
      <set comment="kpoint 22">
       <r>  -11.6570    1.0000 </r>
       <r>  -10.0437    1.0000 </r>
       <r>   -5.2389    1.0000 </r>
       <r>   -3.9263    1.0000 </r>
       <r>   -3.7205    1.0000 </r>
       <r>   -0.5400    0.0000 </r>
       <r>    0.1517    0.0000 </r>
       <r>    1.2063    0.0000 </r>
       <r>    2.8395    0.0000 </r>
       <r>    4.4559    0.0000 </r>
       <r>    4.7496    0.0000 </r>
       <r>    5.0550    0.0000 </r>
       <r>    5.3508    0.0000 </r>
       <r>    5.7848    0.0000 </r>
       <r>    6.4590    0.0000 </r>
       <r>    6.9754    0.0000 </r>
      </set>
      <set comment="kpoint 23">
       <r>  -13.3035    1.0000 </r>
       <r>   -8.6075    1.0000 </r>
       <r>   -3.9114    1.0000 </r>
       <r>   -2.9459    1.0000 </r>
       <r>   -2.7839    1.0000 </r>
       <r>    0.0424    0.0000 </r>
       <r>    0.2510    0.0000 </r>
       <r>    1.2159    0.0000 </r>
       <r>    2.4301    0.0000 </r>
       <r>    2.4462    0.0000 </r>
       <r>    3.7113    0.0000 </r>
       <r>    4.5684    0.0000 </r>
       <r>    4.8081    0.0000 </r>
       <r>    5.5041    0.0000 </r>
       <r>    6.1726    0.0000 </r>
       <r>    6.1889    0.0000 </r>
      </set>
      <set comment="kpoint 24">
       <r>  -13.1533    1.0000 </r>
       <r>   -8.6497    1.0000 </r>
       <r>   -4.3468    1.0000 </r>
       <r>   -3.2515    1.0000 </r>
       <r>   -2.7617    1.0000 </r>
       <r>   -0.1822    0.0000 </r>
       <r>    0.4946    0.0000 </r>
       <r>    1.3915    0.0000 </r>
       <r>    2.5487    0.0000 </r>
       <r>    2.6185    0.0000 </r>
       <r>    3.6610    0.0000 </r>
       <r>    4.5604    0.0000 </r>
       <r>    4.9570    0.0000 </r>
       <r>    5.4980    0.0000 </r>
       <r>    6.1438    0.0000 </r>
       <r>    6.5726    0.0000 </r>
      </set>
      <set comment="kpoint 25">
       <r>  -12.9632    1.0000 </r>
       <r>   -8.7396    1.0000 </r>
       <r>   -4.7296    1.0000 </r>
       <r>   -3.5402    1.0000 </r>
       <r>   -2.7659    1.0000 </r>
       <r>   -0.4137    0.0000 </r>
       <r>    0.7236    0.0000 </r>
       <r>    1.4042    0.0000 </r>
       <r>    2.6689    0.0000 </r>
       <r>    2.8315    0.0000 </r>
       <r>    3.6936    0.0000 </r>
       <r>    4.6855    0.0000 </r>
       <r>    5.1486    0.0000 </r>
       <r>    5.3933    0.0000 </r>
       <r>    6.3494    0.0000 </r>
       <r>    6.8243    0.0000 </r>
      </set>
      <set comment="kpoint 26">
       <r>  -12.7364    1.0000 </r>
       <r>   -8.8964    1.0000 </r>
       <r>   -5.0198    1.0000 </r>
       <r>   -3.7869    1.0000 </r>
       <r>   -2.8293    1.0000 </r>
       <r>   -0.5734    0.0000 </r>
       <r>    0.8709    0.0000 </r>
       <r>    1.2563    0.0000 </r>
       <r>    2.8516    0.0000 </r>
       <r>    3.0614    0.0000 </r>
       <r>    3.8137    0.0000 </r>
       <r>    4.9011    0.0000 </r>
       <r>    5.2216    0.0000 </r>
       <r>    5.4447    0.0000 </r>
       <r>    6.5389    0.0000 </r>
       <r>    6.9887    0.0000 </r>
      </set>
      <set comment="kpoint 27">
       <r>  -12.4782    1.0000 </r>
       <r>   -9.1266    1.0000 </r>
       <r>   -5.1983    1.0000 </r>
       <r>   -3.9797    1.0000 </r>
       <r>   -2.9706    1.0000 </r>
       <r>   -0.6295    0.0000 </r>
       <r>    0.9125    0.0000 </r>
       <r>    1.0523    0.0000 </r>
       <r>    3.1020    0.0000 </r>
       <r>    3.2652    0.0000 </r>
       <r>    3.9168    0.0000 </r>
       <r>    5.1540    0.0000 </r>
       <r>    5.2951    0.0000 </r>
       <r>    5.7323    0.0000 </r>
       <r>    6.5264    0.0000 </r>
       <r>    6.8582    0.0000 </r>
      </set>
      <set comment="kpoint 28">
       <r>  -12.1986    1.0000 </r>
       <r>   -9.4153    1.0000 </r>
       <r>   -5.2748    1.0000 </r>
       <r>   -4.1092    1.0000 </r>
       <r>   -3.1796    1.0000 </r>
       <r>   -0.5828    0.0000 </r>
       <r>    0.7059    0.0000 </r>
       <r>    1.0319    0.0000 </r>
       <r>    3.2169    0.0000 </r>
       <r>    3.5055    0.0000 </r>
       <r>    4.0779    0.0000 </r>
       <r>    5.3148    0.0000 </r>
       <r>    5.5972    0.0000 </r>
       <r>    6.0511    0.0000 </r>
       <r>    6.4262    0.0000 </r>
       <r>    6.7564    0.0000 </r>
      </set>
      <set comment="kpoint 29">
       <r>  -11.9176    1.0000 </r>
       <r>   -9.7238    1.0000 </r>
       <r>   -5.2826    1.0000 </r>
       <r>   -4.1662    1.0000 </r>
       <r>   -3.4196    1.0000 </r>
       <r>   -0.4583    0.0000 </r>
       <r>    0.4461    0.0000 </r>
       <r>    1.0561    0.0000 </r>
       <r>    3.0972    0.0000 </r>
       <r>    3.8846    0.0000 </r>
       <r>    4.3759    0.0000 </r>
       <r>    5.3938    0.0000 </r>
       <r>    5.7877    0.0000 </r>
       <r>    6.0080    0.0000 </r>
       <r>    6.4093    0.0000 </r>
       <r>    6.6882    0.0000 </r>
      </set>
      <set comment="kpoint 30">
       <r>  -11.6810    1.0000 </r>
       <r>   -9.9862    1.0000 </r>
       <r>   -5.2645    1.0000 </r>
       <r>   -4.1521    1.0000 </r>
       <r>   -3.6375    1.0000 </r>
       <r>   -0.2886    0.0000 </r>
       <r>    0.2048    0.0000 </r>
       <r>    1.0762    0.0000 </r>
       <r>    2.9639    0.0000 </r>
       <r>    4.3177    0.0000 </r>
       <r>    4.7312    0.0000 </r>
       <r>    5.2546    0.0000 </r>
       <r>    5.5365    0.0000 </r>
       <r>    5.8852    0.0000 </r>
       <r>    6.3499    0.0000 </r>
       <r>    6.8375    0.0000 </r>
      </set>
      <set comment="kpoint 31">
       <r>  -11.5796    1.0000 </r>
       <r>  -10.0979    1.0000 </r>
       <r>   -5.2543    1.0000 </r>
       <r>   -4.1210    1.0000 </r>
       <r>   -3.7411    1.0000 </r>
       <r>   -0.1568    0.0000 </r>
       <r>    0.0512    0.0000 </r>
       <r>    1.0844    0.0000 </r>
       <r>    2.9106    0.0000 </r>
       <r>    4.7586    0.0000 </r>
       <r>    4.7747    0.0000 </r>
       <r>    5.0700    0.0000 </r>
       <r>    5.3216    0.0000 </r>
       <r>    5.8762    0.0000 </r>
       <r>    6.2282    0.0000 </r>
       <r>    7.1539    0.0000 </r>
      </set>
      <set comment="kpoint 32">
       <r>  -12.9839    1.0000 </r>
       <r>   -8.7255    1.0000 </r>
       <r>   -4.6456    1.0000 </r>
       <r>   -3.6341    1.0000 </r>
       <r>   -2.7553    1.0000 </r>
       <r>   -0.1143    0.0000 </r>
       <r>    0.4533    0.0000 </r>
       <r>    1.4710    0.0000 </r>
       <r>    2.7293    0.0000 </r>
       <r>    2.7421    0.0000 </r>
       <r>    3.5954    0.0000 </r>
       <r>    4.6664    0.0000 </r>
       <r>    5.0985    0.0000 </r>
       <r>    5.4804    0.0000 </r>
       <r>    6.3779    0.0000 </r>
       <r>    6.7253    0.0000 </r>
      </set>
      <set comment="kpoint 33">
       <r>  -12.7762    1.0000 </r>
       <r>   -8.8575    1.0000 </r>
       <r>   -4.8903    1.0000 </r>
       <r>   -3.9767    1.0000 </r>
       <r>   -2.7899    1.0000 </r>
       <r>   -0.2011    0.0000 </r>
       <r>    0.5416    0.0000 </r>
       <r>    1.4370    0.0000 </r>
       <r>    2.8723    0.0000 </r>
       <r>    2.9710    0.0000 </r>
       <r>    3.6533    0.0000 </r>
       <r>    4.8397    0.0000 </r>
       <r>    5.1572    0.0000 </r>
       <r>    5.4415    0.0000 </r>
       <r>    6.6935    0.0000 </r>
       <r>    6.7920    0.0000 </r>
      </set>
      <set comment="kpoint 34">
       <r>  -12.5341    1.0000 </r>
       <r>   -9.0566    1.0000 </r>
       <r>   -5.0656    1.0000 </r>
       <r>   -4.2427    1.0000 </r>
       <r>   -2.8885    1.0000 </r>
       <r>   -0.2923    0.0000 </r>
       <r>    0.5992    0.0000 </r>
       <r>    1.3249    0.0000 </r>
       <r>    3.0702    0.0000 </r>
       <r>    3.2306    0.0000 </r>
       <r>    3.8313    0.0000 </r>
       <r>    4.9903    0.0000 </r>
       <r>    5.0858    0.0000 </r>
       <r>    5.6715    0.0000 </r>
       <r>    6.5881    0.0000 </r>
       <r>    6.9165    0.0000 </r>
      </set>
      <set comment="kpoint 35">
       <r>  -12.2645    1.0000 </r>
       <r>   -9.3181    1.0000 </r>
       <r>   -5.1761    1.0000 </r>
       <r>   -4.4100    1.0000 </r>
       <r>   -3.0591    1.0000 </r>
       <r>   -0.3181    0.0000 </r>
       <r>    0.5839    0.0000 </r>
       <r>    1.1899    0.0000 </r>
       <r>    3.2897    0.0000 </r>
       <r>    3.4744    0.0000 </r>
       <r>    4.0290    0.0000 </r>
       <r>    5.0475    0.0000 </r>
       <r>    5.3091    0.0000 </r>
       <r>    5.9886    0.0000 </r>
       <r>    6.4404    0.0000 </r>
       <r>    6.8300    0.0000 </r>
      </set>
      <set comment="kpoint 36">
       <r>  -11.9804    1.0000 </r>
       <r>   -9.6182    1.0000 </r>
       <r>   -5.2448    1.0000 </r>
       <r>   -4.4643    1.0000 </r>
       <r>   -3.2845    1.0000 </r>
       <r>   -0.2757    0.0000 </r>
       <r>    0.5116    0.0000 </r>
       <r>    1.0822    0.0000 </r>
       <r>    3.3037    0.0000 </r>
       <r>    3.7938    0.0000 </r>
       <r>    4.2830    0.0000 </r>
       <r>    5.3027    0.0000 </r>
       <r>    5.5202    0.0000 </r>
       <r>    6.2470    0.0000 </r>
       <r>    6.3511    0.0000 </r>
       <r>    6.6083    0.0000 </r>
      </set>
      <set comment="kpoint 37">
       <r>  -11.7106    1.0000 </r>
       <r>   -9.9111    1.0000 </r>
       <r>   -5.2912    1.0000 </r>
       <r>   -4.4156    1.0000 </r>
       <r>   -3.5254    1.0000 </r>
       <r>   -0.1928    0.0000 </r>
       <r>    0.4116    0.0000 </r>
       <r>    1.0205    0.0000 </r>
       <r>    3.1773    0.0000 </r>
       <r>    4.2003    0.0000 </r>
       <r>    4.6302    0.0000 </r>
       <r>    5.4123    0.0000 </r>
       <r>    5.7031    0.0000 </r>
       <r>    5.7951    0.0000 </r>
       <r>    6.5243    0.0000 </r>
       <r>    6.7402    0.0000 </r>
      </set>
      <set comment="kpoint 38">
       <r>  -11.5229    1.0000 </r>
       <r>  -10.1145    1.0000 </r>
       <r>   -5.3170    1.0000 </r>
       <r>   -4.3258    1.0000 </r>
       <r>   -3.7108    1.0000 </r>
       <r>   -0.1182    0.0000 </r>
       <r>    0.3298    0.0000 </r>
       <r>    0.9960    0.0000 </r>
       <r>    3.0807    0.0000 </r>
       <r>    4.6527    0.0000 </r>
       <r>    5.0031    0.0000 </r>
       <r>    5.1395    0.0000 </r>
       <r>    5.3875    0.0000 </r>
       <r>    5.9073    0.0000 </r>
       <r>    6.1825    0.0000 </r>
       <r>    7.1624    0.0000 </r>
      </set>
      <set comment="kpoint 39">
       <r>  -12.5528    1.0000 </r>
       <r>   -9.0325    1.0000 </r>
       <r>   -4.9829    1.0000 </r>
       <r>   -4.3745    1.0000 </r>
       <r>   -2.8619    1.0000 </r>
       <r>   -0.0617    0.0000 </r>
       <r>    0.3736    0.0000 </r>
       <r>    1.4672    0.0000 </r>
       <r>    3.0975    0.0000 </r>
       <r>    3.1576    0.0000 </r>
       <r>    3.7469    0.0000 </r>
       <r>    4.9602    0.0000 </r>
       <r>    5.0270    0.0000 </r>
       <r>    5.6587    0.0000 </r>
       <r>    6.4648    0.0000 </r>
       <r>    7.1575    0.0000 </r>
      </set>
      <set comment="kpoint 40">
       <r>  -12.2980    1.0000 </r>
       <r>   -9.2658    1.0000 </r>
       <r>   -5.0349    1.0000 </r>
       <r>   -4.6678    1.0000 </r>
       <r>   -2.9951    1.0000 </r>
       <r>   -0.0406    0.0000 </r>
       <r>    0.2900    0.0000 </r>
       <r>    1.4616    0.0000 </r>
       <r>    3.3042    0.0000 </r>
       <r>    3.4498    0.0000 </r>
       <r>    3.9693    0.0000 </r>
       <r>    4.7776    0.0000 </r>
       <r>    5.2102    0.0000 </r>
       <r>    5.9534    0.0000 </r>
       <r>    6.2668    0.0000 </r>
       <r>    7.2121    0.0000 </r>
      </set>
      <set comment="kpoint 41">
       <r>  -12.0201    1.0000 </r>
       <r>   -9.5448    1.0000 </r>
       <r>   -5.1521    1.0000 </r>
       <r>   -4.7425    1.0000 </r>
       <r>   -3.1879    1.0000 </r>
       <r>   -0.1315    0.0000 </r>
       <r>    0.3498    0.0000 </r>
       <r>    1.3879    0.0000 </r>
       <r>    3.4837    0.0000 </r>
       <r>    3.7585    0.0000 </r>
       <r>    4.2290    0.0000 </r>
       <r>    4.8360    0.0000 </r>
       <r>    5.3349    0.0000 </r>
       <r>    6.2288    0.0000 </r>
       <r>    6.3046    0.0000 </r>
       <r>    6.8153    0.0000 </r>
      </set>
      <set comment="kpoint 42">
       <r>  -11.7364    1.0000 </r>
       <r>   -9.8419    1.0000 </r>
       <r>   -5.3077    1.0000 </r>
       <r>   -4.6388    1.0000 </r>
       <r>   -3.4194    1.0000 </r>
       <r>   -0.2329    0.0000 </r>
       <r>    0.4888    0.0000 </r>
       <r>    1.2589    0.0000 </r>
       <r>    3.4678    0.0000 </r>
       <r>    4.1249    0.0000 </r>
       <r>    4.5255    0.0000 </r>
       <r>    5.1136    0.0000 </r>
       <r>    5.4661    0.0000 </r>
       <r>    6.1418    0.0000 </r>
       <r>    6.4809    0.0000 </r>
       <r>    6.6939    0.0000 </r>
      </set>
      <set comment="kpoint 43">
       <r>  -11.4887    1.0000 </r>
       <r>  -10.1035    1.0000 </r>
       <r>   -5.4130    1.0000 </r>
       <r>   -4.4830    1.0000 </r>
       <r>   -3.6441    1.0000 </r>
       <r>   -0.3001    0.0000 </r>
       <r>    0.6612    0.0000 </r>
       <r>    1.0990    0.0000 </r>
       <r>    3.3718    0.0000 </r>
       <r>    4.5507    0.0000 </r>
       <r>    4.8452    0.0000 </r>
       <r>    5.2078    0.0000 </r>
       <r>    5.6177    0.0000 </r>
       <r>    5.7988    0.0000 </r>
       <r>    6.3688    0.0000 </r>
       <r>    6.8849    0.0000 </r>
      </set>
      <set comment="kpoint 44">
       <r>  -11.3772    1.0000 </r>
       <r>  -10.2208    1.0000 </r>
       <r>   -5.4491    1.0000 </r>
       <r>   -4.3940    1.0000 </r>
       <r>   -3.7558    1.0000 </r>
       <r>   -0.3232    0.0000 </r>
       <r>    0.7852    0.0000 </r>
       <r>    0.9806    0.0000 </r>
       <r>    3.3282    0.0000 </r>
       <r>    4.8762    0.0000 </r>
       <r>    5.0981    0.0000 </r>
       <r>    5.1097    0.0000 </r>
       <r>    5.2853    0.0000 </r>
       <r>    5.9256    0.0000 </r>
       <r>    6.2126    0.0000 </r>
       <r>    7.1942    0.0000 </r>
      </set>
      <set comment="kpoint 45">
       <r>  -12.0337    1.0000 </r>
       <r>   -9.5184    1.0000 </r>
       <r>   -5.0377    1.0000 </r>
       <r>   -4.9236    1.0000 </r>
       <r>   -3.1526    1.0000 </r>
       <r>   -0.0462    0.0000 </r>
       <r>    0.2343    0.0000 </r>
       <r>    1.5568    0.0000 </r>
       <r>    3.5604    0.0000 </r>
       <r>    3.7527    0.0000 </r>
       <r>    4.2128    0.0000 </r>
       <r>    4.6076    0.0000 </r>
       <r>    5.2369    0.0000 </r>
       <r>    6.1844    0.0000 </r>
       <r>    6.2834    0.0000 </r>
       <r>    7.1920    0.0000 </r>
      </set>
      <set comment="kpoint 46">
       <r>  -11.7510    1.0000 </r>
       <r>   -9.8006    1.0000 </r>
       <r>   -5.3118    1.0000 </r>
       <r>   -4.7681    1.0000 </r>
       <r>   -3.3545    1.0000 </r>
       <r>   -0.2791    0.0000 </r>
       <r>    0.4621    0.0000 </r>
       <r>    1.5369    0.0000 </r>
       <r>    3.7844    0.0000 </r>
       <r>    4.0905    0.0000 </r>
       <r>    4.4594    0.0000 </r>
       <r>    4.6859    0.0000 </r>
       <r>    5.2075    0.0000 </r>
       <r>    6.3309    0.0000 </r>
       <r>    6.6564    0.0000 </r>
       <r>    6.6718    0.0000 </r>
      </set>
      <set comment="kpoint 47">
       <r>  -11.4724    1.0000 </r>
       <r>  -10.0841    1.0000 </r>
       <r>   -5.4999    1.0000 </r>
       <r>   -4.5740    1.0000 </r>
       <r>   -3.5789    1.0000 </r>
       <r>   -0.4459    0.0000 </r>
       <r>    0.7087    0.0000 </r>
       <r>    1.4105    0.0000 </r>
       <r>    3.7920    0.0000 </r>
       <r>    4.4857    0.0000 </r>
       <r>    4.6431    0.0000 </r>
       <r>    5.0060    0.0000 </r>
       <r>    5.4214    0.0000 </r>
       <r>    6.0500    0.0000 </r>
       <r>    6.5251    0.0000 </r>
       <r>    6.8718    0.0000 </r>
      </set>
      <set comment="kpoint 48">
       <r>  -11.2616    1.0000 </r>
       <r>  -10.2990    1.0000 </r>
       <r>   -5.5946    1.0000 </r>
       <r>   -4.4029    1.0000 </r>
       <r>   -3.7664    1.0000 </r>
       <r>   -0.5308    0.0000 </r>
       <r>    0.9543    0.0000 </r>
       <r>    1.2181    0.0000 </r>
       <r>    3.7406    0.0000 </r>
       <r>    4.6580    0.0000 </r>
       <r>    4.9770    0.0000 </r>
       <r>    5.3248    0.0000 </r>
       <r>    5.4848    0.0000 </r>
       <r>    5.9103    0.0000 </r>
       <r>    6.2513    0.0000 </r>
       <r>    6.7287    0.0000 </r>
      </set>
      <set comment="kpoint 49">
       <r>  -11.4677    1.0000 </r>
       <r>  -10.0750    1.0000 </r>
       <r>   -5.5345    1.0000 </r>
       <r>   -4.6031    1.0000 </r>
       <r>   -3.5520    1.0000 </r>
       <r>   -0.5015    0.0000 </r>
       <r>    0.7074    0.0000 </r>
       <r>    1.5544    0.0000 </r>
       <r>    4.2025    0.0000 </r>
       <r>    4.3769    0.0000 </r>
       <r>    4.5518    0.0000 </r>
       <r>    4.7280    0.0000 </r>
       <r>    5.2591    0.0000 </r>
       <r>    6.4300    0.0000 </r>
       <r>    6.5830    0.0000 </r>
       <r>    6.6167    0.0000 </r>
      </set>
      <set comment="kpoint 50">
       <r>  -11.1963    1.0000 </r>
       <r>  -10.3416    1.0000 </r>
       <r>   -5.6841    1.0000 </r>
       <r>   -4.4000    1.0000 </r>
       <r>   -3.7603    1.0000 </r>
       <r>   -0.6532    0.0000 </r>
       <r>    0.9605    0.0000 </r>
       <r>    1.4489    0.0000 </r>
       <r>    4.2980    0.0000 </r>
       <r>    4.4895    0.0000 </r>
       <r>    4.8222    0.0000 </r>
       <r>    5.1322    0.0000 </r>
       <r>    5.6008    0.0000 </r>
       <r>    5.9507    0.0000 </r>
       <r>    6.4429    0.0000 </r>
       <r>    6.5016    0.0000 </r>
      </set>
      <set comment="kpoint 51">
       <r>  -11.0471    1.0000 </r>
       <r>  -10.4893    1.0000 </r>
       <r>   -5.7355    1.0000 </r>
       <r>   -4.2753    1.0000 </r>
       <r>   -3.8854    1.0000 </r>
       <r>   -0.7058    0.0000 </r>
       <r>    1.1299    0.0000 </r>
       <r>    1.3254    0.0000 </r>
       <r>    4.2796    0.0000 </r>
       <r>    4.4582    0.0000 </r>
       <r>    5.2850    0.0000 </r>
       <r>    5.3856    0.0000 </r>
       <r>    5.5335    0.0000 </r>
       <r>    6.0989    0.0000 </r>
       <r>    6.1281    0.0000 </r>
       <r>    6.2194    0.0000 </r>
      </set>
      <set comment="kpoint 52">
       <r>  -10.9237    1.0000 </r>
       <r>  -10.6034    1.0000 </r>
       <r>   -5.7868    1.0000 </r>
       <r>   -4.1974    1.0000 </r>
       <r>   -3.9551    1.0000 </r>
       <r>   -0.7695    0.0000 </r>
       <r>    1.1829    0.0000 </r>
       <r>    1.3708    0.0000 </r>
       <r>    4.3636    0.0000 </r>
       <r>    4.8561    0.0000 </r>
       <r>    4.9675    0.0000 </r>
       <r>    5.5017    0.0000 </r>
       <r>    5.7239    0.0000 </r>
       <r>    5.8548    0.0000 </r>
       <r>    6.0245    0.0000 </r>
       <r>    6.2902    0.0000 </r>
      </set>
     </set>
    </set>
   </array>
  </eigenvalues>
  <separator name="orbital magnetization" >
   <v name="MAGDIPOLOUT">      0.00000000      0.00000000      0.00000000</v>
  </separator>
  <dos>
   <i name="efermi">     -2.24327659 </i>
   <total>
    <array>
     <dimension dim="1">gridpoints</dimension>
     <dimension dim="2">spin</dimension>
     <field>energy</field>
     <field>total</field>
     <field>integrated</field>
     <set>
      <set comment="spin 1">
       <r>   -14.6041     0.0000     0.0000 </r>
       <r>   -14.6002     0.0000     0.0000 </r>
       <r>   -14.5964     0.0000     0.0000 </r>
       <r>   -14.5926     0.0000     0.0000 </r>
       <r>   -14.5888     0.0000     0.0000 </r>
       <r>   -14.5850     0.0000     0.0000 </r>
       <r>   -14.5812     0.0000     0.0000 </r>
       <r>   -14.5774     0.0000     0.0000 </r>
       <r>   -14.5736     0.0000     0.0000 </r>
       <r>   -14.5698     0.0000     0.0000 </r>
       <r>   -14.5660     0.0000     0.0000 </r>
       <r>   -14.5622     0.0000     0.0000 </r>
       <r>   -14.5583     0.0000     0.0000 </r>
       <r>   -14.5545     0.0000     0.0000 </r>
       <r>   -14.5507     0.0000     0.0000 </r>
       <r>   -14.5469     0.0000     0.0000 </r>
       <r>   -14.5431     0.0000     0.0000 </r>
       <r>   -14.5393     0.0000     0.0000 </r>
       <r>   -14.5355     0.0000     0.0000 </r>
       <r>   -14.5317     0.0000     0.0000 </r>
       <r>   -14.5279     0.0000     0.0000 </r>
       <r>   -14.5241     0.0000     0.0000 </r>
       <r>   -14.5202     0.0000     0.0000 </r>
       <r>   -14.5164     0.0000     0.0000 </r>
       <r>   -14.5126     0.0000     0.0000 </r>
       <r>   -14.5088     0.0000     0.0000 </r>
       <r>   -14.5050     0.0000     0.0000 </r>
       <r>   -14.5012     0.0000     0.0000 </r>
       <r>   -14.4974     0.0000     0.0000 </r>
       <r>   -14.4936     0.0000     0.0000 </r>
       <r>   -14.4898     0.0000     0.0000 </r>
       <r>   -14.4860     0.0000     0.0000 </r>
       <r>   -14.4822     0.0000     0.0000 </r>
       <r>   -14.4783     0.0000     0.0000 </r>
       <r>   -14.4745     0.0000     0.0000 </r>
       <r>   -14.4707     0.0000     0.0000 </r>
       <r>   -14.4669     0.0000     0.0000 </r>
       <r>   -14.4631     0.0000     0.0000 </r>
       <r>   -14.4593     0.0000     0.0000 </r>
       <r>   -14.4555     0.0000     0.0000 </r>
       <r>   -14.4517     0.0000     0.0000 </r>
       <r>   -14.4479     0.0000     0.0000 </r>
       <r>   -14.4441     0.0000     0.0000 </r>
       <r>   -14.4403     0.0000     0.0000 </r>
       <r>   -14.4364     0.0000     0.0000 </r>
       <r>   -14.4326     0.0000     0.0000 </r>
       <r>   -14.4288     0.0000     0.0000 </r>
       <r>   -14.4250     0.0000     0.0000 </r>
       <r>   -14.4212     0.0000     0.0000 </r>
       <r>   -14.4174     0.0000     0.0000 </r>
       <r>   -14.4136     0.0000     0.0000 </r>
       <r>   -14.4098     0.0000     0.0000 </r>
       <r>   -14.4060     0.0000     0.0000 </r>
       <r>   -14.4022     0.0000     0.0000 </r>
       <r>   -14.3984     0.0000     0.0000 </r>
       <r>   -14.3945     0.0000     0.0000 </r>
       <r>   -14.3907     0.0000     0.0000 </r>
       <r>   -14.3869     0.0000     0.0000 </r>
       <r>   -14.3831     0.0000     0.0000 </r>
       <r>   -14.3793     0.0000     0.0000 </r>
       <r>   -14.3755     0.0000     0.0000 </r>
       <r>   -14.3717     0.0000     0.0000 </r>
       <r>   -14.3679     0.0000     0.0000 </r>
       <r>   -14.3641     0.0000     0.0000 </r>
       <r>   -14.3603     0.0000     0.0000 </r>
       <r>   -14.3565     0.0000     0.0000 </r>
       <r>   -14.3526     0.0000     0.0000 </r>
       <r>   -14.3488     0.0000     0.0000 </r>
       <r>   -14.3450     0.0000     0.0000 </r>
       <r>   -14.3412     0.0000     0.0000 </r>
       <r>   -14.3374     0.0000     0.0000 </r>
       <r>   -14.3336     0.0000     0.0000 </r>
       <r>   -14.3298     0.0000     0.0000 </r>
       <r>   -14.3260     0.0000     0.0000 </r>
       <r>   -14.3222     0.0000     0.0000 </r>
       <r>   -14.3184     0.0000     0.0000 </r>
       <r>   -14.3146     0.0000     0.0000 </r>
       <r>   -14.3107     0.0000     0.0000 </r>
       <r>   -14.3069     0.0000     0.0000 </r>
       <r>   -14.3031     0.0000     0.0000 </r>
       <r>   -14.2993     0.0000     0.0000 </r>
       <r>   -14.2955     0.0000     0.0000 </r>
       <r>   -14.2917     0.0000     0.0000 </r>
       <r>   -14.2879     0.0000     0.0000 </r>
       <r>   -14.2841     0.0000     0.0000 </r>
       <r>   -14.2803     0.0000     0.0000 </r>
       <r>   -14.2765     0.0000     0.0000 </r>
       <r>   -14.2727     0.0000     0.0000 </r>
       <r>   -14.2688     0.0000     0.0000 </r>
       <r>   -14.2650     0.0000     0.0000 </r>
       <r>   -14.2612     0.0000     0.0000 </r>
       <r>   -14.2574     0.0000     0.0000 </r>
       <r>   -14.2536     0.0000     0.0000 </r>
       <r>   -14.2498     0.0000     0.0000 </r>
       <r>   -14.2460     0.0000     0.0000 </r>
       <r>   -14.2422     0.0000     0.0000 </r>
       <r>   -14.2384     0.0000     0.0000 </r>
       <r>   -14.2346     0.0000     0.0000 </r>
       <r>   -14.2308     0.0000     0.0000 </r>
       <r>   -14.2269     0.0000     0.0000 </r>
       <r>   -14.2231     0.0000     0.0000 </r>
       <r>   -14.2193     0.0000     0.0000 </r>
       <r>   -14.2155     0.0000     0.0000 </r>
       <r>   -14.2117     0.0000     0.0000 </r>
       <r>   -14.2079     0.0000     0.0000 </r>
       <r>   -14.2041     0.0000     0.0000 </r>
       <r>   -14.2003     0.0000     0.0000 </r>
       <r>   -14.1965     0.0000     0.0000 </r>
       <r>   -14.1927     0.0000     0.0000 </r>
       <r>   -14.1889     0.0000     0.0000 </r>
       <r>   -14.1850     0.0000     0.0000 </r>
       <r>   -14.1812     0.0000     0.0000 </r>
       <r>   -14.1774     0.0000     0.0000 </r>
       <r>   -14.1736     0.0000     0.0000 </r>
       <r>   -14.1698     0.0000     0.0000 </r>
       <r>   -14.1660     0.0000     0.0000 </r>
       <r>   -14.1622     0.0000     0.0000 </r>
       <r>   -14.1584     0.0000     0.0000 </r>
       <r>   -14.1546     0.0000     0.0000 </r>
       <r>   -14.1508     0.0000     0.0000 </r>
       <r>   -14.1470     0.0000     0.0000 </r>
       <r>   -14.1431     0.0000     0.0000 </r>
       <r>   -14.1393     0.0000     0.0000 </r>
       <r>   -14.1355     0.0000     0.0000 </r>
       <r>   -14.1317     0.0000     0.0000 </r>
       <r>   -14.1279     0.0000     0.0000 </r>
       <r>   -14.1241     0.0000     0.0000 </r>
       <r>   -14.1203     0.0000     0.0000 </r>
       <r>   -14.1165     0.0000     0.0000 </r>
       <r>   -14.1127     0.0000     0.0000 </r>
       <r>   -14.1089     0.0000     0.0000 </r>
       <r>   -14.1050     0.0000     0.0000 </r>
       <r>   -14.1012     0.0000     0.0000 </r>
       <r>   -14.0974     0.0000     0.0000 </r>
       <r>   -14.0936     0.0000     0.0000 </r>
       <r>   -14.0898     0.0000     0.0000 </r>
       <r>   -14.0860     0.0000     0.0000 </r>
       <r>   -14.0822     0.0000     0.0000 </r>
       <r>   -14.0784     0.0000     0.0000 </r>
       <r>   -14.0746     0.0000     0.0000 </r>
       <r>   -14.0708     0.0000     0.0000 </r>
       <r>   -14.0670     0.0000     0.0000 </r>
       <r>   -14.0631     0.0000     0.0000 </r>
       <r>   -14.0593     0.0000     0.0000 </r>
       <r>   -14.0555     0.0000     0.0000 </r>
       <r>   -14.0517     0.0000     0.0000 </r>
       <r>   -14.0479     0.0000     0.0000 </r>
       <r>   -14.0441     0.0000     0.0000 </r>
       <r>   -14.0403     0.0000     0.0000 </r>
       <r>   -14.0365     0.0000     0.0000 </r>
       <r>   -14.0327     0.0000     0.0000 </r>
       <r>   -14.0289     0.0000     0.0000 </r>
       <r>   -14.0251     0.0000     0.0000 </r>
       <r>   -14.0212     0.0000     0.0000 </r>
       <r>   -14.0174     0.0000     0.0000 </r>
       <r>   -14.0136     0.0000     0.0000 </r>
       <r>   -14.0098     0.0000     0.0000 </r>
       <r>   -14.0060     0.0000     0.0000 </r>
       <r>   -14.0022     0.0000     0.0000 </r>
       <r>   -13.9984     0.0000     0.0000 </r>
       <r>   -13.9946     0.0000     0.0000 </r>
       <r>   -13.9908     0.0000     0.0000 </r>
       <r>   -13.9870     0.0000     0.0000 </r>
       <r>   -13.9832     0.0000     0.0000 </r>
       <r>   -13.9793     0.0000     0.0000 </r>
       <r>   -13.9755     0.0000     0.0000 </r>
       <r>   -13.9717     0.0000     0.0000 </r>
       <r>   -13.9679     0.0000     0.0000 </r>
       <r>   -13.9641     0.0000     0.0000 </r>
       <r>   -13.9603     0.0000     0.0000 </r>
       <r>   -13.9565     0.0000     0.0000 </r>
       <r>   -13.9527     0.0000     0.0000 </r>
       <r>   -13.9489     0.0000     0.0000 </r>
       <r>   -13.9451     0.0000     0.0000 </r>
       <r>   -13.9413     0.0000     0.0000 </r>
       <r>   -13.9374     0.0000     0.0000 </r>
       <r>   -13.9336     0.0000     0.0000 </r>
       <r>   -13.9298     0.0000     0.0000 </r>
       <r>   -13.9260     0.0000     0.0000 </r>
       <r>   -13.9222     0.0000     0.0000 </r>
       <r>   -13.9184     0.0000     0.0000 </r>
       <r>   -13.9146     0.0000     0.0000 </r>
       <r>   -13.9108     0.0000     0.0000 </r>
       <r>   -13.9070     0.0000     0.0000 </r>
       <r>   -13.9032     0.0000     0.0000 </r>
       <r>   -13.8994     0.0000     0.0000 </r>
       <r>   -13.8955     0.0000     0.0000 </r>
       <r>   -13.8917     0.0000     0.0000 </r>
       <r>   -13.8879     0.0000     0.0000 </r>
       <r>   -13.8841     0.0000     0.0000 </r>
       <r>   -13.8803     0.0000     0.0000 </r>
       <r>   -13.8765     0.0000     0.0000 </r>
       <r>   -13.8727     0.0000     0.0000 </r>
       <r>   -13.8689     0.0000     0.0000 </r>
       <r>   -13.8651     0.0000     0.0000 </r>
       <r>   -13.8613     0.0000     0.0000 </r>
       <r>   -13.8575     0.0000     0.0000 </r>
       <r>   -13.8536     0.0000     0.0000 </r>
       <r>   -13.8498     0.0000     0.0000 </r>
       <r>   -13.8460     0.0000     0.0000 </r>
       <r>   -13.8422     0.0000     0.0000 </r>
       <r>   -13.8384     0.0000     0.0000 </r>
       <r>   -13.8346     0.0000     0.0000 </r>
       <r>   -13.8308     0.0000     0.0000 </r>
       <r>   -13.8270     0.0000     0.0000 </r>
       <r>   -13.8232     0.0000     0.0000 </r>
       <r>   -13.8194     0.0000     0.0000 </r>
       <r>   -13.8156     0.0000     0.0000 </r>
       <r>   -13.8117     0.0000     0.0000 </r>
       <r>   -13.8079     0.0000     0.0000 </r>
       <r>   -13.8041     0.0000     0.0000 </r>
       <r>   -13.8003     0.0000     0.0000 </r>
       <r>   -13.7965     0.0000     0.0000 </r>
       <r>   -13.7927     0.0000     0.0000 </r>
       <r>   -13.7889     0.0000     0.0000 </r>
       <r>   -13.7851     0.0000     0.0000 </r>
       <r>   -13.7813     0.0000     0.0000 </r>
       <r>   -13.7775     0.0000     0.0000 </r>
       <r>   -13.7737     0.0000     0.0000 </r>
       <r>   -13.7698     0.0000     0.0000 </r>
       <r>   -13.7660     0.0000     0.0000 </r>
       <r>   -13.7622     0.0000     0.0000 </r>
       <r>   -13.7584     0.0000     0.0000 </r>
       <r>   -13.7546     0.0000     0.0000 </r>
       <r>   -13.7508     0.0000     0.0000 </r>
       <r>   -13.7470     0.0000     0.0000 </r>
       <r>   -13.7432     0.0000     0.0000 </r>
       <r>   -13.7394     0.0000     0.0000 </r>
       <r>   -13.7356     0.0000     0.0000 </r>
       <r>   -13.7318     0.0000     0.0000 </r>
       <r>   -13.7279     0.0000     0.0000 </r>
       <r>   -13.7241     0.0000     0.0000 </r>
       <r>   -13.7203     0.0000     0.0000 </r>
       <r>   -13.7165     0.0000     0.0000 </r>
       <r>   -13.7127     0.0000     0.0000 </r>
       <r>   -13.7089     0.0000     0.0000 </r>
       <r>   -13.7051     0.0000     0.0000 </r>
       <r>   -13.7013     0.0000     0.0000 </r>
       <r>   -13.6975     0.0000     0.0000 </r>
       <r>   -13.6937     0.0000     0.0000 </r>
       <r>   -13.6898     0.0000     0.0000 </r>
       <r>   -13.6860     0.0000     0.0000 </r>
       <r>   -13.6822     0.0000     0.0000 </r>
       <r>   -13.6784     0.0000     0.0000 </r>
       <r>   -13.6746     0.0000     0.0000 </r>
       <r>   -13.6708     0.0000     0.0000 </r>
       <r>   -13.6670     0.0000     0.0000 </r>
       <r>   -13.6632     0.0000     0.0000 </r>
       <r>   -13.6594     0.0000     0.0000 </r>
       <r>   -13.6556     0.0000     0.0000 </r>
       <r>   -13.6518     0.0000     0.0000 </r>
       <r>   -13.6479     0.0000     0.0000 </r>
       <r>   -13.6441     0.0000     0.0000 </r>
       <r>   -13.6403     0.0000     0.0000 </r>
       <r>   -13.6365     0.0000     0.0000 </r>
       <r>   -13.6327     0.0000     0.0000 </r>
       <r>   -13.6289     0.0000     0.0000 </r>
       <r>   -13.6251     0.0000     0.0000 </r>
       <r>   -13.6213     0.0000     0.0000 </r>
       <r>   -13.6175     0.0000     0.0000 </r>
       <r>   -13.6137     0.0000     0.0000 </r>
       <r>   -13.6099     0.0000     0.0000 </r>
       <r>   -13.6060     0.0000     0.0000 </r>
       <r>   -13.6022     0.0000     0.0000 </r>
       <r>   -13.5984     0.0000     0.0000 </r>
       <r>   -13.5946     0.0000     0.0000 </r>
       <r>   -13.5908     0.0001     0.0000 </r>
       <r>   -13.5870     0.0009     0.0000 </r>
       <r>   -13.5832     0.0048     0.0000 </r>
       <r>   -13.5794     0.0183     0.0001 </r>
       <r>   -13.5756     0.0527     0.0003 </r>
       <r>   -13.5718     0.1142     0.0007 </r>
       <r>   -13.5680     0.1874     0.0014 </r>
       <r>   -13.5641     0.2369     0.0023 </r>
       <r>   -13.5603     0.2509     0.0033 </r>
       <r>   -13.5565     0.2887     0.0044 </r>
       <r>   -13.5527     0.4595     0.0062 </r>
       <r>   -13.5489     0.8091     0.0092 </r>
       <r>   -13.5451     1.2042     0.0138 </r>
       <r>   -13.5413     1.3841     0.0191 </r>
       <r>   -13.5375     1.2044     0.0237 </r>
       <r>   -13.5337     0.7902     0.0267 </r>
       <r>   -13.5299     0.3907     0.0282 </r>
       <r>   -13.5261     0.1459     0.0287 </r>
       <r>   -13.5222     0.0440     0.0289 </r>
       <r>   -13.5184     0.0266     0.0290 </r>
       <r>   -13.5146     0.0764     0.0293 </r>
       <r>   -13.5108     0.2357     0.0302 </r>
       <r>   -13.5070     0.5565     0.0323 </r>
       <r>   -13.5032     0.9909     0.0361 </r>
       <r>   -13.4994     1.3323     0.0412 </r>
       <r>   -13.4956     1.3664     0.0464 </r>
       <r>   -13.4918     1.1210     0.0506 </r>
       <r>   -13.4880     0.8815     0.0540 </r>
       <r>   -13.4842     0.9081     0.0575 </r>
       <r>   -13.4803     1.1723     0.0619 </r>
       <r>   -13.4765     1.3853     0.0672 </r>
       <r>   -13.4727     1.2916     0.0721 </r>
       <r>   -13.4689     0.9157     0.0756 </r>
       <r>   -13.4651     0.4899     0.0775 </r>
       <r>   -13.4613     0.1975     0.0782 </r>
       <r>   -13.4575     0.0600     0.0784 </r>
       <r>   -13.4537     0.0137     0.0785 </r>
       <r>   -13.4499     0.0024     0.0785 </r>
       <r>   -13.4461     0.0003     0.0785 </r>
       <r>   -13.4423     0.0001     0.0785 </r>
       <r>   -13.4384     0.0010     0.0785 </r>
       <r>   -13.4346     0.0075     0.0785 </r>
       <r>   -13.4308     0.0406     0.0787 </r>
       <r>   -13.4270     0.1656     0.0793 </r>
       <r>   -13.4232     0.5084     0.0813 </r>
       <r>   -13.4194     1.1752     0.0857 </r>
       <r>   -13.4156     2.0461     0.0935 </r>
       <r>   -13.4118     2.6835     0.1038 </r>
       <r>   -13.4080     2.6513     0.1139 </r>
       <r>   -13.4042     1.9733     0.1214 </r>
       <r>   -13.4004     1.1063     0.1256 </r>
       <r>   -13.3965     0.4674     0.1274 </r>
       <r>   -13.3927     0.1503     0.1279 </r>
       <r>   -13.3889     0.0460     0.1281 </r>
       <r>   -13.3851     0.0542     0.1283 </r>
       <r>   -13.3813     0.1659     0.1290 </r>
       <r>   -13.3775     0.4294     0.1306 </r>
       <r>   -13.3737     0.8409     0.1338 </r>
       <r>   -13.3699     1.2406     0.1385 </r>
       <r>   -13.3661     1.3789     0.1438 </r>
       <r>   -13.3623     1.1546     0.1482 </r>
       <r>   -13.3585     0.7283     0.1509 </r>
       <r>   -13.3546     0.3460     0.1523 </r>
       <r>   -13.3508     0.1238     0.1527 </r>
       <r>   -13.3470     0.0334     0.1529 </r>
       <r>   -13.3432     0.0068     0.1529 </r>
       <r>   -13.3394     0.0010     0.1529 </r>
       <r>   -13.3356     0.0001     0.1529 </r>
       <r>   -13.3318     0.0002     0.1529 </r>
       <r>   -13.3280     0.0016     0.1529 </r>
       <r>   -13.3242     0.0096     0.1529 </r>
       <r>   -13.3204     0.0446     0.1531 </r>
       <r>   -13.3165     0.1563     0.1537 </r>
       <r>   -13.3127     0.4123     0.1553 </r>
       <r>   -13.3089     0.8196     0.1584 </r>
       <r>   -13.3051     1.2311     0.1631 </r>
[...]
       <set comment="band 13">
        <r>  0.0000  0.0736  0.0092  0.0012 </r>
        <r>  0.0000  0.0736  0.0092  0.0012 </r>
       </set>
       <set comment="band 14">
        <r>  0.0000  0.0018  0.0230  0.0013 </r>
        <r>  0.0000  0.0018  0.0230  0.0013 </r>
       </set>
       <set comment="band 15">
        <r>  0.0002  0.0850  0.0339  0.0076 </r>
        <r>  0.0002  0.0850  0.0339  0.0076 </r>
       </set>
       <set comment="band 16">
        <r>  0.0032  0.1017  0.0847  0.0212 </r>
        <r>  0.0032  0.1017  0.0847  0.0212 </r>
       </set>
      </set>
      <set comment="kpoint 45">
       <set comment="band 1">
        <r>  0.3462  0.0286  0.0042  0.0007 </r>
        <r>  0.3462  0.0286  0.0042  0.0007 </r>
       </set>
       <set comment="band 2">
        <r>  0.3932  0.0281  0.0079  0.0010 </r>
        <r>  0.3932  0.0281  0.0079  0.0010 </r>
       </set>
       <set comment="band 3">
        <r>  0.0120  0.2726  0.0148  0.0010 </r>
        <r>  0.0120  0.2726  0.0148  0.0010 </r>
       </set>
       <set comment="band 4">
        <r>  0.0165  0.2655  0.0075  0.0006 </r>
        <r>  0.0165  0.2655  0.0075  0.0006 </r>
       </set>
       <set comment="band 5">
        <r>  0.0376  0.3014  0.0030  0.0012 </r>
        <r>  0.0376  0.3014  0.0030  0.0012 </r>
       </set>
       <set comment="band 6">
        <r>  0.0040  0.2522  0.0272  0.0029 </r>
        <r>  0.0040  0.2522  0.0272  0.0029 </r>
       </set>
       <set comment="band 7">
        <r>  0.0208  0.2199  0.0255  0.0028 </r>
        <r>  0.0208  0.2199  0.0255  0.0028 </r>
       </set>
       <set comment="band 8">
        <r>  0.0397  0.3020  0.0178  0.0067 </r>
        <r>  0.0397  0.3020  0.0178  0.0067 </r>
       </set>
       <set comment="band 9">
        <r>  0.0003  0.0711  0.0788  0.0090 </r>
        <r>  0.0003  0.0711  0.0788  0.0090 </r>
       </set>
       <set comment="band 10">
        <r>  0.0043  0.0234  0.0126  0.0020 </r>
        <r>  0.0043  0.0234  0.0126  0.0020 </r>
       </set>
       <set comment="band 11">
        <r>  0.0005  0.0243  0.0414  0.0036 </r>
        <r>  0.0005  0.0243  0.0414  0.0036 </r>
       </set>
       <set comment="band 12">
        <r>  0.0029  0.0304  0.1187  0.0094 </r>
        <r>  0.0029  0.0304  0.1187  0.0094 </r>
       </set>
       <set comment="band 13">
        <r>  0.0003  0.0397  0.0398  0.0026 </r>
        <r>  0.0003  0.0397  0.0398  0.0026 </r>
       </set>
       <set comment="band 14">
        <r>  0.0023  0.0079  0.0357  0.0047 </r>
        <r>  0.0023  0.0079  0.0357  0.0047 </r>
       </set>
       <set comment="band 15">
        <r>  0.0079  0.0132  0.0196  0.0026 </r>
        <r>  0.0079  0.0132  0.0196  0.0026 </r>
       </set>
       <set comment="band 16">
        <r>  0.0011  0.0743  0.0191  0.0078 </r>
        <r>  0.0012  0.0737  0.0184  0.0080 </r>
       </set>
      </set>
      <set comment="kpoint 46">
       <set comment="band 1">
        <r>  0.3505  0.0298  0.0049  0.0007 </r>
        <r>  0.3505  0.0298  0.0049  0.0007 </r>
       </set>
       <set comment="band 2">
        <r>  0.3850  0.0311  0.0079  0.0009 </r>
        <r>  0.3850  0.0311  0.0079  0.0009 </r>
       </set>
       <set comment="band 3">
        <r>  0.0121  0.2661  0.0133  0.0007 </r>
        <r>  0.0121  0.2661  0.0133  0.0007 </r>
       </set>
       <set comment="band 4">
        <r>  0.0236  0.2658  0.0069  0.0006 </r>
        <r>  0.0236  0.2658  0.0069  0.0006 </r>
       </set>
       <set comment="band 5">
        <r>  0.0406  0.2945  0.0033  0.0011 </r>
        <r>  0.0406  0.2945  0.0033  0.0011 </r>
       </set>
       <set comment="band 6">
        <r>  0.0025  0.2387  0.0280  0.0027 </r>
        <r>  0.0025  0.2387  0.0280  0.0027 </r>
       </set>
       <set comment="band 7">
        <r>  0.0188  0.2234  0.0267  0.0027 </r>
        <r>  0.0188  0.2234  0.0267  0.0027 </r>
       </set>
       <set comment="band 8">
        <r>  0.0346  0.2991  0.0189  0.0060 </r>
        <r>  0.0346  0.2991  0.0189  0.0060 </r>
       </set>
       <set comment="band 9">
        <r>  0.0009  0.0715  0.0885  0.0094 </r>
        <r>  0.0009  0.0715  0.0885  0.0094 </r>
       </set>
       <set comment="band 10">
        <r>  0.0067  0.0224  0.0126  0.0022 </r>
        <r>  0.0067  0.0224  0.0126  0.0022 </r>
       </set>
       <set comment="band 11">
        <r>  0.0004  0.0316  0.0387  0.0023 </r>
        <r>  0.0004  0.0316  0.0387  0.0023 </r>
       </set>
       <set comment="band 12">
        <r>  0.0028  0.0467  0.1114  0.0114 </r>
        <r>  0.0028  0.0467  0.1114  0.0114 </r>
       </set>
       <set comment="band 13">
        <r>  0.0001  0.0182  0.0436  0.0036 </r>
        <r>  0.0001  0.0182  0.0436  0.0036 </r>
       </set>
       <set comment="band 14">
        <r>  0.0044  0.0239  0.0210  0.0034 </r>
        <r>  0.0044  0.0239  0.0210  0.0034 </r>
       </set>
       <set comment="band 15">
        <r>  0.0066  0.0079  0.0240  0.0034 </r>
        <r>  0.0066  0.0079  0.0240  0.0034 </r>
       </set>
       <set comment="band 16">
        <r>  0.0029  0.0407  0.0118  0.0058 </r>
        <r>  0.0029  0.0407  0.0118  0.0058 </r>
       </set>
      </set>
      <set comment="kpoint 47">
       <set comment="band 1">
        <r>  0.3560  0.0304  0.0057  0.0007 </r>
        <r>  0.3560  0.0304  0.0057  0.0007 </r>
       </set>
       <set comment="band 2">
        <r>  0.3761  0.0338  0.0077  0.0009 </r>
        <r>  0.3761  0.0338  0.0077  0.0009 </r>
       </set>
       <set comment="band 3">
        <r>  0.0126  0.2618  0.0123  0.0006 </r>
        <r>  0.0126  0.2618  0.0123  0.0006 </r>
       </set>
       <set comment="band 4">
        <r>  0.0294  0.2686  0.0065  0.0006 </r>
        <r>  0.0294  0.2686  0.0065  0.0006 </r>
       </set>
       <set comment="band 5">
        <r>  0.0421  0.2860  0.0035  0.0010 </r>
        <r>  0.0421  0.2860  0.0035  0.0010 </r>
       </set>
       <set comment="band 6">
        <r>  0.0012  0.2312  0.0283  0.0026 </r>
        <r>  0.0012  0.2312  0.0283  0.0026 </r>
       </set>
       <set comment="band 7">
        <r>  0.0184  0.2319  0.0270  0.0028 </r>
        <r>  0.0184  0.2319  0.0270  0.0028 </r>
       </set>
       <set comment="band 8">
        <r>  0.0294  0.2853  0.0220  0.0051 </r>
        <r>  0.0294  0.2853  0.0220  0.0051 </r>
       </set>
       <set comment="band 9">
        <r>  0.0029  0.0507  0.0965  0.0089 </r>
        <r>  0.0029  0.0507  0.0965  0.0089 </r>
       </set>
       <set comment="band 10">
        <r>  0.0073  0.0229  0.0242  0.0029 </r>
        <r>  0.0073  0.0229  0.0242  0.0029 </r>
       </set>
       <set comment="band 11">
        <r>  0.0002  0.0408  0.0410  0.0017 </r>
        <r>  0.0002  0.0408  0.0410  0.0017 </r>
       </set>
       <set comment="band 12">
        <r>  0.0012  0.0660  0.0696  0.0074 </r>
        <r>  0.0012  0.0660  0.0696  0.0074 </r>
       </set>
       <set comment="band 13">
        <r>  0.0015  0.0314  0.0496  0.0088 </r>
        <r>  0.0015  0.0314  0.0496  0.0088 </r>
       </set>
       <set comment="band 14">
        <r>  0.0057  0.0226  0.0134  0.0044 </r>
        <r>  0.0057  0.0226  0.0134  0.0044 </r>
       </set>
       <set comment="band 15">
        <r>  0.0021  0.0397  0.0237  0.0042 </r>
        <r>  0.0021  0.0397  0.0237  0.0042 </r>
       </set>
       <set comment="band 16">
        <r>  0.0001  0.0234  0.0183  0.0027 </r>
        <r>  0.0001  0.0234  0.0183  0.0027 </r>
       </set>
      </set>
      <set comment="kpoint 48">
       <set comment="band 1">
        <r>  0.3617  0.0300  0.0064  0.0008 </r>
        <r>  0.3617  0.0300  0.0064  0.0008 </r>
       </set>
       <set comment="band 2">
        <r>  0.3684  0.0358  0.0074  0.0008 </r>
        <r>  0.3684  0.0358  0.0074  0.0008 </r>
       </set>
       <set comment="band 3">
        <r>  0.0130  0.2597  0.0118  0.0005 </r>
        <r>  0.0130  0.2597  0.0118  0.0005 </r>
       </set>
       <set comment="band 4">
        <r>  0.0329  0.2733  0.0064  0.0006 </r>
        <r>  0.0329  0.2733  0.0064  0.0006 </r>
       </set>
       <set comment="band 5">
        <r>  0.0423  0.2780  0.0036  0.0009 </r>
        <r>  0.0423  0.2780  0.0036  0.0009 </r>
       </set>
       <set comment="band 6">
        <r>  0.0005  0.2279  0.0285  0.0025 </r>
        <r>  0.0005  0.2279  0.0285  0.0025 </r>
       </set>
       <set comment="band 7">
        <r>  0.0184  0.2419  0.0268  0.0030 </r>
        <r>  0.0184  0.2419  0.0268  0.0030 </r>
       </set>
       <set comment="band 8">
        <r>  0.0265  0.2716  0.0243  0.0045 </r>
        <r>  0.0265  0.2716  0.0243  0.0045 </r>
       </set>
       <set comment="band 9">
        <r>  0.0041  0.0404  0.0991  0.0089 </r>
        <r>  0.0041  0.0404  0.0991  0.0089 </r>
       </set>
       <set comment="band 10">
        <r>  0.0008  0.0362  0.0676  0.0015 </r>
        <r>  0.0008  0.0362  0.0676  0.0015 </r>
       </set>
       <set comment="band 11">
        <r>  0.0063  0.0238  0.0127  0.0032 </r>
        <r>  0.0063  0.0238  0.0127  0.0032 </r>
       </set>
       <set comment="band 12">
        <r>  0.0001  0.0775  0.0243  0.0030 </r>
        <r>  0.0001  0.0775  0.0243  0.0030 </r>
       </set>
       <set comment="band 13">
        <r>  0.0065  0.0267  0.0129  0.0039 </r>
        <r>  0.0065  0.0267  0.0129  0.0039 </r>
       </set>
       <set comment="band 14">
        <r>  0.0005  0.0451  0.0355  0.0071 </r>
        <r>  0.0005  0.0451  0.0355  0.0071 </r>
       </set>
       <set comment="band 15">
        <r>  0.0013  0.0230  0.0324  0.0056 </r>
        <r>  0.0013  0.0230  0.0324  0.0056 </r>
       </set>
       <set comment="band 16">
        <r>  0.0014  0.1027  0.0794  0.0174 </r>
        <r>  0.0014  0.1027  0.0794  0.0174 </r>
       </set>
      </set>
      <set comment="kpoint 49">
       <set comment="band 1">
        <r>  0.3552  0.0308  0.0057  0.0007 </r>
        <r>  0.3552  0.0308  0.0057  0.0007 </r>
       </set>
       <set comment="band 2">
        <r>  0.3792  0.0324  0.0079  0.0009 </r>
        <r>  0.3792  0.0324  0.0079  0.0009 </r>
       </set>
       <set comment="band 3">
        <r>  0.0067  0.2645  0.0132  0.0005 </r>
        <r>  0.0067  0.2645  0.0132  0.0005 </r>
       </set>
       <set comment="band 4">
        <r>  0.0326  0.2649  0.0056  0.0005 </r>
        <r>  0.0326  0.2649  0.0056  0.0005 </r>
       </set>
       <set comment="band 5">
        <r>  0.0428  0.2884  0.0035  0.0009 </r>
        <r>  0.0428  0.2884  0.0035  0.0009 </r>
       </set>
       <set comment="band 6">
        <r>  0.0013  0.2287  0.0280  0.0027 </r>
        <r>  0.0013  0.2287  0.0280  0.0027 </r>
       </set>
       <set comment="band 7">
        <r>  0.0177  0.2268  0.0271  0.0025 </r>
        <r>  0.0177  0.2268  0.0271  0.0025 </r>
       </set>
       <set comment="band 8">
        <r>  0.0302  0.2970  0.0180  0.0051 </r>
        <r>  0.0302  0.2970  0.0180  0.0051 </r>
       </set>
       <set comment="band 9">
        <r>  0.0017  0.0880  0.0863  0.0117 </r>
        <r>  0.0017  0.0880  0.0863  0.0117 </r>
       </set>
       <set comment="band 10">
        <r>  0.0116  0.0354  0.0307  0.0044 </r>
        <r>  0.0116  0.0354  0.0307  0.0044 </r>
       </set>
       <set comment="band 11">
        <r>  0.0001  0.0348  0.0645  0.0017 </r>
        <r>  0.0001  0.0348  0.0645  0.0017 </r>
       </set>
       <set comment="band 12">
        <r>  0.0004  0.0353  0.0883  0.0106 </r>
        <r>  0.0004  0.0353  0.0883  0.0106 </r>
       </set>
       <set comment="band 13">
        <r>  0.0006  0.0022  0.0263  0.0032 </r>
        <r>  0.0006  0.0022  0.0263  0.0032 </r>
       </set>
       <set comment="band 14">
        <r>  0.0080  0.0156  0.0165  0.0042 </r>
        <r>  0.0080  0.0156  0.0165  0.0042 </r>
       </set>
       <set comment="band 15">
        <r>  0.0001  0.0647  0.0231  0.0041 </r>
        <r>  0.0001  0.0647  0.0231  0.0041 </r>
       </set>
       <set comment="band 16">
        <r>  0.0002  0.0417  0.0092  0.0061 </r>
        <r>  0.0002  0.0417  0.0092  0.0061 </r>
       </set>
      </set>
      <set comment="kpoint 50">
       <set comment="band 1">
        <r>  0.3606  0.0312  0.0064  0.0008 </r>
        <r>  0.3606  0.0312  0.0064  0.0008 </r>
       </set>
       <set comment="band 2">
        <r>  0.3731  0.0334  0.0076  0.0009 </r>
        <r>  0.3731  0.0334  0.0076  0.0009 </r>
       </set>
       <set comment="band 3">
        <r>  0.0044  0.2626  0.0127  0.0004 </r>
        <r>  0.0044  0.2626  0.0127  0.0004 </r>
       </set>
       <set comment="band 4">
        <r>  0.0378  0.2683  0.0051  0.0005 </r>
        <r>  0.0378  0.2683  0.0051  0.0005 </r>
       </set>
       <set comment="band 5">
        <r>  0.0437  0.2814  0.0038  0.0008 </r>
        <r>  0.0437  0.2814  0.0038  0.0008 </r>
       </set>
       <set comment="band 6">
        <r>  0.0005  0.2222  0.0279  0.0027 </r>
        <r>  0.0005  0.2222  0.0279  0.0027 </r>
       </set>
       <set comment="band 7">
        <r>  0.0177  0.2367  0.0267  0.0027 </r>
        <r>  0.0177  0.2367  0.0267  0.0027 </r>
       </set>
       <set comment="band 8">
        <r>  0.0258  0.2817  0.0206  0.0043 </r>
        <r>  0.0258  0.2817  0.0206  0.0043 </r>
       </set>
       <set comment="band 9">
        <r>  0.0066  0.0662  0.0829  0.0112 </r>
        <r>  0.0066  0.0662  0.0829  0.0112 </r>
       </set>
       <set comment="band 10">
        <r>  0.0000  0.0279  0.0754  0.0011 </r>
        <r>  0.0000  0.0279  0.0754  0.0011 </r>
       </set>
       <set comment="band 11">
        <r>  0.0089  0.0622  0.0382  0.0066 </r>
        <r>  0.0089  0.0622  0.0382  0.0066 </r>
       </set>
       <set comment="band 12">
        <r>  0.0002  0.0556  0.0604  0.0091 </r>
        <r>  0.0002  0.0556  0.0604  0.0091 </r>
       </set>
       <set comment="band 13">
        <r>  0.0017  0.0120  0.0238  0.0045 </r>
        <r>  0.0017  0.0120  0.0238  0.0045 </r>
       </set>
       <set comment="band 14">
        <r>  0.0054  0.0277  0.0205  0.0056 </r>
        <r>  0.0054  0.0277  0.0205  0.0056 </r>
       </set>
       <set comment="band 15">
        <r>  0.0012  0.0644  0.0334  0.0087 </r>
        <r>  0.0012  0.0644  0.0334  0.0087 </r>
       </set>
       <set comment="band 16">
        <r>  0.0014  0.0312  0.0189  0.0027 </r>
        <r>  0.0014  0.0312  0.0189  0.0027 </r>
       </set>
      </set>
      <set comment="kpoint 51">
       <set comment="band 1">
        <r>  0.3643  0.0310  0.0068  0.0008 </r>
        <r>  0.3643  0.0310  0.0068  0.0008 </r>
       </set>
       <set comment="band 2">
        <r>  0.3690  0.0341  0.0074  0.0008 </r>
        <r>  0.3690  0.0341  0.0074  0.0008 </r>
       </set>
       <set comment="band 3">
        <r>  0.0038  0.2619  0.0125  0.0003 </r>
        <r>  0.0038  0.2619  0.0125  0.0003 </r>
       </set>
       <set comment="band 4">
        <r>  0.0398  0.2718  0.0050  0.0005 </r>
        <r>  0.0398  0.2718  0.0050  0.0005 </r>
       </set>
       <set comment="band 5">
        <r>  0.0437  0.2767  0.0038  0.0008 </r>
        <r>  0.0437  0.2767  0.0038  0.0008 </r>
       </set>
       <set comment="band 6">
        <r>  0.0003  0.2200  0.0279  0.0028 </r>
        <r>  0.0003  0.2200  0.0279  0.0028 </r>
       </set>
       <set comment="band 7">
        <r>  0.0174  0.2437  0.0261  0.0028 </r>
        <r>  0.0174  0.2437  0.0261  0.0028 </r>
       </set>
       <set comment="band 8">
        <r>  0.0246  0.2720  0.0222  0.0040 </r>
        <r>  0.0246  0.2720  0.0222  0.0040 </r>
       </set>
       <set comment="band 9">
        <r>  0.0074  0.0613  0.0828  0.0113 </r>
        <r>  0.0074  0.0613  0.0828  0.0113 </r>
       </set>
       <set comment="band 10">
        <r>  0.0001  0.0270  0.0798  0.0011 </r>
        <r>  0.0001  0.0270  0.0798  0.0011 </r>
       </set>
       <set comment="band 11">
        <r>  0.0078  0.1024  0.0282  0.0065 </r>
        <r>  0.0078  0.1024  0.0282  0.0065 </r>
       </set>
       <set comment="band 12">
        <r>  0.0060  0.0138  0.0283  0.0044 </r>
        <r>  0.0060  0.0138  0.0283  0.0044 </r>
       </set>
       <set comment="band 13">
        <r>  0.0012  0.0458  0.0166  0.0043 </r>
        <r>  0.0012  0.0458  0.0166  0.0043 </r>
       </set>
       <set comment="band 14">
        <r>  0.0004  0.0680  0.0722  0.0149 </r>
        <r>  0.0004  0.0680  0.0722  0.0149 </r>
       </set>
       <set comment="band 15">
        <r>  0.0027  0.0325  0.0220  0.0064 </r>
        <r>  0.0027  0.0325  0.0220  0.0064 </r>
       </set>
       <set comment="band 16">
        <r>  0.0006  0.0304  0.0546  0.0073 </r>
        <r>  0.0006  0.0304  0.0546  0.0073 </r>
       </set>
      </set>
      <set comment="kpoint 52">
       <set comment="band 1">
        <r>  0.3651  0.0319  0.0069  0.0008 </r>
        <r>  0.3651  0.0319  0.0069  0.0008 </r>
       </set>
       <set comment="band 2">
        <r>  0.3696  0.0329  0.0074  0.0008 </r>
        <r>  0.3696  0.0329  0.0074  0.0008 </r>
       </set>
       <set comment="band 3">
        <r>  0.0007  0.2626  0.0126  0.0002 </r>
        <r>  0.0007  0.2626  0.0126  0.0002 </r>
       </set>
       <set comment="band 4">
        <r>  0.0421  0.2716  0.0045  0.0005 </r>
        <r>  0.0421  0.2716  0.0045  0.0005 </r>
       </set>
       <set comment="band 5">
        <r>  0.0441  0.2767  0.0040  0.0006 </r>
        <r>  0.0441  0.2767  0.0040  0.0006 </r>
       </set>
       <set comment="band 6">
        <r>  0.0001  0.2170  0.0277  0.0028 </r>
        <r>  0.0001  0.2170  0.0277  0.0028 </r>
       </set>
       <set comment="band 7">
        <r>  0.0187  0.2487  0.0253  0.0030 </r>
        <r>  0.0187  0.2487  0.0253  0.0030 </r>
       </set>
       <set comment="band 8">
        <r>  0.0220  0.2672  0.0225  0.0036 </r>
        <r>  0.0220  0.2672  0.0225  0.0036 </r>
       </set>
       <set comment="band 9">
        <r>  0.0000  0.0145  0.0654  0.0006 </r>
        <r>  0.0000  0.0145  0.0654  0.0006 </r>
       </set>
       <set comment="band 10">
        <r>  0.0128  0.0898  0.0623  0.0103 </r>
        <r>  0.0128  0.0898  0.0623  0.0103 </r>
       </set>
       <set comment="band 11">
        <r>  0.0064  0.1062  0.0802  0.0124 </r>
        <r>  0.0064  0.1062  0.0802  0.0124 </r>
       </set>
       <set comment="band 12">
        <r>  0.0013  0.0265  0.0343  0.0064 </r>
        <r>  0.0013  0.0265  0.0343  0.0064 </r>
       </set>
       <set comment="band 13">
        <r>  0.0051  0.0695  0.0763  0.0133 </r>
        <r>  0.0051  0.0695  0.0763  0.0133 </r>
       </set>
       <set comment="band 14">
        <r>  0.0023  0.0288  0.0243  0.0044 </r>
        <r>  0.0023  0.0288  0.0243  0.0044 </r>
       </set>
       <set comment="band 15">
        <r>  0.0007  0.0361  0.0064  0.0053 </r>
        <r>  0.0007  0.0361  0.0064  0.0053 </r>
       </set>
       <set comment="band 16">
        <r>  0.0000  0.0249  0.0506  0.0085 </r>
        <r>  0.0000  0.0249  0.0506  0.0085 </r>
       </set>
      </set>
     </set>
    </set>
   </array>
  </projected>
 </calculation>
 <structure name="finalpos" >
  <crystal>
   <varray name="basis" >
    <v>       4.11336655       0.00000000       0.00000000 </v>
    <v>      -2.05668327       3.56227993       0.00000000 </v>
    <v>       0.00000000       0.00000000      16.00000000 </v>
   </varray>
   <i name="volume">    234.44740948 </i>
   <varray name="rec_basis" >
    <v>       0.24310987       0.14035955       0.00000000 </v>
    <v>       0.00000000       0.28071910       0.00000000 </v>
    <v>       0.00000000       0.00000000       0.06250000 </v>
   </varray>
  </crystal>
  <varray name="positions" >
   <v>       0.66666667       0.33333333       0.44862540 </v>
   <v>       0.33333333       0.66666667       0.55137460 </v>
  </varray>
 </structure>
</modeling>
