   2   2   1   0
  0.9013366E+02  0.3606893E-09  0.3606893E-09  0.1600000E-08  0.5000000E-15
  1.000000000000000E-004
  CAR 
 unknown system                          
     10.01656644    -17.73287857 6001     -2.84529680      1.00000000
    -17.733  0.0000E+00  0.0000E+00
    -17.728  0.0000E+00  0.0000E+00
    -17.724  0.0000E+00  0.0000E+00
    -17.719  0.0000E+00  0.0000E+00
    -17.714  0.0000E+00  0.0000E+00
    -17.710  0.0000E+00  0.0000E+00
    -17.705  0.0000E+00  0.0000E+00
    -17.701  0.0000E+00  0.0000E+00
    -17.696  0.0000E+00  0.0000E+00
    -17.691  0.0000E+00  0.0000E+00
    -17.687  0.0000E+00  0.0000E+00
    -17.682  0.0000E+00  0.0000E+00
    -17.677  0.0000E+00  0.0000E+00
    -17.673  0.0000E+00  0.0000E+00
    -17.668  0.0000E+00  0.0000E+00
    -17.664  0.0000E+00  0.0000E+00
    -17.659  0.0000E+00  0.0000E+00
    -17.654  0.0000E+00  0.0000E+00
    -17.650  0.0000E+00  0.0000E+00
    -17.645  0.0000E+00  0.0000E+00
    -17.640  0.0000E+00  0.0000E+00
    -17.636  0.0000E+00  0.0000E+00
    -17.631  0.0000E+00  0.0000E+00
    -17.627  0.0000E+00  0.0000E+00
    -17.622  0.0000E+00  0.0000E+00
    -17.617  0.0000E+00  0.0000E+00
    -17.613  0.0000E+00  0.0000E+00
    -17.608  0.0000E+00  0.0000E+00
    -17.603  0.0000E+00  0.0000E+00
    -17.599  0.0000E+00  0.0000E+00
    -17.594  0.0000E+00  0.0000E+00
    -17.590  0.0000E+00  0.0000E+00
    -17.585  0.0000E+00  0.0000E+00
    -17.580  0.0000E+00  0.0000E+00
    -17.576  0.0000E+00  0.0000E+00
    -17.571  0.0000E+00  0.0000E+00
    -17.566  0.0000E+00  0.0000E+00
    -17.562  0.0000E+00  0.0000E+00
    -17.557  0.0000E+00  0.0000E+00
    -17.553  0.0000E+00  0.0000E+00
    -17.548  0.0000E+00  0.0000E+00
    -17.543  0.0000E+00  0.0000E+00
    -17.539  0.0000E+00  0.0000E+00
    -17.534  0.0000E+00  0.0000E+00
    -17.529  0.0000E+00  0.0000E+00
    -17.525  0.0000E+00  0.0000E+00
    -17.520  0.0000E+00  0.0000E+00
    -17.516  0.0000E+00  0.0000E+00
    -17.511  0.0000E+00  0.0000E+00
    -17.506  0.0000E+00  0.0000E+00
    -17.502  0.0000E+00  0.0000E+00
    -17.497  0.0000E+00  0.0000E+00
    -17.492  0.0000E+00  0.0000E+00
    -17.488  0.0000E+00  0.0000E+00
    -17.483  0.0000E+00  0.0000E+00
    -17.479  0.0000E+00  0.0000E+00
    -17.474  0.0000E+00  0.0000E+00
    -17.469  0.0000E+00  0.0000E+00
    -17.465  0.0000E+00  0.0000E+00
    -17.460  0.0000E+00  0.0000E+00
    -17.455  0.0000E+00  0.0000E+00
    -17.451  0.0000E+00  0.0000E+00
    -17.446  0.0000E+00  0.0000E+00
    -17.442  0.0000E+00  0.0000E+00
    -17.437  0.0000E+00  0.0000E+00
    -17.432  0.0000E+00  0.0000E+00
    -17.428  0.0000E+00  0.0000E+00
    -17.423  0.0000E+00  0.0000E+00
    -17.418  0.0000E+00  0.0000E+00
    -17.414  0.0000E+00  0.0000E+00
    -17.409  0.0000E+00  0.0000E+00
    -17.405  0.0000E+00  0.0000E+00
    -17.400  0.0000E+00  0.0000E+00
    -17.395  0.0000E+00  0.0000E+00
    -17.391  0.0000E+00  0.0000E+00
    -17.386  0.0000E+00  0.0000E+00
    -17.381  0.0000E+00  0.0000E+00
    -17.377  0.0000E+00  0.0000E+00
    -17.372  0.0000E+00  0.0000E+00
    -17.368  0.0000E+00  0.0000E+00
    -17.363  0.0000E+00  0.0000E+00
    -17.358  0.0000E+00  0.0000E+00
    -17.354  0.0000E+00  0.0000E+00
    -17.349  0.0000E+00  0.0000E+00
    -17.344  0.0000E+00  0.0000E+00
    -17.340  0.0000E+00  0.0000E+00
    -17.335  0.0000E+00  0.0000E+00
    -17.331  0.0000E+00  0.0000E+00
    -17.326  0.0000E+00  0.0000E+00
    -17.321  0.0000E+00  0.0000E+00
    -17.317  0.0000E+00  0.0000E+00
    -17.312  0.0000E+00  0.0000E+00
    -17.307  0.0000E+00  0.0000E+00
    -17.303  0.0000E+00  0.0000E+00
    -17.298  0.0000E+00  0.0000E+00
    -17.294  0.0000E+00  0.0000E+00
    -17.289  0.0000E+00  0.0000E+00
    -17.284  0.0000E+00  0.0000E+00
    -17.280  0.0000E+00  0.0000E+00
    -17.275  0.0000E+00  0.0000E+00
    -17.270  0.0000E+00  0.0000E+00
    -17.266  0.0000E+00  0.0000E+00
    -17.261  0.0000E+00  0.0000E+00
    -17.257  0.0000E+00  0.0000E+00
    -17.252  0.0000E+00  0.0000E+00
    -17.247  0.0000E+00  0.0000E+00
    -17.243  0.0000E+00  0.0000E+00
    -17.238  0.0000E+00  0.0000E+00
    -17.233  0.0000E+00  0.0000E+00
    -17.229  0.0000E+00  0.0000E+00
    -17.224  0.0000E+00  0.0000E+00
    -17.220  0.0000E+00  0.0000E+00
    -17.215  0.0000E+00  0.0000E+00
    -17.210  0.0000E+00  0.0000E+00
    -17.206  0.0000E+00  0.0000E+00
    -17.201  0.0000E+00  0.0000E+00
    -17.196  0.0000E+00  0.0000E+00
    -17.192  0.0000E+00  0.0000E+00
    -17.187  0.0000E+00  0.0000E+00
    -17.183  0.0000E+00  0.0000E+00
    -17.178  0.0000E+00  0.0000E+00
    -17.173  0.0000E+00  0.0000E+00
    -17.169  0.0000E+00  0.0000E+00
    -17.164  0.0000E+00  0.0000E+00
    -17.159  0.0000E+00  0.0000E+00
    -17.155  0.0000E+00  0.0000E+00
    -17.150  0.0000E+00  0.0000E+00
    -17.146  0.0000E+00  0.0000E+00
    -17.141  0.0000E+00  0.0000E+00
    -17.136  0.0000E+00  0.0000E+00
    -17.132  0.0000E+00  0.0000E+00
    -17.127  0.0000E+00  0.0000E+00
    -17.122  0.0000E+00  0.0000E+00
    -17.118  0.0000E+00  0.0000E+00
    -17.113  0.0000E+00  0.0000E+00
    -17.109  0.0000E+00  0.0000E+00
    -17.104  0.0000E+00  0.0000E+00
    -17.099  0.0000E+00  0.0000E+00
    -17.095  0.0000E+00  0.0000E+00
    -17.090  0.0000E+00  0.0000E+00
    -17.085  0.0000E+00  0.0000E+00
    -17.081  0.0000E+00  0.0000E+00
    -17.076  0.0000E+00  0.0000E+00
    -17.072  0.0000E+00  0.0000E+00
    -17.067  0.0000E+00  0.0000E+00
    -17.062  0.0000E+00  0.0000E+00
    -17.058  0.0000E+00  0.0000E+00
    -17.053  0.0000E+00  0.0000E+00
    -17.048  0.0000E+00  0.0000E+00
    -17.044  0.0000E+00  0.0000E+00
    -17.039  0.0000E+00  0.0000E+00
    -17.035  0.0000E+00  0.0000E+00
    -17.030  0.0000E+00  0.0000E+00
    -17.025  0.0000E+00  0.0000E+00
    -17.021  0.0000E+00  0.0000E+00
    -17.016  0.0000E+00  0.0000E+00
    -17.011  0.0000E+00  0.0000E+00
    -17.007  0.0000E+00  0.0000E+00
    -17.002  0.0000E+00  0.0000E+00
    -16.998  0.0000E+00  0.0000E+00
    -16.993  0.0000E+00  0.0000E+00
    -16.988  0.0000E+00  0.0000E+00
    -16.984  0.0000E+00  0.0000E+00
    -16.979  0.0000E+00  0.0000E+00
    -16.974  0.0000E+00  0.0000E+00
    -16.970  0.0000E+00  0.0000E+00
    -16.965  0.0000E+00  0.0000E+00
    -16.961  0.0000E+00  0.0000E+00
    -16.956  0.0000E+00  0.0000E+00
    -16.951  0.0000E+00  0.0000E+00
    -16.947  0.0000E+00  0.0000E+00
    -16.942  0.0000E+00  0.0000E+00
    -16.937  0.0000E+00  0.0000E+00
    -16.933  0.0000E+00  0.0000E+00
    -16.928  0.0000E+00  0.0000E+00
    -16.924  0.0000E+00  0.0000E+00
    -16.919  0.0000E+00  0.0000E+00
    -16.914  0.0000E+00  0.0000E+00
    -16.910  0.0000E+00  0.0000E+00
    -16.905  0.0000E+00  0.0000E+00
    -16.900  0.0000E+00  0.0000E+00
    -16.896  0.0000E+00  0.0000E+00
    -16.891  0.0000E+00  0.0000E+00
    -16.887  0.0000E+00  0.0000E+00
    -16.882  0.0000E+00  0.0000E+00
    -16.877  0.0000E+00  0.0000E+00
    -16.873  0.0000E+00  0.0000E+00
    -16.868  0.0000E+00  0.0000E+00
    -16.863  0.0000E+00  0.0000E+00
    -16.859  0.0000E+00  0.0000E+00
    -16.854  0.0000E+00  0.0000E+00
    -16.850  0.0000E+00  0.0000E+00
    -16.845  0.0000E+00  0.0000E+00
    -16.840  0.0000E+00  0.0000E+00
    -16.836  0.0000E+00  0.0000E+00
    -16.831  0.0000E+00  0.0000E+00
    -16.826  0.0000E+00  0.0000E+00
    -16.822  0.0000E+00  0.0000E+00
    -16.817  0.0000E+00  0.0000E+00
    -16.813  0.0000E+00  0.0000E+00
    -16.808  0.0000E+00  0.0000E+00
    -16.803  0.0000E+00  0.0000E+00
    -16.799  0.0000E+00  0.0000E+00
    -16.794  0.0000E+00  0.0000E+00
    -16.789  0.0000E+00  0.0000E+00
    -16.785  0.0000E+00  0.0000E+00
    -16.780  0.0000E+00  0.0000E+00
    -16.776  0.0000E+00  0.0000E+00
    -16.771  0.0000E+00  0.0000E+00
    -16.766  0.0000E+00  0.0000E+00
    -16.762  0.0000E+00  0.0000E+00
    -16.757  0.0000E+00  0.0000E+00
    -16.752  0.0000E+00  0.0000E+00
    -16.748  0.0000E+00  0.0000E+00
    -16.743  0.0000E+00  0.0000E+00
    -16.739  0.0000E+00  0.0000E+00
    -16.734  0.0000E+00  0.0000E+00
    -16.729  0.0000E+00  0.0000E+00
    -16.725  0.0000E+00  0.0000E+00
    -16.720  0.0000E+00  0.0000E+00
    -16.715  0.0000E+00  0.0000E+00
    -16.711  0.0000E+00  0.0000E+00
    -16.706  0.0000E+00  0.0000E+00
    -16.702  0.0000E+00  0.0000E+00
    -16.697  0.0000E+00  0.0000E+00
    -16.692  0.0000E+00  0.0000E+00
    -16.688  0.0000E+00  0.0000E+00
    -16.683  0.0000E+00  0.0000E+00
    -16.678  0.0000E+00  0.0000E+00
    -16.674  0.0000E+00  0.0000E+00
    -16.669  0.0000E+00  0.0000E+00
    -16.665  0.0000E+00  0.0000E+00
    -16.660  0.0000E+00  0.0000E+00
    -16.655  0.0000E+00  0.0000E+00
    -16.651  0.0000E+00  0.0000E+00
    -16.646  0.0000E+00  0.0000E+00
    -16.641  0.0000E+00  0.0000E+00
    -16.637  0.0000E+00  0.0000E+00
    -16.632  0.0000E+00  0.0000E+00
    -16.628  0.0000E+00  0.0000E+00
    -16.623  0.0000E+00  0.0000E+00
    -16.618  0.0000E+00  0.0000E+00
    -16.614  0.0000E+00  0.0000E+00
    -16.609  0.0000E+00  0.0000E+00
    -16.604  0.0000E+00  0.0000E+00
    -16.600  0.0000E+00  0.0000E+00
    -16.595  0.0000E+00  0.0000E+00
    -16.591  0.0000E+00  0.0000E+00
    -16.586  0.0000E+00  0.0000E+00
    -16.581  0.0000E+00  0.0000E+00
    -16.577  0.0000E+00  0.0000E+00
    -16.572  0.0000E+00  0.0000E+00
    -16.567  0.0000E+00  0.0000E+00
    -16.563  0.0000E+00  0.0000E+00
    -16.558  0.0000E+00  0.0000E+00
    -16.554  0.0000E+00  0.0000E+00
    -16.549  0.0000E+00  0.0000E+00
    -16.544  0.0000E+00  0.0000E+00
    -16.540  0.0000E+00  0.0000E+00
    -16.535  0.0000E+00  0.0000E+00
    -16.530  0.3201E-15  0.1480E-17
    -16.526  0.5505E-13  0.2561E-15
    -16.521  0.7438E-11  0.3466E-13
    -16.517  0.6627E-09  0.3100E-11
    -16.512  0.3892E-07  0.1831E-09
    -16.507  0.1509E-05  0.7161E-08
    -16.503  0.3868E-04  0.1861E-06
    -16.498  0.6571E-03  0.3225E-05
    -16.493  0.7416E-02  0.3753E-04
    -16.489  0.5581E-01  0.2957E-03
    -16.484  0.2815E+00  0.1598E-02
    -16.480  0.9592E+00  0.6034E-02
    -16.475  0.2236E+01  0.1637E-01
    -16.470  0.3644E+01  0.3323E-01
    -16.466  0.4321E+01  0.5321E-01
    -16.461  0.4013E+01  0.7177E-01
    -16.456  0.3267E+01  0.8688E-01
    -16.452  0.2609E+01  0.9895E-01
    -16.447  0.2209E+01  0.1092E+00
    -16.443  0.2009E+01  0.1185E+00
    -16.438  0.1801E+01  0.1268E+00
    -16.433  0.1580E+01  0.1341E+00
    -16.429  0.1567E+01  0.1413E+00
    -16.424  0.1625E+01  0.1489E+00
    -16.419  0.1422E+01  0.1554E+00
    -16.415  0.1135E+01  0.1607E+00
    -16.410  0.1186E+01  0.1662E+00
    -16.406  0.1463E+01  0.1729E+00
    -16.401  0.1445E+01  0.1796E+00
    -16.396  0.1045E+01  0.1844E+00
    -16.392  0.7529E+00  0.1879E+00
    -16.387  0.9351E+00  0.1923E+00
    -16.382  0.1357E+01  0.1985E+00
    -16.378  0.1458E+01  0.2053E+00
    -16.373  0.1065E+01  0.2102E+00
    -16.369  0.5940E+00  0.2129E+00
    -16.364  0.5025E+00  0.2153E+00
    -16.359  0.8721E+00  0.2193E+00
    -16.355  0.1357E+01  0.2256E+00
    -16.350  0.1443E+01  0.2323E+00
    -16.345  0.1022E+01  0.2370E+00
    -16.341  0.5034E+00  0.2393E+00
    -16.336  0.2856E+00  0.2406E+00
    -16.332  0.4869E+00  0.2429E+00
    -16.327  0.9991E+00  0.2475E+00
    -16.322  0.1434E+01  0.2541E+00
    -16.318  0.1367E+01  0.2605E+00
    -16.313  0.8637E+00  0.2645E+00
    -16.308  0.3706E+00  0.2662E+00
    -16.304  0.1641E+00  0.2669E+00
    -16.299  0.2809E+00  0.2682E+00
    -16.295  0.7080E+00  0.2715E+00
    -16.290  0.1254E+01  0.2773E+00
    -16.285  0.1475E+01  0.2841E+00
    -16.281  0.1147E+01  0.2894E+00
    -16.276  0.5914E+00  0.2922E+00
    -16.271  0.2070E+00  0.2931E+00
    -16.267  0.8569E-01  0.2935E+00
    -16.262  0.1912E+00  0.2944E+00
    -16.258  0.5576E+00  0.2970E+00
    -16.253  0.1112E+01  0.3021E+00
    -16.248  0.1469E+01  0.3089E+00
    -16.244  0.1284E+01  0.3149E+00
    -16.239  0.7430E+00  0.3183E+00
    -16.234  0.2849E+00  0.3196E+00
    -16.230  0.7719E-01  0.3200E+00
    -16.225  0.4897E-01  0.3202E+00
    -16.221  0.1737E+00  0.3210E+00
    -16.216  0.5316E+00  0.3235E+00
    -16.211  0.1084E+01  0.3285E+00
    -16.207  0.1463E+01  0.3352E+00
    -16.202  0.1306E+01  0.3413E+00
    -16.197  0.7719E+00  0.3448E+00
    -16.193  0.3018E+00  0.3462E+00
    -16.188  0.7879E-01  0.3466E+00
    -16.184  0.2107E-01  0.3467E+00
    -16.179  0.5220E-01  0.3469E+00
    -16.174  0.2192E+00  0.3480E+00
    -16.170  0.6256E+00  0.3508E+00
    -16.165  0.1182E+01  0.3563E+00
    -16.160  0.1478E+01  0.3631E+00
    -16.156  0.1222E+01  0.3688E+00
    -16.151  0.6693E+00  0.3719E+00
    -16.147  0.2424E+00  0.3730E+00
    -16.142  0.5820E-01  0.3733E+00
    -16.137  0.1137E-01  0.3733E+00
    -16.133  0.1918E-01  0.3734E+00
    -16.128  0.9987E-01  0.3739E+00
    -16.123  0.3612E+00  0.3756E+00
    -16.119  0.8642E+00  0.3796E+00
    -16.114  0.1368E+01  0.3859E+00
    -16.110  0.1433E+01  0.3925E+00
    -16.105  0.9935E+00  0.3971E+00
    -16.100  0.4557E+00  0.3992E+00
    -16.096  0.1382E+00  0.3999E+00
    -16.091  0.2779E-01  0.4000E+00
    -16.086  0.4689E-02  0.4000E+00
    -16.082  0.9994E-02  0.4000E+00
    -16.077  0.6054E-01  0.4003E+00
    -16.073  0.2501E+00  0.4015E+00
    -16.068  0.6833E+00  0.4046E+00
    -16.063  0.1235E+01  0.4104E+00
    -16.059  0.1477E+01  0.4172E+00
    -16.054  0.1169E+01  0.4226E+00
    -16.049  0.6121E+00  0.4254E+00
    -16.045  0.2120E+00  0.4264E+00
    -16.040  0.4855E-01  0.4266E+00
    -16.036  0.7403E-02  0.4267E+00
    -16.031  0.1608E-02  0.4267E+00
    -16.026  0.8563E-02  0.4267E+00
    -16.022  0.5466E-01  0.4270E+00
    -16.017  0.2318E+00  0.4280E+00
    -16.012  0.6497E+00  0.4310E+00
    -16.008  0.1205E+01  0.4366E+00
    -16.003  0.1478E+01  0.4434E+00
    -15.999  0.1200E+01  0.4490E+00
    -15.994  0.6449E+00  0.4520E+00
    -15.989  0.2292E+00  0.4530E+00
    -15.985  0.5385E-01  0.4533E+00
    -15.980  0.8363E-02  0.4533E+00
    -15.975  0.9629E-03  0.4533E+00
    -15.971  0.1506E-02  0.4533E+00
    -15.966  0.1293E-01  0.4534E+00
    -15.962  0.7619E-01  0.4538E+00
    -15.957  0.2966E+00  0.4551E+00
    -15.952  0.7634E+00  0.4587E+00
    -15.948  0.1300E+01  0.4647E+00
    -15.943  0.1465E+01  0.4714E+00
    -15.938  0.1092E+01  0.4765E+00
    -15.934  0.5389E+00  0.4790E+00
    -15.929  0.1759E+00  0.4798E+00
    -15.925  0.3793E-01  0.4800E+00
    -15.920  0.5404E-02  0.4800E+00
    -15.915  0.5315E-03  0.4800E+00
    -15.911  0.4288E-03  0.4800E+00
    -15.906  0.4399E-02  0.4800E+00
    -15.901  0.3211E-01  0.4802E+00
    -15.897  0.1548E+00  0.4809E+00
    -15.892  0.4933E+00  0.4832E+00
    -15.888  0.1040E+01  0.4880E+00
    -15.883  0.1450E+01  0.4947E+00
    -15.878  0.1338E+01  0.5009E+00
    -15.874  0.8172E+00  0.5047E+00
    -15.869  0.3302E+00  0.5062E+00
    -15.864  0.8820E-01  0.5066E+00
    -15.860  0.1557E-01  0.5067E+00
    -15.855  0.1814E-02  0.5067E+00
    -15.851  0.1511E-03  0.5067E+00
    -15.846  0.2236E-03  0.5067E+00
    -15.841  0.2636E-02  0.5067E+00
    -15.837  0.2116E-01  0.5068E+00
    -15.832  0.1121E+00  0.5073E+00
    -15.827  0.3928E+00  0.5091E+00
    -15.823  0.9096E+00  0.5133E+00
    -15.818  0.1394E+01  0.5198E+00
    -15.814  0.1413E+01  0.5263E+00
    -15.809  0.9484E+00  0.5307E+00
    -15.804  0.4211E+00  0.5326E+00
    -15.800  0.1236E+00  0.5332E+00
    -15.795  0.2399E-01  0.5333E+00
    -15.790  0.3073E-02  0.5333E+00
    -15.786  0.2602E-03  0.5333E+00
    -15.781  0.2904E-04  0.5333E+00
    -15.777  0.2621E-03  0.5333E+00
    -15.772  0.3092E-02  0.5333E+00
    -15.767  0.2411E-01  0.5335E+00
    -15.763  0.1241E+00  0.5340E+00
    -15.758  0.4222E+00  0.5360E+00
    -15.753  0.9499E+00  0.5404E+00
    -15.749  0.1414E+01  0.5469E+00
    -15.744  0.1393E+01  0.5534E+00
    -15.740  0.9080E+00  0.5576E+00
    -15.735  0.3916E+00  0.5594E+00
    -15.730  0.1117E+00  0.5599E+00
    -15.726  0.2105E-01  0.5600E+00
    -15.721  0.2619E-02  0.5600E+00
    -15.716  0.2150E-03  0.5600E+00
    -15.712  0.1362E-04  0.5600E+00
    -15.707  0.4674E-04  0.5600E+00
    -15.703  0.7081E-03  0.5600E+00
    -15.698  0.7135E-02  0.5600E+00
    -15.693  0.4744E-01  0.5603E+00
    -15.689  0.2084E+00  0.5612E+00
    -15.684  0.6050E+00  0.5640E+00
    -15.679  0.1162E+01  0.5694E+00
    -15.675  0.1476E+01  0.5762E+00
    -15.670  0.1241E+01  0.5820E+00
    -15.666  0.6908E+00  0.5852E+00
    -15.661  0.2543E+00  0.5863E+00
    -15.656  0.6188E-01  0.5866E+00
    -15.652  0.9947E-02  0.5867E+00
    -15.647  0.1055E-02  0.5867E+00
    -15.642  0.7385E-04  0.5867E+00
    -15.638  0.4148E-05  0.5867E+00
    -15.633  0.1964E-04  0.5867E+00
    -15.629  0.3368E-03  0.5867E+00
    -15.624  0.3826E-02  0.5867E+00
    -15.619  0.2868E-01  0.5868E+00
    -15.615  0.1419E+00  0.5875E+00
    -15.610  0.4643E+00  0.5896E+00
    -15.605  0.1004E+01  0.5943E+00
    -15.601  0.1437E+01  0.6009E+00
    -15.596  0.1361E+01  0.6072E+00
    -15.592  0.8533E+00  0.6112E+00
    -15.587  0.3538E+00  0.6128E+00
    -15.582  0.9702E-01  0.6132E+00
    -15.578  0.1758E-01  0.6133E+00
    -15.573  0.2102E-02  0.6133E+00
    -15.568  0.1658E-03  0.6133E+00
    -15.564  0.8643E-05  0.6133E+00
    -15.559  0.1194E-05  0.6133E+00
    -15.555  0.2303E-04  0.6133E+00
    -15.550  0.3881E-03  0.6133E+00
    -15.545  0.4311E-02  0.6134E+00
    -15.541  0.3159E-01  0.6135E+00
    -15.536  0.1529E+00  0.6142E+00
    -15.531  0.4891E+00  0.6165E+00
    -15.527  0.1035E+01  0.6213E+00
    -15.522  0.1448E+01  0.6280E+00
    -15.518  0.1342E+01  0.6342E+00
    -15.513  0.8223E+00  0.6380E+00
    -15.508  0.3335E+00  0.6395E+00
    -15.504  0.8942E-01  0.6399E+00
    -15.499  0.1584E-01  0.6400E+00
    -15.494  0.1853E-02  0.6400E+00
    -15.490  0.1429E-03  0.6400E+00
    -15.485  0.7265E-05  0.6400E+00
    -15.481  0.3543E-06  0.6400E+00
    -15.476  0.3647E-05  0.6400E+00
    -15.471  0.7835E-04  0.6400E+00
    -15.467  0.1110E-02  0.6400E+00
    -15.462  0.1038E-01  0.6401E+00
    -15.457  0.6399E-01  0.6403E+00
    -15.453  0.2607E+00  0.6416E+00
    -15.448  0.7022E+00  0.6448E+00
    -15.444  0.1251E+01  0.6506E+00
    -15.439  0.1475E+01  0.6574E+00
    -15.434  0.1151E+01  0.6627E+00
    -15.430  0.5942E+00  0.6655E+00
    -15.425  0.2029E+00  0.6664E+00
    -15.420  0.4581E-01  0.6666E+00
    -15.416  0.6830E-02  0.6667E+00
    -15.411  0.6719E-03  0.6667E+00
    -15.407  0.4358E-04  0.6667E+00
    -15.402  0.1862E-05  0.6667E+00
    -15.397  0.1040E-06  0.6667E+00
    -15.393  0.1841E-05  0.6667E+00
    -15.388  0.4315E-04  0.6667E+00
    -15.383  0.6662E-03  0.6667E+00
    -15.379  0.6781E-02  0.6667E+00
    -15.374  0.4555E-01  0.6669E+00
    -15.370  0.2020E+00  0.6678E+00
    -15.365  0.5925E+00  0.6706E+00
    -15.360  0.1149E+01  0.6759E+00
    -15.356  0.1475E+01  0.6827E+00
    -15.351  0.1253E+01  0.6885E+00
    -15.346  0.7040E+00  0.6918E+00
    -15.342  0.2618E+00  0.6930E+00
    -15.337  0.6434E-01  0.6933E+00
    -15.333  0.1045E-01  0.6933E+00
    -15.328  0.1120E-02  0.6933E+00
    -15.323  0.7911E-04  0.6933E+00
    -15.319  0.3682E-05  0.6933E+00
    -15.314  0.1149E-06  0.6933E+00
    -15.309  0.1090E-06  0.6933E+00
    -15.305  0.3505E-05  0.6933E+00
    -15.300  0.7578E-04  0.6933E+00
    -15.296  0.1079E-02  0.6933E+00
    -15.291  0.1013E-01  0.6934E+00
    -15.286  0.6279E-01  0.6937E+00
    -15.282  0.2571E+00  0.6949E+00
    -15.277  0.6958E+00  0.6981E+00
    -15.272  0.1246E+01  0.7038E+00
    -15.268  0.1476E+01  0.7107E+00
    -15.263  0.1157E+01  0.7160E+00
    -15.259  0.6003E+00  0.7188E+00
    -15.254  0.2060E+00  0.7197E+00
    -15.249  0.4672E-01  0.7200E+00
    -15.245  0.7000E-02  0.7200E+00
    -15.240  0.6920E-03  0.7200E+00
    -15.235  0.4510E-04  0.7200E+00
    -15.231  0.1936E-05  0.7200E+00
    -15.226  0.5510E-07  0.7200E+00
    -15.222  0.2634E-07  0.7200E+00
    -15.217  0.9760E-06  0.7200E+00
    -15.212  0.2474E-04  0.7200E+00
    -15.208  0.4128E-03  0.7200E+00
    -15.203  0.4541E-02  0.7200E+00
    -15.198  0.3296E-01  0.7202E+00
    -15.194  0.1579E+00  0.7209E+00
    -15.189  0.5003E+00  0.7232E+00
    -15.185  0.1048E+01  0.7281E+00
    -15.180  0.1453E+01  0.7348E+00
    -15.175  0.1332E+01  0.7409E+00
    -15.171  0.8088E+00  0.7447E+00
    -15.166  0.3248E+00  0.7462E+00
    -15.161  0.8624E-01  0.7466E+00
    -15.157  0.1513E-01  0.7467E+00
    -15.152  0.1752E-02  0.7467E+00
    -15.148  0.1338E-03  0.7467E+00
    -15.143  0.6733E-05  0.7467E+00
    -15.138  0.2230E-06  0.7467E+00
    -15.134  0.5431E-08  0.7467E+00
    -15.129  0.3285E-07  0.7467E+00
    -15.124  0.1228E-05  0.7467E+00
    -15.120  0.3027E-04  0.7467E+00
    -15.115  0.4912E-03  0.7467E+00
    -15.111  0.5254E-02  0.7467E+00
    -15.106  0.3708E-01  0.7469E+00
    -15.101  0.1728E+00  0.7477E+00
    -15.097  0.5325E+00  0.7501E+00
    -15.092  0.1085E+01  0.7551E+00
    -15.087  0.1463E+01  0.7619E+00
    -15.083  0.1305E+01  0.7679E+00
    -15.078  0.7707E+00  0.7715E+00
    -15.074  0.3011E+00  0.7729E+00
    -15.069  0.7775E-01  0.7733E+00
    -15.064  0.1327E-01  0.7733E+00
    -15.060  0.1494E-02  0.7733E+00
    -15.055  0.1110E-03  0.7733E+00
    -15.050  0.5429E-05  0.7733E+00
    -15.046  0.1748E-06  0.7733E+00
    -15.041  0.3780E-08  0.7733E+00
    -15.037  0.5509E-08  0.7733E+00
    -15.032  0.2476E-06  0.7733E+00
    -15.027  0.7386E-05  0.7733E+00
    -15.023  0.1450E-03  0.7733E+00
    -15.018  0.1876E-02  0.7733E+00
    -15.013  0.1601E-01  0.7734E+00
    -15.009  0.9015E-01  0.7738E+00
    -15.004  0.3355E+00  0.7754E+00
    -15.000  0.8254E+00  0.7792E+00
    -14.995  0.1344E+01  0.7854E+00
    -14.990  0.1447E+01  0.7921E+00
    -14.986  0.1032E+01  0.7969E+00
    -14.981  0.4866E+00  0.7991E+00
    -14.976  0.1518E+00  0.7998E+00
    -14.972  0.3130E-01  0.8000E+00
    -14.967  0.4261E-02  0.8000E+00
    -14.963  0.3827E-03  0.8000E+00
    -14.958  0.2266E-04  0.8000E+00
    -14.953  0.8831E-06  0.8000E+00
    -14.949  0.2264E-07  0.8000E+00
    -14.944  0.4807E-09  0.8000E+00
    -14.939  0.6705E-08  0.8000E+00
    -14.935  0.2975E-06  0.8000E+00
    -14.930  0.8688E-05  0.8000E+00
    -14.926  0.1670E-03  0.8000E+00
    -14.921  0.2115E-02  0.8000E+00
    -14.916  0.1766E-01  0.8001E+00
    -14.912  0.9739E-01  0.8005E+00
    -14.907  0.3548E+00  0.8022E+00
    -14.902  0.8547E+00  0.8061E+00
    -14.898  0.1362E+01  0.8124E+00
    -14.893  0.1437E+01  0.8191E+00
    -14.889  0.1003E+01  0.8237E+00
    -14.884  0.4631E+00  0.8259E+00
    -14.879  0.1414E+00  0.8265E+00
    -14.875  0.2855E-01  0.8266E+00
    -14.870  0.3805E-02  0.8267E+00
    -14.865  0.3346E-03  0.8267E+00
    -14.861  0.1939E-04  0.8267E+00
    -14.856  0.7397E-06  0.8267E+00
    -14.852  0.1856E-07  0.8267E+00
    -14.847  0.3219E-09  0.8267E+00
    -14.842  0.1265E-08  0.8267E+00
    -14.838  0.6650E-07  0.8267E+00
    -14.833  0.2304E-05  0.8267E+00
    -14.828  0.5252E-04  0.8267E+00
    -14.824  0.7886E-03  0.8267E+00
    -14.819  0.7806E-02  0.8267E+00
    -14.815  0.5099E-01  0.8269E+00
    -14.810  0.2200E+00  0.8280E+00
    -14.805  0.6274E+00  0.8309E+00
    -14.801  0.1184E+01  0.8363E+00
    -14.796  0.1478E+01  0.8432E+00
    -14.791  0.1221E+01  0.8488E+00
    -14.787  0.6674E+00  0.8519E+00
    -14.782  0.2414E+00  0.8530E+00
    -14.778  0.5770E-01  0.8533E+00
    -14.773  0.9112E-02  0.8533E+00
    -14.768  0.9496E-03  0.8533E+00
    -14.764  0.6525E-04  0.8533E+00
    -14.759  0.2953E-05  0.8533E+00
    -14.754  0.8795E-07  0.8533E+00
    -14.750  0.1722E-08  0.8533E+00
    -14.745  0.5620E-10  0.8533E+00
    -14.741  0.2545E-08  0.8533E+00
    -14.736  0.1249E-06  0.8533E+00
    -14.731  0.4031E-05  0.8533E+00
    -14.727  0.8561E-04  0.8533E+00
    -14.722  0.1198E-02  0.8533E+00
    -14.717  0.1105E-01  0.8534E+00
    -14.713  0.6726E-01  0.8537E+00
    -14.708  0.2705E+00  0.8550E+00
    -14.704  0.7193E+00  0.8583E+00
    -14.699  0.1265E+01  0.8641E+00
    -14.694  0.1473E+01  0.8709E+00
    -14.690  0.1135E+01  0.8762E+00
    -14.685  0.5783E+00  0.8789E+00
    -14.680  0.1950E+00  0.8798E+00
    -14.676  0.4345E-01  0.8800E+00
    -14.671  0.6395E-02  0.8800E+00
    -14.667  0.6211E-03  0.8800E+00
    -14.662  0.3976E-04  0.8800E+00
    -14.657  0.1677E-05  0.8800E+00
    -14.653  0.4651E-07  0.8800E+00
    -14.648  0.8480E-09  0.8800E+00
    -14.643  0.2297E-10  0.8800E+00
    -14.639  0.1048E-08  0.8800E+00
    -14.634  0.5629E-07  0.8800E+00
    -14.630  0.1987E-05  0.8800E+00
    -14.625  0.4614E-04  0.8800E+00
    -14.620  0.7056E-03  0.8800E+00
    -14.616  0.7114E-02  0.8800E+00
    -14.611  0.4734E-01  0.8803E+00
    -14.606  0.2080E+00  0.8812E+00
    -14.602  0.6043E+00  0.8840E+00
    -14.597  0.1161E+01  0.8894E+00
    -14.593  0.1476E+01  0.8962E+00
    -14.588  0.1242E+01  0.9020E+00
    -14.583  0.6915E+00  0.9052E+00
    -14.579  0.2547E+00  0.9063E+00
    -14.574  0.6202E-01  0.9066E+00
    -14.569  0.9975E-02  0.9067E+00
    -14.565  0.1059E-02  0.9067E+00
    -14.560  0.7412E-04  0.9067E+00
    -14.556  0.3417E-05  0.9067E+00
    -14.551  0.1037E-06  0.9067E+00
    -14.546  0.2068E-08  0.9067E+00
    -14.542  0.2803E-10  0.9067E+00
    -14.537  0.9708E-10  0.9067E+00
    -14.532  0.6560E-08  0.9067E+00
    -14.528  0.2919E-06  0.9067E+00
    -14.523  0.8544E-05  0.9067E+00
    -14.519  0.1646E-03  0.9067E+00
    -14.514  0.2089E-02  0.9067E+00
    -14.509  0.1748E-01  0.9068E+00
    -14.505  0.9661E-01  0.9072E+00
    -14.500  0.3528E+00  0.9088E+00
    -14.495  0.8517E+00  0.9128E+00
    -14.491  0.1360E+01  0.9191E+00
    -14.486  0.1438E+01  0.9257E+00
    -14.482  0.1006E+01  0.9304E+00
    -14.477  0.4655E+00  0.9325E+00
    -14.472  0.1425E+00  0.9332E+00
    -14.468  0.2882E-01  0.9333E+00
    -14.463  0.3850E-02  0.9333E+00
    -14.458  0.3393E-03  0.9333E+00
    -14.454  0.1971E-04  0.9333E+00
    -14.449  0.7535E-06  0.9333E+00
    -14.445  0.1895E-07  0.9333E+00
    -14.440  0.3132E-09  0.9333E+00
    -14.435  0.5422E-11  0.9333E+00
    -14.431  0.1952E-09  0.9333E+00
    -14.426  0.1236E-07  0.9333E+00
    -14.421  0.5146E-06  0.9333E+00
    -14.417  0.1409E-04  0.9333E+00
    -14.412  0.2538E-03  0.9333E+00
    -14.408  0.3014E-02  0.9333E+00
    -14.403  0.2361E-01  0.9335E+00
    -14.398  0.1221E+00  0.9340E+00
    -14.394  0.4174E+00  0.9360E+00
    -14.389  0.9435E+00  0.9403E+00
    -14.384  0.1411E+01  0.9468E+00
    -14.380  0.1396E+01  0.9533E+00
    -14.375  0.9145E+00  0.9575E+00
    -14.371  0.3963E+00  0.9594E+00
    -14.366  0.1135E+00  0.9599E+00
    -14.361  0.2150E-01  0.9600E+00
    -14.357  0.2687E-02  0.9600E+00
    -14.352  0.2216E-03  0.9600E+00
    -14.347  0.1204E-04  0.9600E+00
    -14.343  0.4307E-06  0.9600E+00
    -14.338  0.1013E-07  0.9600E+00
    -14.334  0.1566E-09  0.9600E+00
    -14.329  0.2971E-11  0.9600E+00
    -14.324  0.1379E-09  0.9600E+00
    -14.320  0.9031E-08  0.9600E+00
    -14.315  0.3886E-06  0.9600E+00
    -14.310  0.1100E-04  0.9600E+00
    -14.306  0.2049E-03  0.9600E+00
    -14.301  0.2515E-02  0.9600E+00
    -14.297  0.2036E-01  0.9601E+00
    -14.292  0.1088E+00  0.9606E+00
    -14.287  0.3844E+00  0.9624E+00
    -14.283  0.8978E+00  0.9665E+00
    -14.278  0.1387E+01  0.9730E+00
    -14.273  0.1419E+01  0.9795E+00
    -14.269  0.9601E+00  0.9840E+00
    -14.264  0.4299E+00  0.9859E+00
    -14.260  0.1273E+00  0.9865E+00
    -14.255  0.2491E-01  0.9867E+00
    -14.250  0.3218E-02  0.9867E+00
    -14.246  0.2743E-03  0.9867E+00
    -14.241  0.1541E-04  0.9867E+00
    -14.236  0.5697E-06  0.9867E+00
    -14.232  0.1385E-07  0.9867E+00
    -14.227  0.2214E-09  0.9867E+00
    -14.223  0.2710E-11  0.9867E+00
    -14.218  0.4314E-10  0.9867E+00
    -14.213  0.3153E-08  0.9867E+00
    -14.209  0.1514E-06  0.9867E+00
    -14.204  0.4780E-05  0.9867E+00
    -14.199  0.9931E-04  0.9867E+00
    -14.195  0.1359E-02  0.9867E+00
    -14.190  0.1227E-01  0.9867E+00
    -14.186  0.7309E-01  0.9871E+00
    -14.181  0.2877E+00  0.9884E+00
    -14.176  0.7485E+00  0.9919E+00
    -14.172  0.1289E+01  0.9978E+00
    -14.167  0.1468E+01  0.1005E+01
    -14.162  0.1107E+01  0.1010E+01
    -14.158  0.5520E+00  0.1012E+01
    -14.153  0.1821E+00  0.1013E+01
    -14.149  0.3971E-01  0.1013E+01
    -14.144  0.5719E-02  0.1013E+01
    -14.139  0.5435E-03  0.1013E+01
    -14.135  0.3404E-04  0.1013E+01
    -14.130  0.1404E-05  0.1013E+01
    -14.125  0.3811E-07  0.1013E+01
    -14.121  0.6797E-09  0.1013E+01
    -14.116  0.8020E-11  0.1013E+01
    -14.112  0.7720E-11  0.1013E+01
    -14.107  0.6561E-09  0.1013E+01
    -14.102  0.3692E-07  0.1013E+01
    -14.098  0.1365E-05  0.1013E+01
    -14.093  0.3321E-04  0.1013E+01
    -14.088  0.5320E-03  0.1013E+01
    -14.084  0.5619E-02  0.1013E+01
    -14.079  0.3917E-01  0.1014E+01
    -14.075  0.1805E+00  0.1014E+01
    -14.070  0.5527E+00  0.1017E+01
    -14.065  0.1140E+01  0.1022E+01
    -14.061  0.1663E+01  0.1030E+01
    -14.056  0.1986E+01  0.1039E+01
    -14.051  0.2439E+01  0.1050E+01
    -14.047  0.3174E+01  0.1065E+01
    -14.042  0.3693E+01  0.1082E+01
    -14.038  0.3576E+01  0.1099E+01
    -14.033  0.3047E+01  0.1113E+01
    -14.028  0.2545E+01  0.1125E+01
    -14.024  0.2192E+01  0.1135E+01
    -14.019  0.1897E+01  0.1143E+01
    -14.014  0.1737E+01  0.1151E+01
    -14.010  0.1727E+01  0.1159E+01
    -14.005  0.1590E+01  0.1167E+01
    -14.001  0.1313E+01  0.1173E+01
    -13.996  0.1275E+01  0.1179E+01
    -13.991  0.1488E+01  0.1186E+01
    -13.987  0.1481E+01  0.1193E+01
    -13.982  0.1116E+01  0.1198E+01
    -13.977  0.8536E+00  0.1202E+01
    -13.973  0.1063E+01  0.1207E+01
    -13.968  0.1518E+01  0.1214E+01
    -13.964  0.1783E+01  0.1222E+01
    -13.959  0.1849E+01  0.1230E+01
    -13.954  0.1953E+01  0.1239E+01
    -13.950  0.2069E+01  0.1249E+01
    -13.945  0.2080E+01  0.1259E+01
    -13.940  0.1918E+01  0.1267E+01
    -13.936  0.1467E+01  0.1274E+01
    -13.931  0.8392E+00  0.1278E+01
    -13.927  0.3956E+00  0.1280E+01
    -13.922  0.3730E+00  0.1282E+01
    -13.917  0.7650E+00  0.1285E+01