 running   16 mpi-ranks, on    1 nodes
 distrk:  each k-point on   16 cores,    1 groups
 distr:  one band on    4 cores,    4 groups
 vasp.6.4.2 20Jul23 (build Nov 14 2023 13:24:25) complex                        
  
 POSCAR found type information on POSCAR As
 POSCAR found :  1 types and       2 ions
 Reading from existing POTCAR
 -----------------------------------------------------------------------------
|                                                                             |
|           W    W    AA    RRRRR   N    N  II  N    N   GGGG   !!!           |
|           W    W   A  A   R    R  NN   N  II  NN   N  G    G  !!!           |
|           W    W  A    A  R    R  N N  N  II  N N  N  G       !!!           |
|           W WW W  AAAAAA  RRRRR   N  N N  II  N  N N  G  GGG   !            |
|           WW  WW  A    A  R   R   N   NN  II  N   NN  G    G                |
|           W    W  A    A  R    R  N    N  II  N    N   GGGG   !!!           |
|                                                                             |
|     You use a magnetic or noncollinear calculation, but did not specify     |
|     the initial magnetic moment with the MAGMOM tag. Note that a            |
|     default of 1 will be used for all atoms. This ferromagnetic setup       |
|     may break the symmetry of the crystal, in particular it may rule        |
|     out finding an antiferromagnetic solution. Thence, we recommend         |
|     setting the initial magnetic moment manually or verifying carefully     |
|     that this magnetic setup is desired.                                    |
|                                                                             |
 -----------------------------------------------------------------------------

 scaLAPACK will be used
 Reading from existing POTCAR
 LDA part: xc-table for Pade appr. of Perdew
 WARNING: stress and forces are not correct
 POSCAR, INCAR and KPOINTS ok, starting setup
 FFT: planning ... GRIDC
 FFT: planning ... GRID_SOFT
 FFT: planning ... GRID
 WAVECAR not read
 reading imaginary part of occupancies ...
 charge-density read from file: unknown                                 
 reading imaginary part of occupancies ...
 magnetization density read from file 1
 reading imaginary part of occupancies ...
 magnetization density read from file 2
 reading imaginary part of occupancies ...
 magnetization density read from file 3
 entering main loop
       N       E                     dE             d eps       ncg     rms          rms(c)
DAV:   1     0.326410187867E+02    0.32641E+02   -0.18624E+03  9656   0.229E+02
DAV:   2    -0.521195752662E+01   -0.37853E+02   -0.35552E+02 13624   0.692E+01
DAV:   3    -0.917132411545E+01   -0.39594E+01   -0.39250E+01 13144   0.226E+01
DAV:   4    -0.935545068580E+01   -0.18413E+00   -0.18406E+00 13152   0.509E+00
DAV:   5    -0.935846610031E+01   -0.30154E-02   -0.30153E-02 12768   0.586E-01
DAV:   6    -0.935854283551E+01   -0.76735E-04   -0.76735E-04 12880   0.886E-02
DAV:   7    -0.935854607799E+01   -0.32425E-05   -0.32424E-05 13016   0.150E-02
DAV:   8    -0.935854622081E+01   -0.14282E-06   -0.14279E-06 10384   0.282E-03
DAV:   9    -0.935854622859E+01   -0.77808E-08   -0.77856E-08  8376   0.795E-04
DAV:  10    -0.935854623010E+01   -0.15057E-08   -0.14854E-08  7728   0.397E-04
DAV:  11    -0.935854623069E+01   -0.59373E-09   -0.60488E-09  7312   0.251E-04
DAV:  12    -0.935854623095E+01   -0.25784E-09   -0.26522E-09  7048   0.167E-04
DAV:  13    -0.935854623106E+01   -0.11670E-09   -0.11794E-09  6920   0.111E-04
   1 F= -.93585462E+01 E0= -.93585462E+01  d E =-.375270E-12  mag=    -0.0000    -0.0000    -0.0000
