 vasp.6.4.2 20Jul23 (build Nov 14 2023 13:24:25) complex                        
  
 executed on             LinuxIFC date 2023.12.17  08:46:35
 running   16 mpi-ranks, on    1 nodes
 distrk:  each k-point on   16 cores,    1 groups
 distr:  one band on NCORE=   4 cores,    4 groups


--------------------------------------------------------------------------------------------------------


 INCAR:
   ENCUT = 234.789750
   ALGO = Normal
   NELM = 200
   NELMIN = 6
   NELMDL = -12
   EDIFF = 1.0E-6
   AMIX = 0.1
   BMIX = 0.0001
   NBANDS = 32
   PREC = Accurate
   IVDW = 0
   ISPIN = 1
   ADDGRID = .TRUE.
   LASPH = .TRUE.
   LSORBIT = .TRUE.
   NSW = 0
   EDIFFG = -0.010
   IBRION = 2
   ISIF = -1
   POTIM = 0.5
   STRESSTYPE = 2
   ISMEAR = 0
   SIGMA = 0.01
   LORBIT = 10
   NEDOS = 6001
   NWRITE = 1
   LWAVE = .FALSE.
   LCHARG = .FALSE.
   ICHARG = 11
   NCORE = 4
   LPLANE = .TRUE.

 POTCAR:    PAW_PBE As_GW 20Mar2012               
 -----------------------------------------------------------------------------
|                                                                             |
|           W    W    AA    RRRRR   N    N  II  N    N   GGGG   !!!           |
|           W    W   A  A   R    R  NN   N  II  NN   N  G    G  !!!           |
|           W    W  A    A  R    R  N N  N  II  N N  N  G       !!!           |
|           W WW W  AAAAAA  RRRRR   N  N N  II  N  N N  G  GGG   !            |
|           WW  WW  A    A  R   R   N   NN  II  N   NN  G    G                |
|           W    W  A    A  R    R  N    N  II  N    N   GGGG   !!!           |
|                                                                             |
|     You use a magnetic or noncollinear calculation, but did not specify     |
|     the initial magnetic moment with the MAGMOM tag. Note that a            |
|     default of 1 will be used for all atoms. This ferromagnetic setup       |
|     may break the symmetry of the crystal, in particular it may rule        |
|     out finding an antiferromagnetic solution. Thence, we recommend         |
|     setting the initial magnetic moment manually or verifying carefully     |
|     that this magnetic setup is desired.                                    |
|                                                                             |
 -----------------------------------------------------------------------------

 POTCAR:    PAW_PBE As_GW 20Mar2012               
  local pseudopotential read in
  partial core-charges read in
  partial kinetic energy density read in
  kinetic energy density of atom read in
  atomic valenz-charges read in
  non local Contribution for L=           0  read in
    real space projection operators read in
  non local Contribution for L=           0  read in
    real space projection operators read in
  non local Contribution for L=           1  read in
    real space projection operators read in
  non local Contribution for L=           1  read in
    real space projection operators read in
  non local Contribution for L=           2  read in
    real space projection operators read in
    PAW grid and wavefunctions read in
 
   number of l-projection  operators is LMAX  =           5
   number of lm-projection operators is LMMAX =          13
 
  PAW_PBE As_GW 20Mar2012               :
 energy of atom  1       EATOM= -170.1867
 kinetic energy error for atom=    0.0047 (will be added to EATOM!!)
 
 
 POSCAR: pnictogen honeycomb monolayer
  positions in direct lattice
  velocities in cartesian coordinates
 exchange correlation table for  LEXCH =        8
   RHO(1)=    0.500       N(1)  =     2000
   RHO(2)=  100.500       N(2)  =     4000
 


--------------------------------------------------------------------------------------------------------


 ion  position               nearest neighbor table
   1  0.667  0.333  0.456-   2 2.51   2 2.51   2 2.51
   2  0.333  0.667  0.544-   1 2.51   1 2.51   1 2.51
 
  LATTYP: Found a hexagonal cell.
 ALAT       =     3.6068925390
 C/A-ratio  =     4.4359513978
  
  Lattice vectors:
  
 A1 = (   3.6068925390,   0.0000000000,   0.0000000000)
 A2 = (  -1.8034462695,   3.1236605675,   0.0000000000)
 A3 = (   0.0000000000,   0.0000000000,  16.0000000000)


Analysis of symmetry for initial positions (statically):
=====================================================================
 Subroutine PRICEL returns:
 Original cell was already a primitive cell.
 

 Routine SETGRP: Setting up the symmetry group for a 
 hexagonal supercell.


 Subroutine GETGRP returns: Found 12 space group operations
 (whereof 12 operations were pure point group operations)
 out of a pool of 24 trial point group operations.


The static configuration has the point symmetry D_3d.


Analysis of symmetry for dynamics (positions and initial velocities):
=====================================================================
 Subroutine PRICEL returns:
 Original cell was already a primitive cell.
 

 Routine SETGRP: Setting up the symmetry group for a 
 hexagonal supercell.


 Subroutine GETGRP returns: Found 12 space group operations
 (whereof 12 operations were pure point group operations)
 out of a pool of 24 trial point group operations.


The dynamic configuration has the point symmetry D_3d.


Analysis of structural, dynamic, and magnetic symmetry:
=====================================================================
 Subroutine PRICEL returns:
 Original cell was already a primitive cell.
 

 Routine SETGRP: Setting up the symmetry group for a 
 hexagonal supercell.


 Subroutine GETGRP returns: Found  2 space group operations
 (whereof  2 operations were pure point group operations)
 out of a pool of 24 trial point group operations.


The overall configuration has the point symmetry S_2 .


 Subroutine INISYM returns: Found  2 space group operations
 (whereof  2 operations are pure point group operations),
 and found     1 'primitive' translations


----------------------------------------------------------------------------------------

                                     Primitive cell                                     

  volume of cell :     180.2673

  direct lattice vectors                    reciprocal lattice vectors
     3.606892539  0.000000000  0.000000000     0.277246962  0.160068608  0.000000000
    -1.803446269  3.123660567  0.000000000     0.000000000  0.320137217  0.000000000
     0.000000000  0.000000000 16.000000000     0.000000000  0.000000000  0.062500000

  length of vectors
     3.606892539  3.606892539 16.000000000     0.320137217  0.320137217  0.062500000

  position of ions in fractional coordinates (direct lattice)
     0.666666667  0.333333333  0.456343136
     0.333333333  0.666666667  0.543656864

  ion indices of the primitive-cell ions
   primitive index   ion index
                 1           1
                 2           2

----------------------------------------------------------------------------------------

 
 
 KPOINTS: kpoints along symmetry lines            

Interpolating k-points between supplied coordinates.

 Line segments in fractional coordinates (reciprocal lattice):
    0.000000  0.000000  0.000000  ...  0.666667 -0.333333  0.000000
    0.666667 -0.333333  0.000000  ...  0.333333  0.333333  0.000000
    0.333333  0.333333  0.000000  ...  0.000000  0.000000  0.000000

 Generated    50 points on each line segment, for a total of    150 k-points:

 Following reciprocal coordinates:
            Coordinates               Weight
  0.000000  0.000000  0.000000      0.006667
  0.013605 -0.006803  0.000000      0.006667
  0.027211 -0.013605  0.000000      0.006667
  0.040816 -0.020408  0.000000      0.006667
  0.054422 -0.027211  0.000000      0.006667
  0.068027 -0.034014  0.000000      0.006667
  0.081633 -0.040816  0.000000      0.006667
  0.095238 -0.047619  0.000000      0.006667
  0.108844 -0.054422  0.000000      0.006667
  0.122449 -0.061224  0.000000      0.006667
  0.136054 -0.068027  0.000000      0.006667
  0.149660 -0.074830  0.000000      0.006667
  0.163265 -0.081633  0.000000      0.006667
  0.176871 -0.088435  0.000000      0.006667
  0.190476 -0.095238  0.000000      0.006667
  0.204082 -0.102041  0.000000      0.006667
  0.217687 -0.108844  0.000000      0.006667
  0.231293 -0.115646  0.000000      0.006667
  0.244898 -0.122449  0.000000      0.006667
  0.258503 -0.129252  0.000000      0.006667
  0.272109 -0.136054  0.000000      0.006667
  0.285714 -0.142857  0.000000      0.006667
  0.299320 -0.149660  0.000000      0.006667
  0.312925 -0.156463  0.000000      0.006667
  0.326531 -0.163265  0.000000      0.006667
  0.340136 -0.170068  0.000000      0.006667
  0.353741 -0.176871  0.000000      0.006667
  0.367347 -0.183673  0.000000      0.006667
  0.380952 -0.190476  0.000000      0.006667
  0.394558 -0.197279  0.000000      0.006667
  0.408163 -0.204082  0.000000      0.006667
  0.421769 -0.210884  0.000000      0.006667
  0.435374 -0.217687  0.000000      0.006667
  0.448980 -0.224490  0.000000      0.006667
  0.462585 -0.231293  0.000000      0.006667
  0.476190 -0.238095  0.000000      0.006667
  0.489796 -0.244898  0.000000      0.006667
  0.503401 -0.251701  0.000000      0.006667
  0.517007 -0.258503  0.000000      0.006667
  0.530612 -0.265306  0.000000      0.006667
  0.544218 -0.272109  0.000000      0.006667
  0.557823 -0.278912  0.000000      0.006667
  0.571429 -0.285714  0.000000      0.006667
  0.585034 -0.292517  0.000000      0.006667
  0.598639 -0.299320  0.000000      0.006667
  0.612245 -0.306122  0.000000      0.006667
  0.625850 -0.312925  0.000000      0.006667
  0.639456 -0.319728  0.000000      0.006667
  0.653061 -0.326531  0.000000      0.006667
  0.666667 -0.333333  0.000000      0.006667
  0.666667 -0.333333  0.000000      0.006667
  0.659864 -0.319728  0.000000      0.006667
  0.653061 -0.306122  0.000000      0.006667
  0.646259 -0.292517  0.000000      0.006667
  0.639456 -0.278912  0.000000      0.006667
  0.632653 -0.265306  0.000000      0.006667
  0.625850 -0.251701  0.000000      0.006667
  0.619048 -0.238095  0.000000      0.006667
  0.612245 -0.224490  0.000000      0.006667
  0.605442 -0.210884  0.000000      0.006667
  0.598639 -0.197279  0.000000      0.006667
  0.591837 -0.183673  0.000000      0.006667
  0.585034 -0.170068  0.000000      0.006667
  0.578231 -0.156463  0.000000      0.006667
  0.571429 -0.142857  0.000000      0.006667
  0.564626 -0.129252  0.000000      0.006667
  0.557823 -0.115646  0.000000      0.006667
  0.551020 -0.102041  0.000000      0.006667
  0.544218 -0.088435  0.000000      0.006667
  0.537415 -0.074830  0.000000      0.006667
  0.530612 -0.061224  0.000000      0.006667
  0.523810 -0.047619  0.000000      0.006667
  0.517007 -0.034014  0.000000      0.006667
  0.510204 -0.020408  0.000000      0.006667
  0.503401 -0.006803  0.000000      0.006667
  0.496599  0.006803  0.000000      0.006667
  0.489796  0.020408  0.000000      0.006667
  0.482993  0.034014  0.000000      0.006667
  0.476190  0.047619  0.000000      0.006667
  0.469388  0.061224  0.000000      0.006667
  0.462585  0.074830  0.000000      0.006667
  0.455782  0.088435  0.000000      0.006667
  0.448980  0.102041  0.000000      0.006667
  0.442177  0.115646  0.000000      0.006667
  0.435374  0.129252  0.000000      0.006667
  0.428571  0.142857  0.000000      0.006667
  0.421769  0.156463  0.000000      0.006667
  0.414966  0.170068  0.000000      0.006667
  0.408163  0.183673  0.000000      0.006667
  0.401361  0.197279  0.000000      0.006667
  0.394558  0.210884  0.000000      0.006667
  0.387755  0.224490  0.000000      0.006667
  0.380952  0.238095  0.000000      0.006667
  0.374150  0.251701  0.000000      0.006667
  0.367347  0.265306  0.000000      0.006667
  0.360544  0.278912  0.000000      0.006667
  0.353741  0.292517  0.000000      0.006667
  0.346939  0.306122  0.000000      0.006667
  0.340136  0.319728  0.000000      0.006667
  0.333333  0.333333  0.000000      0.006667
  0.333333  0.333333  0.000000      0.006667
  0.326531  0.326531  0.000000      0.006667
  0.319728  0.319728  0.000000      0.006667
  0.312925  0.312925  0.000000      0.006667
  0.306122  0.306122  0.000000      0.006667
  0.299320  0.299320  0.000000      0.006667
  0.292517  0.292517  0.000000      0.006667
  0.285714  0.285714  0.000000      0.006667
  0.278912  0.278912  0.000000      0.006667
  0.272109  0.272109  0.000000      0.006667
  0.265306  0.265306  0.000000      0.006667
  0.258503  0.258503  0.000000      0.006667
  0.251701  0.251701  0.000000      0.006667
  0.244898  0.244898  0.000000      0.006667
  0.238095  0.238095  0.000000      0.006667
  0.231293  0.231293  0.000000      0.006667
  0.224490  0.224490  0.000000      0.006667
  0.217687  0.217687  0.000000      0.006667
  0.210884  0.210884  0.000000      0.006667
  0.204082  0.204082  0.000000      0.006667
  0.197279  0.197279  0.000000      0.006667
  0.190476  0.190476  0.000000      0.006667
  0.183673  0.183673  0.000000      0.006667
  0.176871  0.176871  0.000000      0.006667
  0.170068  0.170068  0.000000      0.006667
  0.163265  0.163265  0.000000      0.006667
  0.156463  0.156463  0.000000      0.006667
  0.149660  0.149660  0.000000      0.006667
  0.142857  0.142857  0.000000      0.006667
  0.136054  0.136054  0.000000      0.006667
  0.129252  0.129252  0.000000      0.006667
  0.122449  0.122449  0.000000      0.006667
  0.115646  0.115646  0.000000      0.006667
  0.108844  0.108844  0.000000      0.006667
  0.102041  0.102041  0.000000      0.006667
  0.095238  0.095238  0.000000      0.006667
  0.088435  0.088435  0.000000      0.006667
  0.081633  0.081633  0.000000      0.006667
  0.074830  0.074830  0.000000      0.006667
  0.068027  0.068027  0.000000      0.006667
  0.061224  0.061224  0.000000      0.006667
  0.054422  0.054422  0.000000      0.006667
  0.047619  0.047619  0.000000      0.006667
  0.040816  0.040816  0.000000      0.006667
  0.034014  0.034014  0.000000      0.006667
  0.027211  0.027211  0.000000      0.006667
  0.020408  0.020408  0.000000      0.006667
  0.013605  0.013605  0.000000      0.006667
  0.006803  0.006803  0.000000      0.006667
  0.000000  0.000000  0.000000      0.006667

 Following cartesian coordinates:
            Coordinates               Weight
  0.000000  0.000000  0.000000      0.006667
  0.003772  0.000000  0.000000      0.006667
  0.007544  0.000000  0.000000      0.006667
  0.011316  0.000000  0.000000      0.006667
  0.015088  0.000000  0.000000      0.006667
  0.018860  0.000000  0.000000      0.006667
  0.022632  0.000000  0.000000      0.006667
  0.026404  0.000000  0.000000      0.006667
  0.030177  0.000000  0.000000      0.006667
  0.033949  0.000000  0.000000      0.006667
  0.037721  0.000000  0.000000      0.006667
  0.041493  0.000000  0.000000      0.006667
  0.045265  0.000000  0.000000      0.006667
  0.049037  0.000000  0.000000      0.006667
  0.052809  0.000000  0.000000      0.006667
  0.056581  0.000000  0.000000      0.006667
  0.060353  0.000000  0.000000      0.006667
  0.064125  0.000000  0.000000      0.006667
  0.067897  0.000000  0.000000      0.006667
  0.071669  0.000000  0.000000      0.006667
  0.075441  0.000000  0.000000      0.006667
  0.079213  0.000000  0.000000      0.006667
  0.082985  0.000000  0.000000      0.006667
  0.086758  0.000000  0.000000      0.006667
  0.090530  0.000000  0.000000      0.006667
  0.094302  0.000000  0.000000      0.006667
  0.098074  0.000000  0.000000      0.006667
  0.101846  0.000000  0.000000      0.006667
  0.105618  0.000000  0.000000      0.006667
  0.109390  0.000000  0.000000      0.006667
  0.113162  0.000000  0.000000      0.006667
  0.116934  0.000000  0.000000      0.006667
  0.120706  0.000000  0.000000      0.006667
  0.124478  0.000000  0.000000      0.006667
  0.128250  0.000000  0.000000      0.006667
  0.132022  0.000000  0.000000      0.006667
  0.135794  0.000000  0.000000      0.006667
  0.139566  0.000000  0.000000      0.006667
  0.143339  0.000000  0.000000      0.006667
  0.147111  0.000000  0.000000      0.006667
  0.150883  0.000000  0.000000      0.006667
  0.154655  0.000000  0.000000      0.006667
  0.158427  0.000000  0.000000      0.006667
  0.162199  0.000000  0.000000      0.006667
  0.165971  0.000000  0.000000      0.006667
  0.169743  0.000000  0.000000      0.006667
  0.173515  0.000000  0.000000      0.006667
  0.177287  0.000000  0.000000      0.006667
  0.181059  0.000000  0.000000      0.006667
  0.184831  0.000000  0.000000      0.006667
  0.184831  0.000000  0.000000      0.006667
  0.182945  0.003267  0.000000      0.006667
  0.181059  0.006533  0.000000      0.006667
  0.179173  0.009800  0.000000      0.006667
  0.177287  0.013067  0.000000      0.006667
  0.175401  0.016334  0.000000      0.006667
  0.173515  0.019600  0.000000      0.006667
  0.171629  0.022867  0.000000      0.006667
  0.169743  0.026134  0.000000      0.006667
  0.167857  0.029400  0.000000      0.006667
  0.165971  0.032667  0.000000      0.006667
  0.164085  0.035934  0.000000      0.006667
  0.162199  0.039200  0.000000      0.006667
  0.160313  0.042467  0.000000      0.006667
  0.158427  0.045734  0.000000      0.006667
  0.156541  0.049001  0.000000      0.006667
  0.154655  0.052267  0.000000      0.006667
  0.152769  0.055534  0.000000      0.006667
  0.150883  0.058801  0.000000      0.006667
  0.148997  0.062067  0.000000      0.006667
  0.147111  0.065334  0.000000      0.006667
  0.145225  0.068601  0.000000      0.006667
  0.143339  0.071868  0.000000      0.006667
  0.141453  0.075134  0.000000      0.006667
  0.139566  0.078401  0.000000      0.006667
  0.137680  0.081668  0.000000      0.006667
  0.135794  0.084934  0.000000      0.006667
  0.133908  0.088201  0.000000      0.006667
  0.132022  0.091468  0.000000      0.006667
  0.130136  0.094734  0.000000      0.006667
  0.128250  0.098001  0.000000      0.006667
  0.126364  0.101268  0.000000      0.006667
  0.124478  0.104535  0.000000      0.006667
  0.122592  0.107801  0.000000      0.006667
  0.120706  0.111068  0.000000      0.006667
  0.118820  0.114335  0.000000      0.006667
  0.116934  0.117601  0.000000      0.006667
  0.115048  0.120868  0.000000      0.006667
  0.113162  0.124135  0.000000      0.006667
  0.111276  0.127402  0.000000      0.006667
  0.109390  0.130668  0.000000      0.006667
  0.107504  0.133935  0.000000      0.006667
  0.105618  0.137202  0.000000      0.006667
  0.103732  0.140468  0.000000      0.006667
  0.101846  0.143735  0.000000      0.006667
  0.099960  0.147002  0.000000      0.006667
  0.098074  0.150268  0.000000      0.006667
  0.096188  0.153535  0.000000      0.006667
  0.094302  0.156802  0.000000      0.006667
  0.092416  0.160069  0.000000      0.006667
  0.092416  0.160069  0.000000      0.006667
  0.090530  0.156802  0.000000      0.006667
  0.088644  0.153535  0.000000      0.006667
  0.086758  0.150268  0.000000      0.006667
  0.084872  0.147002  0.000000      0.006667
  0.082985  0.143735  0.000000      0.006667
  0.081099  0.140468  0.000000      0.006667
  0.079213  0.137202  0.000000      0.006667
  0.077327  0.133935  0.000000      0.006667
  0.075441  0.130668  0.000000      0.006667
  0.073555  0.127402  0.000000      0.006667
  0.071669  0.124135  0.000000      0.006667
  0.069783  0.120868  0.000000      0.006667
  0.067897  0.117601  0.000000      0.006667
  0.066011  0.114335  0.000000      0.006667
  0.064125  0.111068  0.000000      0.006667
  0.062239  0.107801  0.000000      0.006667
  0.060353  0.104535  0.000000      0.006667
  0.058467  0.101268  0.000000      0.006667
  0.056581  0.098001  0.000000      0.006667
  0.054695  0.094734  0.000000      0.006667
  0.052809  0.091468  0.000000      0.006667
  0.050923  0.088201  0.000000      0.006667
  0.049037  0.084934  0.000000      0.006667
  0.047151  0.081668  0.000000      0.006667
  0.045265  0.078401  0.000000      0.006667
  0.043379  0.075134  0.000000      0.006667
  0.041493  0.071868  0.000000      0.006667
  0.039607  0.068601  0.000000      0.006667
  0.037721  0.065334  0.000000      0.006667
  0.035835  0.062067  0.000000      0.006667
  0.033949  0.058801  0.000000      0.006667
  0.032063  0.055534  0.000000      0.006667
  0.030177  0.052267  0.000000      0.006667
  0.028291  0.049001  0.000000      0.006667
  0.026404  0.045734  0.000000      0.006667
  0.024518  0.042467  0.000000      0.006667
  0.022632  0.039200  0.000000      0.006667
  0.020746  0.035934  0.000000      0.006667
  0.018860  0.032667  0.000000      0.006667
  0.016974  0.029400  0.000000      0.006667
  0.015088  0.026134  0.000000      0.006667
  0.013202  0.022867  0.000000      0.006667
  0.011316  0.019600  0.000000      0.006667
  0.009430  0.016334  0.000000      0.006667
  0.007544  0.013067  0.000000      0.006667
  0.005658  0.009800  0.000000      0.006667
  0.003772  0.006533  0.000000      0.006667
  0.001886  0.003267  0.000000      0.006667
  0.000000  0.000000  0.000000      0.006667
 


--------------------------------------------------------------------------------------------------------




 Dimension of arrays:
   k-points           NKPTS =    150   k-points in BZ     NKDIM =    150   number of bands    NBANDS=     32
   number of dos      NEDOS =   6001   number of ions     NIONS =      2
   non local maximal  LDIM  =      5   non local SUM 2l+1 LMDIM =     13
   total plane-waves  NPLWV =  25920
   max r-space proj   IRMAX =      1   max aug-charges    IRDMAX=  47793
   dimension x,y,z NGX =    18 NGY =   18 NGZ =   80
   dimension x,y,z NGXF=    36 NGYF=   36 NGZF=  160
   support grid    NGXF=    72 NGYF=   72 NGZF=  320
   ions per type =               2
   NGX,Y,Z   is equivalent  to a cutoff of   8.30,  8.30,  8.31 a.u.
   NGXF,Y,Z  is equivalent  to a cutoff of  16.59, 16.59, 16.62 a.u.

 SYSTEM =  unknown system                          
 POSCAR =  pnictogen honeycomb monolayer           

 Startparameter for this run:
   NWRITE =      1    write-flag & timer
   PREC   = accura    normal or accurate (medium, high low for compatibility)
   ISTART =      0    job   : 0-new  1-cont  2-samecut
   ICHARG =     11    charge: 1-file 2-atom 10-const
   ISPIN  =      1    spin polarized calculation?
   LNONCOLLINEAR =      T non collinear calculations
   LSORBIT =      T    spin-orbit coupling
   INIWAV =      1    electr: 0-lowe 1-rand  2-diag
   LASPH  =      T    aspherical Exc in radial PAW
 Electronic Relaxation 1
   ENCUT  =  234.8 eV  17.26 Ry    4.15 a.u.   4.51  4.51 19.99*2*pi/ulx,y,z
   ENINI  =  234.8     initial cutoff
   ENAUG  =  462.8 eV  augmentation charge cutoff
   NELM   =    200;   NELMIN=  6; NELMDL=-12     # of ELM steps 
   EDIFF  = 0.1E-05   stopping-criterion for ELM
   LREAL  =      F    real-space projection
   NLSPLINE    = F    spline interpolate recip. space projectors
   LCOMPAT=      F    compatible to vasp.4.4
   GGA_COMPAT  = T    GGA compatible to vasp.4.4-vasp.4.6
   LMAXPAW     = -100 max onsite density
   LMAXMIX     =    2 max onsite mixed and CHGCAR
   VOSKOWN=      0    Vosko Wilk Nusair interpolation
   ROPT   =    0.00000
 Ionic relaxation
   EDIFFG = -.1E-01   stopping-criterion for IOM
   NSW    =      0    number of steps for IOM
   NBLOCK =      1;   KBLOCK =      1    inner block; outer block 
   IBRION =     -1    ionic relax: 0-MD 1-quasi-New 2-CG
   NFREE  =      1    steps in history (QN), initial steepest desc. (CG)
   ISIF   =     -1    stress and relaxation
   IWAVPR =     10    prediction:  0-non 1-charg 2-wave 3-comb
   ISYM   =      2    0-nonsym 1-usesym 2-fastsym
   LCORR  =      T    Harris-Foulkes like correction to forces

   POTIM  = 0.5000    time-step for ionic-motion
   TEIN   =    0.0    initial temperature
   TEBEG  =    0.0;   TEEND  =   0.0 temperature during run
   SMASS  =  -3.00    Nose mass-parameter (am)
   estimated Nose-frequenzy (Omega)   =  0.10E-29 period in steps = 0.13E+47 mass=  -0.297E-27a.u.
   SCALEE = 1.0000    scale energy and forces
   NPACO  =    256;   APACO  = 10.0  distance and # of slots for P.C.
   PSTRESS=    0.0 pullay stress

  Mass of Ions in am
   POMASS =  74.92
  Ionic Valenz
   ZVAL   =   5.00
  Atomic Wigner-Seitz radii
   RWIGS  =  -1.00
  virtual crystal weights 
   VCA    =   1.00
   NELECT =      10.0000    total number of electrons
   NUPDOWN=      -1.0000    fix difference up-down

 DOS related values:
   EMIN   =  10.00;   EMAX   =-10.00  energy-range for DOS
   EFERMI =   0.00;   METHOD = LEGACY      
   ISMEAR =     0;   SIGMA  =   0.01  broadening in eV -4-tet -1-fermi 0-gaus

 Electronic relaxation 2 (details)
   IALGO  =     38    algorithm
   LDIAG  =      T    sub-space diagonalisation (order eigenvalues)
   LSUBROT=      F    optimize rotation matrix (better conditioning)
   TURBO    =      0    0=normal 1=particle mesh
   IRESTART =      0    0=no restart 2=restart with 2 vectors
   NREBOOT  =      0    no. of reboots
   NMIN     =      0    reboot dimension
   EREF     =   0.00    reference energy to select bands
   IMIX   =      4    mixing-type and parameters
     AMIX     =   0.10;   BMIX     =  0.00
     AMIX_MAG =   0.40;   BMIX_MAG =  0.00
     AMIN     =   0.10
     WC   =   100.;   INIMIX=   1;  MIXPRE=   1;  MAXMIX= -45

 Intra band minimization:
   WEIMIN = 0.0000     energy-eigenvalue tresh-hold
   EBREAK =  0.78E-08  absolut break condition
   DEPER  =   0.30     relativ break condition  

   TIME   =   0.40     timestep for ELM

  volume/ion in A,a.u.               =      90.13       608.25
  Fermi-wavevector in a.u.,A,eV,Ry     =   0.624361  1.179871  5.303915  0.389827
  Thomas-Fermi vector in A             =   1.684891
 
 Write flags
   LWAVE        =      F    write WAVECAR
   LDOWNSAMPLE  =      F    k-point downsampling of WAVECAR
   LCHARG       =      F    write CHGCAR
   LVTOT        =      F    write LOCPOT, total local potential
   LVHAR        =      F    write LOCPOT, Hartree potential only
   LELF         =      F    write electronic localiz. function (ELF)
   LORBIT       =     10    0 simple, 1 ext, 2 COOP (PROOUT), +10 PAW based schemes


 Dipole corrections
   LMONO  =      F    monopole corrections only (constant potential shift)
   LDIPOL =      F    correct potential (dipole corrections)
   IDIPOL =      0    1-x, 2-y, 3-z, 4-all directions 
   EPSILON=  1.0000000 bulk dielectric constant

 Exchange correlation treatment:
   GGA     =    --    GGA type
   LEXCH   =     8    internal setting for exchange type
   LIBXC   =     F    Libxc                    
   VOSKOWN =     0    Vosko Wilk Nusair interpolation
   LHFCALC =     F    Hartree Fock is set to
   LHFONE  =     F    Hartree Fock one center treatment
   AEXX    =    0.0000 exact exchange contribution

 Linear response parameters
   LEPSILON=     F    determine dielectric tensor
   LRPA    =     F    only Hartree local field effects (RPA)
   LNABLA  =     F    use nabla operator in PAW spheres
   LVEL    =     F    velocity operator in full k-point grid
   CSHIFT  =0.1000    complex shift for real part using Kramers Kronig
   OMEGAMAX=  -1.0    maximum frequency
   DEG_THRESHOLD= 0.2000000E-02 threshold for treating states as degnerate
   RTIME   =   -0.100 relaxation time in fs
  (WPLASMAI=    0.000 imaginary part of plasma frequency in eV, 0.658/RTIME)
   DFIELD  = 0.0000000 0.0000000 0.0000000 field for delta impulse in time
 
  Optional k-point grid parameters
   LKPOINTS_OPT  =     F    use optional k-point grid
   KPOINTS_OPT_MODE=     1    mode for optional k-point grid
 
 Orbital magnetization related:
   ORBITALMAG=     F  switch on orbital magnetization
   LCHIMAG   =     F  perturbation theory with respect to B field
   DQ        =  0.001000  dq finite difference perturbation B field
   LLRAUG    =     F  two centre corrections for induced B field
   LBONE     =     F  B-component reconstruction in AE one-centre
   LVGVCALC  =     T  calculate vGv susceptibility
   LVGVAPPL  =     F  apply vGv susceptibility instead of pGv for G=0

 Random number generation:
   RANDOM_GENERATOR = DEFAULT
   PCG_SEED         = not used


--------------------------------------------------------------------------------------------------------


 Static calculation
 charge density and potential remain constant during run
 non collinear spin polarized calculation
 Variant of blocked Davidson
 Davidson routine will perform the subspace rotation
 perform sub-space diagonalisation
    after iterative eigenvector-optimisation
 no mixing
 using additional bands           27
 reciprocal scheme for non local part
 use partial core corrections
 calculate Harris-corrections to forces 
   (improved forces if not selfconsistent)
 use gradient corrections 
 WARNING: stress and forces are not correct
  (second derivative of E(xc) not defined)
 use of overlap-Matrix (Vanderbilt PP)
 Gauss-broadening in eV      SIGMA  =   0.01


--------------------------------------------------------------------------------------------------------


  energy-cutoff  :      234.79
  volume of cell :      180.27
      direct lattice vectors                 reciprocal lattice vectors
     3.606892539  0.000000000  0.000000000     0.277246962  0.160068608  0.000000000
    -1.803446269  3.123660567  0.000000000     0.000000000  0.320137217  0.000000000
     0.000000000  0.000000000 16.000000000     0.000000000  0.000000000  0.062500000

  length of vectors
     3.606892539  3.606892539 16.000000000     0.320137217  0.320137217  0.062500000


 
 k-points in units of 2pi/SCALE and weight: kpoints along symmetry lines            
   0.00000000  0.00000000  0.00000000       0.007
   0.00377207  0.00000000  0.00000000       0.007
   0.00754414  0.00000000  0.00000000       0.007
   0.01131620  0.00000000  0.00000000       0.007
   0.01508827  0.00000000  0.00000000       0.007
   0.01886034  0.00000000  0.00000000       0.007
   0.02263241  0.00000000  0.00000000       0.007
   0.02640447  0.00000000  0.00000000       0.007
   0.03017654  0.00000000  0.00000000       0.007
   0.03394861  0.00000000  0.00000000       0.007
   0.03772068  0.00000000  0.00000000       0.007
   0.04149274  0.00000000  0.00000000       0.007
   0.04526481  0.00000000  0.00000000       0.007
   0.04903688  0.00000000  0.00000000       0.007
   0.05280895  0.00000000  0.00000000       0.007
   0.05658101  0.00000000  0.00000000       0.007
   0.06035308  0.00000000  0.00000000       0.007
   0.06412515  0.00000000  0.00000000       0.007
   0.06789722  0.00000000  0.00000000       0.007
   0.07166928  0.00000000  0.00000000       0.007
   0.07544135  0.00000000  0.00000000       0.007
   0.07921342  0.00000000  0.00000000       0.007
   0.08298549  0.00000000  0.00000000       0.007
   0.08675755  0.00000000  0.00000000       0.007
   0.09052962  0.00000000  0.00000000       0.007
   0.09430169  0.00000000  0.00000000       0.007
   0.09807376  0.00000000  0.00000000       0.007
   0.10184582  0.00000000  0.00000000       0.007
   0.10561789  0.00000000  0.00000000       0.007
   0.10938996  0.00000000  0.00000000       0.007
   0.11316203  0.00000000  0.00000000       0.007
   0.11693409  0.00000000  0.00000000       0.007
   0.12070616  0.00000000  0.00000000       0.007
   0.12447823  0.00000000  0.00000000       0.007
   0.12825030  0.00000000  0.00000000       0.007
   0.13202236  0.00000000  0.00000000       0.007
   0.13579443  0.00000000  0.00000000       0.007
   0.13956650  0.00000000  0.00000000       0.007
   0.14333857  0.00000000  0.00000000       0.007
   0.14711063  0.00000000  0.00000000       0.007
   0.15088270  0.00000000  0.00000000       0.007
   0.15465477  0.00000000  0.00000000       0.007
   0.15842684  0.00000000  0.00000000       0.007
   0.16219890  0.00000000  0.00000000       0.007
   0.16597097  0.00000000  0.00000000       0.007
   0.16974304  0.00000000  0.00000000       0.007
   0.17351511  0.00000000  0.00000000       0.007
   0.17728717  0.00000000  0.00000000       0.007
   0.18105924  0.00000000  0.00000000       0.007
   0.18483131  0.00000000  0.00000000       0.007
   0.18483131  0.00000000  0.00000000       0.007
   0.18294527  0.00326671  0.00000000       0.007
   0.18105924  0.00653341  0.00000000       0.007
   0.17917321  0.00980012  0.00000000       0.007
   0.17728717  0.01306683  0.00000000       0.007
   0.17540114  0.01633353  0.00000000       0.007
   0.17351511  0.01960024  0.00000000       0.007
   0.17162907  0.02286694  0.00000000       0.007
   0.16974304  0.02613365  0.00000000       0.007
   0.16785700  0.02940036  0.00000000       0.007
   0.16597097  0.03266706  0.00000000       0.007
   0.16408494  0.03593377  0.00000000       0.007
   0.16219890  0.03920048  0.00000000       0.007
   0.16031287  0.04246718  0.00000000       0.007
   0.15842684  0.04573389  0.00000000       0.007
   0.15654080  0.04900059  0.00000000       0.007
   0.15465477  0.05226730  0.00000000       0.007
   0.15276873  0.05553401  0.00000000       0.007
   0.15088270  0.05880071  0.00000000       0.007
   0.14899667  0.06206742  0.00000000       0.007
   0.14711063  0.06533413  0.00000000       0.007
   0.14522460  0.06860083  0.00000000       0.007
   0.14333857  0.07186754  0.00000000       0.007
   0.14145253  0.07513424  0.00000000       0.007
   0.13956650  0.07840095  0.00000000       0.007
   0.13768046  0.08166766  0.00000000       0.007
   0.13579443  0.08493436  0.00000000       0.007
   0.13390840  0.08820107  0.00000000       0.007
   0.13202236  0.09146778  0.00000000       0.007
   0.13013633  0.09473448  0.00000000       0.007
   0.12825030  0.09800119  0.00000000       0.007
   0.12636426  0.10126790  0.00000000       0.007
   0.12447823  0.10453460  0.00000000       0.007
   0.12259219  0.10780131  0.00000000       0.007
   0.12070616  0.11106801  0.00000000       0.007
   0.11882013  0.11433472  0.00000000       0.007
   0.11693409  0.11760143  0.00000000       0.007
   0.11504806  0.12086813  0.00000000       0.007
   0.11316203  0.12413484  0.00000000       0.007
   0.11127599  0.12740155  0.00000000       0.007
   0.10938996  0.13066825  0.00000000       0.007
   0.10750392  0.13393496  0.00000000       0.007
   0.10561789  0.13720166  0.00000000       0.007
   0.10373186  0.14046837  0.00000000       0.007
   0.10184582  0.14373508  0.00000000       0.007
   0.09995979  0.14700178  0.00000000       0.007
   0.09807376  0.15026849  0.00000000       0.007
   0.09618772  0.15353520  0.00000000       0.007
   0.09430169  0.15680190  0.00000000       0.007
   0.09241565  0.16006861  0.00000000       0.007
   0.09241565  0.16006861  0.00000000       0.007
   0.09052962  0.15680190  0.00000000       0.007
   0.08864359  0.15353520  0.00000000       0.007
   0.08675755  0.15026849  0.00000000       0.007
   0.08487152  0.14700178  0.00000000       0.007
   0.08298549  0.14373508  0.00000000       0.007
   0.08109945  0.14046837  0.00000000       0.007
   0.07921342  0.13720166  0.00000000       0.007
   0.07732738  0.13393496  0.00000000       0.007
   0.07544135  0.13066825  0.00000000       0.007
   0.07355532  0.12740155  0.00000000       0.007
   0.07166928  0.12413484  0.00000000       0.007
   0.06978325  0.12086813  0.00000000       0.007
   0.06789722  0.11760143  0.00000000       0.007
   0.06601118  0.11433472  0.00000000       0.007
   0.06412515  0.11106801  0.00000000       0.007
   0.06223911  0.10780131  0.00000000       0.007
   0.06035308  0.10453460  0.00000000       0.007
   0.05846705  0.10126790  0.00000000       0.007
   0.05658101  0.09800119  0.00000000       0.007
   0.05469498  0.09473448  0.00000000       0.007
   0.05280895  0.09146778  0.00000000       0.007
   0.05092291  0.08820107  0.00000000       0.007
   0.04903688  0.08493436  0.00000000       0.007
   0.04715084  0.08166766  0.00000000       0.007
   0.04526481  0.07840095  0.00000000       0.007
   0.04337878  0.07513424  0.00000000       0.007
   0.04149274  0.07186754  0.00000000       0.007
   0.03960671  0.06860083  0.00000000       0.007
   0.03772068  0.06533413  0.00000000       0.007
   0.03583464  0.06206742  0.00000000       0.007
   0.03394861  0.05880071  0.00000000       0.007
   0.03206257  0.05553401  0.00000000       0.007
   0.03017654  0.05226730  0.00000000       0.007
   0.02829051  0.04900059  0.00000000       0.007
   0.02640447  0.04573389  0.00000000       0.007
   0.02451844  0.04246718  0.00000000       0.007
   0.02263241  0.03920048  0.00000000       0.007
   0.02074637  0.03593377  0.00000000       0.007
   0.01886034  0.03266706  0.00000000       0.007
   0.01697430  0.02940036  0.00000000       0.007
   0.01508827  0.02613365  0.00000000       0.007
   0.01320224  0.02286694  0.00000000       0.007
   0.01131620  0.01960024  0.00000000       0.007
   0.00943017  0.01633353  0.00000000       0.007
   0.00754414  0.01306683  0.00000000       0.007
   0.00565810  0.00980012  0.00000000       0.007
   0.00377207  0.00653341  0.00000000       0.007
   0.00188603  0.00326671  0.00000000       0.007
   0.00000000  0.00000000  0.00000000       0.007
 
 k-points in reciprocal lattice and weights: kpoints along symmetry lines            
   0.00000000  0.00000000  0.00000000       0.007
   0.01360544 -0.00680272  0.00000000       0.007
   0.02721088 -0.01360544  0.00000000       0.007
   0.04081633 -0.02040816  0.00000000       0.007
   0.05442177 -0.02721088  0.00000000       0.007
   0.06802721 -0.03401361  0.00000000       0.007
   0.08163265 -0.04081633  0.00000000       0.007
   0.09523810 -0.04761905  0.00000000       0.007
   0.10884354 -0.05442177  0.00000000       0.007
   0.12244898 -0.06122449  0.00000000       0.007
   0.13605442 -0.06802721  0.00000000       0.007
   0.14965986 -0.07482993  0.00000000       0.007
   0.16326531 -0.08163265  0.00000000       0.007
   0.17687075 -0.08843537  0.00000000       0.007
   0.19047619 -0.09523810  0.00000000       0.007
   0.20408163 -0.10204082  0.00000000       0.007
   0.21768707 -0.10884354  0.00000000       0.007
   0.23129252 -0.11564626  0.00000000       0.007
   0.24489796 -0.12244898  0.00000000       0.007
   0.25850340 -0.12925170  0.00000000       0.007
   0.27210884 -0.13605442  0.00000000       0.007
   0.28571429 -0.14285714  0.00000000       0.007
   0.29931973 -0.14965986  0.00000000       0.007
   0.31292517 -0.15646259  0.00000000       0.007
   0.32653061 -0.16326531  0.00000000       0.007
   0.34013605 -0.17006803  0.00000000       0.007
   0.35374150 -0.17687075  0.00000000       0.007
   0.36734694 -0.18367347  0.00000000       0.007
   0.38095238 -0.19047619  0.00000000       0.007
   0.39455782 -0.19727891  0.00000000       0.007
   0.40816327 -0.20408163  0.00000000       0.007
   0.42176871 -0.21088435  0.00000000       0.007
   0.43537415 -0.21768707  0.00000000       0.007
   0.44897959 -0.22448980  0.00000000       0.007
   0.46258503 -0.23129252  0.00000000       0.007
   0.47619048 -0.23809524  0.00000000       0.007
   0.48979592 -0.24489796  0.00000000       0.007
   0.50340136 -0.25170068  0.00000000       0.007
   0.51700680 -0.25850340  0.00000000       0.007
   0.53061224 -0.26530612  0.00000000       0.007
   0.54421769 -0.27210884  0.00000000       0.007
   0.55782313 -0.27891156  0.00000000       0.007
   0.57142857 -0.28571429  0.00000000       0.007
   0.58503401 -0.29251701  0.00000000       0.007
   0.59863946 -0.29931973  0.00000000       0.007
   0.61224490 -0.30612245  0.00000000       0.007
   0.62585034 -0.31292517  0.00000000       0.007
   0.63945578 -0.31972789  0.00000000       0.007
   0.65306122 -0.32653061  0.00000000       0.007
   0.66666667 -0.33333333  0.00000000       0.007
   0.66666667 -0.33333333  0.00000000       0.007
   0.65986395 -0.31972789  0.00000000       0.007
   0.65306122 -0.30612245  0.00000000       0.007
   0.64625850 -0.29251701  0.00000000       0.007
   0.63945578 -0.27891156  0.00000000       0.007
   0.63265306 -0.26530612  0.00000000       0.007
   0.62585034 -0.25170068  0.00000000       0.007
   0.61904762 -0.23809524  0.00000000       0.007
   0.61224490 -0.22448980  0.00000000       0.007
   0.60544218 -0.21088435  0.00000000       0.007
   0.59863946 -0.19727891  0.00000000       0.007
   0.59183673 -0.18367347  0.00000000       0.007
   0.58503401 -0.17006803  0.00000000       0.007
   0.57823129 -0.15646259  0.00000000       0.007
   0.57142857 -0.14285714  0.00000000       0.007
   0.56462585 -0.12925170  0.00000000       0.007
   0.55782313 -0.11564626  0.00000000       0.007
   0.55102041 -0.10204082  0.00000000       0.007
   0.54421769 -0.08843537  0.00000000       0.007
   0.53741497 -0.07482993  0.00000000       0.007
   0.53061224 -0.06122449  0.00000000       0.007
   0.52380952 -0.04761905  0.00000000       0.007
   0.51700680 -0.03401361  0.00000000       0.007
   0.51020408 -0.02040816  0.00000000       0.007
   0.50340136 -0.00680272  0.00000000       0.007
   0.49659864  0.00680272  0.00000000       0.007
   0.48979592  0.02040816  0.00000000       0.007
   0.48299320  0.03401361  0.00000000       0.007
   0.47619048  0.04761905  0.00000000       0.007
   0.46938776  0.06122449  0.00000000       0.007
   0.46258503  0.07482993  0.00000000       0.007
   0.45578231  0.08843537  0.00000000       0.007
   0.44897959  0.10204082  0.00000000       0.007
   0.44217687  0.11564626  0.00000000       0.007
   0.43537415  0.12925170  0.00000000       0.007
   0.42857143  0.14285714  0.00000000       0.007
   0.42176871  0.15646259  0.00000000       0.007
   0.41496599  0.17006803  0.00000000       0.007
   0.40816327  0.18367347  0.00000000       0.007
   0.40136054  0.19727891  0.00000000       0.007
   0.39455782  0.21088435  0.00000000       0.007
   0.38775510  0.22448980  0.00000000       0.007
   0.38095238  0.23809524  0.00000000       0.007
   0.37414966  0.25170068  0.00000000       0.007
   0.36734694  0.26530612  0.00000000       0.007
   0.36054422  0.27891156  0.00000000       0.007
   0.35374150  0.29251701  0.00000000       0.007
   0.34693878  0.30612245  0.00000000       0.007
   0.34013605  0.31972789  0.00000000       0.007
   0.33333333  0.33333333  0.00000000       0.007
   0.33333333  0.33333333  0.00000000       0.007
   0.32653061  0.32653061  0.00000000       0.007
   0.31972789  0.31972789  0.00000000       0.007
   0.31292517  0.31292517  0.00000000       0.007
   0.30612245  0.30612245  0.00000000       0.007
   0.29931973  0.29931973  0.00000000       0.007
   0.29251701  0.29251701  0.00000000       0.007
   0.28571429  0.28571429  0.00000000       0.007
   0.27891156  0.27891156  0.00000000       0.007
   0.27210884  0.27210884  0.00000000       0.007
   0.26530612  0.26530612  0.00000000       0.007
   0.25850340  0.25850340  0.00000000       0.007
   0.25170068  0.25170068  0.00000000       0.007
   0.24489796  0.24489796  0.00000000       0.007
   0.23809524  0.23809524  0.00000000       0.007
   0.23129252  0.23129252  0.00000000       0.007
   0.22448980  0.22448980  0.00000000       0.007
   0.21768707  0.21768707  0.00000000       0.007
   0.21088435  0.21088435  0.00000000       0.007
   0.20408163  0.20408163  0.00000000       0.007
   0.19727891  0.19727891  0.00000000       0.007
   0.19047619  0.19047619  0.00000000       0.007
   0.18367347  0.18367347  0.00000000       0.007
   0.17687075  0.17687075  0.00000000       0.007
   0.17006803  0.17006803  0.00000000       0.007
   0.16326531  0.16326531  0.00000000       0.007
   0.15646259  0.15646259  0.00000000       0.007
   0.14965986  0.14965986  0.00000000       0.007
   0.14285714  0.14285714  0.00000000       0.007
   0.13605442  0.13605442  0.00000000       0.007
   0.12925170  0.12925170  0.00000000       0.007
   0.12244898  0.12244898  0.00000000       0.007
   0.11564626  0.11564626  0.00000000       0.007
   0.10884354  0.10884354  0.00000000       0.007
   0.10204082  0.10204082  0.00000000       0.007
   0.09523810  0.09523810  0.00000000       0.007
   0.08843537  0.08843537  0.00000000       0.007
   0.08163265  0.08163265  0.00000000       0.007
   0.07482993  0.07482993  0.00000000       0.007
   0.06802721  0.06802721  0.00000000       0.007
   0.06122449  0.06122449  0.00000000       0.007
   0.05442177  0.05442177  0.00000000       0.007
   0.04761905  0.04761905  0.00000000       0.007
   0.04081633  0.04081633  0.00000000       0.007
   0.03401361  0.03401361  0.00000000       0.007
   0.02721088  0.02721088  0.00000000       0.007
   0.02040816  0.02040816  0.00000000       0.007
   0.01360544  0.01360544  0.00000000       0.007
   0.00680272  0.00680272  0.00000000       0.007
   0.00000000  0.00000000  0.00000000       0.007
 
 position of ions in fractional coordinates (direct lattice) 
   0.66666667  0.33333333  0.45634314
   0.33333333  0.66666667  0.54365686
 
 position of ions in cartesian coordinates  (Angst):
   1.80344627  1.04122019  7.30149017
   0.00000000  2.08244038  8.69850983
 
 Euler angles ALPHA=     0.0000000  BETA=     0.0000000

 transformation matrix from SAXIS to cartesian coordinates
 ---------------------------------------------------------
     1.0000000 m_x     0.0000000 m_y     0.0000000 m_z
     0.0000000 m_x     1.0000000 m_y     0.0000000 m_z
     0.0000000 m_x     0.0000000 m_y     1.0000000 m_z

 transformation matrix from cartesian coordinates to SAXIS
 ---------------------------------------------------------
     1.0000000 m_x     0.0000000 m_y     0.0000000 m_z
     0.0000000 m_x     1.0000000 m_y     0.0000000 m_z
     0.0000000 m_x     0.0000000 m_y     1.0000000 m_z




--------------------------------------------------------------------------------------------------------


 k-point   1 :   0.0000 0.0000 0.0000  plane waves:    2970
 k-point   2 :   0.0136-0.0068 0.0000  plane waves:    2970
 k-point   3 :   0.0272-0.0136 0.0000  plane waves:    2966
 k-point   4 :   0.0408-0.0204 0.0000  plane waves:    2978
 k-point   5 :   0.0544-0.0272 0.0000  plane waves:    2986
 k-point   6 :   0.0680-0.0340 0.0000  plane waves:    2978
 k-point   7 :   0.0816-0.0408 0.0000  plane waves:    2970
 k-point   8 :   0.0952-0.0476 0.0000  plane waves:    2978
 k-point   9 :   0.1088-0.0544 0.0000  plane waves:    2982
 k-point  10 :   0.1224-0.0612 0.0000  plane waves:    2990
 k-point  11 :   0.1361-0.0680 0.0000  plane waves:    2990
 k-point  12 :   0.1497-0.0748 0.0000  plane waves:    2998
 k-point  13 :   0.1633-0.0816 0.0000  plane waves:    3006
 k-point  14 :   0.1769-0.0884 0.0000  plane waves:    2998
 k-point  15 :   0.1905-0.0952 0.0000  plane waves:    2998
 k-point  16 :   0.2041-0.1020 0.0000  plane waves:    3014
 k-point  17 :   0.2177-0.1088 0.0000  plane waves:    3006
 k-point  18 :   0.2313-0.1156 0.0000  plane waves:    2994
 k-point  19 :   0.2449-0.1224 0.0000  plane waves:    2998
 k-point  20 :   0.2585-0.1293 0.0000  plane waves:    2990
 k-point  21 :   0.2721-0.1361 0.0000  plane waves:    2982
 k-point  22 :   0.2857-0.1429 0.0000  plane waves:    2982
 k-point  23 :   0.2993-0.1497 0.0000  plane waves:    2994
 k-point  24 :   0.3129-0.1565 0.0000  plane waves:    2986
 k-point  25 :   0.3265-0.1633 0.0000  plane waves:    2986
 k-point  26 :   0.3401-0.1701 0.0000  plane waves:    2978
 k-point  27 :   0.3537-0.1769 0.0000  plane waves:    2954
 k-point  28 :   0.3673-0.1837 0.0000  plane waves:    2954
 k-point  29 :   0.3810-0.1905 0.0000  plane waves:    2958
 k-point  30 :   0.3946-0.1973 0.0000  plane waves:    2950
 k-point  31 :   0.4082-0.2041 0.0000  plane waves:    2954
 k-point  32 :   0.4218-0.2109 0.0000  plane waves:    2950
 k-point  33 :   0.4354-0.2177 0.0000  plane waves:    2942
 k-point  34 :   0.4490-0.2245 0.0000  plane waves:    2934
 k-point  35 :   0.4626-0.2313 0.0000  plane waves:    2918
 k-point  36 :   0.4762-0.2381 0.0000  plane waves:    2918
 k-point  37 :   0.4898-0.2449 0.0000  plane waves:    2914
 k-point  38 :   0.5034-0.2517 0.0000  plane waves:    2902
 k-point  39 :   0.5170-0.2585 0.0000  plane waves:    2900
 k-point  40 :   0.5306-0.2653 0.0000  plane waves:    2892
 k-point  41 :   0.5442-0.2721 0.0000  plane waves:    2904
 k-point  42 :   0.5578-0.2789 0.0000  plane waves:    2896
 k-point  43 :   0.5714-0.2857 0.0000  plane waves:    2896
 k-point  44 :   0.5850-0.2925 0.0000  plane waves:    2924
 k-point  45 :   0.5986-0.2993 0.0000  plane waves:    2948
 k-point  46 :   0.6122-0.3061 0.0000  plane waves:    2952
 k-point  47 :   0.6259-0.3129 0.0000  plane waves:    2952
 k-point  48 :   0.6395-0.3197 0.0000  plane waves:    2944
 k-point  49 :   0.6531-0.3265 0.0000  plane waves:    2928
 k-point  50 :   0.6667-0.3333 0.0000  plane waves:    2928
 k-point  51 :   0.6667-0.3333 0.0000  plane waves:    2928
 k-point  52 :   0.6599-0.3197 0.0000  plane waves:    2936
 k-point  53 :   0.6531-0.3061 0.0000  plane waves:    2936
 k-point  54 :   0.6463-0.2925 0.0000  plane waves:    2948
 k-point  55 :   0.6395-0.2789 0.0000  plane waves:    2940
 k-point  56 :   0.6327-0.2653 0.0000  plane waves:    2940
 k-point  57 :   0.6259-0.2517 0.0000  plane waves:    2932
 k-point  58 :   0.6190-0.2381 0.0000  plane waves:    2924
 k-point  59 :   0.6122-0.2245 0.0000  plane waves:    2916
 k-point  60 :   0.6054-0.2109 0.0000  plane waves:    2920
 k-point  61 :   0.5986-0.1973 0.0000  plane waves:    2904
 k-point  62 :   0.5918-0.1837 0.0000  plane waves:    2904
 k-point  63 :   0.5850-0.1701 0.0000  plane waves:    2912
 k-point  64 :   0.5782-0.1565 0.0000  plane waves:    2916
 k-point  65 :   0.5714-0.1429 0.0000  plane waves:    2916
 k-point  66 :   0.5646-0.1293 0.0000  plane waves:    2916
 k-point  67 :   0.5578-0.1156 0.0000  plane waves:    2888
 k-point  68 :   0.5510-0.1020 0.0000  plane waves:    2896
 k-point  69 :   0.5442-0.0884 0.0000  plane waves:    2904
 k-point  70 :   0.5374-0.0748 0.0000  plane waves:    2904
 k-point  71 :   0.5306-0.0612 0.0000  plane waves:    2912
 k-point  72 :   0.5238-0.0476 0.0000  plane waves:    2904
 k-point  73 :   0.5170-0.0340 0.0000  plane waves:    2904
 k-point  74 :   0.5102-0.0204 0.0000  plane waves:    2892
 k-point  75 :   0.5034-0.0068 0.0000  plane waves:    2876
 k-point  76 :   0.4966 0.0068 0.0000  plane waves:    2876
 k-point  77 :   0.4898 0.0204 0.0000  plane waves:    2892
 k-point  78 :   0.4830 0.0340 0.0000  plane waves:    2904
 k-point  79 :   0.4762 0.0476 0.0000  plane waves:    2904
 k-point  80 :   0.4694 0.0612 0.0000  plane waves:    2912
 k-point  81 :   0.4626 0.0748 0.0000  plane waves:    2904
 k-point  82 :   0.4558 0.0884 0.0000  plane waves:    2904
 k-point  83 :   0.4490 0.1020 0.0000  plane waves:    2896
 k-point  84 :   0.4422 0.1156 0.0000  plane waves:    2888
 k-point  85 :   0.4354 0.1293 0.0000  plane waves:    2916
 k-point  86 :   0.4286 0.1429 0.0000  plane waves:    2916
 k-point  87 :   0.4218 0.1565 0.0000  plane waves:    2916
 k-point  88 :   0.4150 0.1701 0.0000  plane waves:    2912
 k-point  89 :   0.4082 0.1837 0.0000  plane waves:    2904
 k-point  90 :   0.4014 0.1973 0.0000  plane waves:    2904
 k-point  91 :   0.3946 0.2109 0.0000  plane waves:    2920
 k-point  92 :   0.3878 0.2245 0.0000  plane waves:    2916
 k-point  93 :   0.3810 0.2381 0.0000  plane waves:    2924
 k-point  94 :   0.3741 0.2517 0.0000  plane waves:    2932
 k-point  95 :   0.3673 0.2653 0.0000  plane waves:    2940
 k-point  96 :   0.3605 0.2789 0.0000  plane waves:    2940
 k-point  97 :   0.3537 0.2925 0.0000  plane waves:    2948
 k-point  98 :   0.3469 0.3061 0.0000  plane waves:    2936
 k-point  99 :   0.3401 0.3197 0.0000  plane waves:    2936
 k-point 100 :   0.3333 0.3333 0.0000  plane waves:    2928
 k-point 101 :   0.3333 0.3333 0.0000  plane waves:    2928
 k-point 102 :   0.3265 0.3265 0.0000  plane waves:    2928
 k-point 103 :   0.3197 0.3197 0.0000  plane waves:    2944
 k-point 104 :   0.3129 0.3129 0.0000  plane waves:    2952
 k-point 105 :   0.3061 0.3061 0.0000  plane waves:    2952
 k-point 106 :   0.2993 0.2993 0.0000  plane waves:    2948
 k-point 107 :   0.2925 0.2925 0.0000  plane waves:    2924
 k-point 108 :   0.2857 0.2857 0.0000  plane waves:    2896
 k-point 109 :   0.2789 0.2789 0.0000  plane waves:    2896
 k-point 110 :   0.2721 0.2721 0.0000  plane waves:    2904
 k-point 111 :   0.2653 0.2653 0.0000  plane waves:    2892
 k-point 112 :   0.2585 0.2585 0.0000  plane waves:    2900
 k-point 113 :   0.2517 0.2517 0.0000  plane waves:    2902
 k-point 114 :   0.2449 0.2449 0.0000  plane waves:    2914
 k-point 115 :   0.2381 0.2381 0.0000  plane waves:    2918
 k-point 116 :   0.2313 0.2313 0.0000  plane waves:    2918
 k-point 117 :   0.2245 0.2245 0.0000  plane waves:    2934
 k-point 118 :   0.2177 0.2177 0.0000  plane waves:    2942
 k-point 119 :   0.2109 0.2109 0.0000  plane waves:    2950
 k-point 120 :   0.2041 0.2041 0.0000  plane waves:    2954
 k-point 121 :   0.1973 0.1973 0.0000  plane waves:    2950
 k-point 122 :   0.1905 0.1905 0.0000  plane waves:    2958
 k-point 123 :   0.1837 0.1837 0.0000  plane waves:    2954
 k-point 124 :   0.1769 0.1769 0.0000  plane waves:    2954
 k-point 125 :   0.1701 0.1701 0.0000  plane waves:    2978
 k-point 126 :   0.1633 0.1633 0.0000  plane waves:    2986
 k-point 127 :   0.1565 0.1565 0.0000  plane waves:    2986
 k-point 128 :   0.1497 0.1497 0.0000  plane waves:    2994
 k-point 129 :   0.1429 0.1429 0.0000  plane waves:    2982
 k-point 130 :   0.1361 0.1361 0.0000  plane waves:    2982
 k-point 131 :   0.1293 0.1293 0.0000  plane waves:    2990
 k-point 132 :   0.1224 0.1224 0.0000  plane waves:    2998
 k-point 133 :   0.1156 0.1156 0.0000  plane waves:    2994
 k-point 134 :   0.1088 0.1088 0.0000  plane waves:    3006
 k-point 135 :   0.1020 0.1020 0.0000  plane waves:    3014
 k-point 136 :   0.0952 0.0952 0.0000  plane waves:    2998
 k-point 137 :   0.0884 0.0884 0.0000  plane waves:    2998
 k-point 138 :   0.0816 0.0816 0.0000  plane waves:    3006
 k-point 139 :   0.0748 0.0748 0.0000  plane waves:    2998
 k-point 140 :   0.0680 0.0680 0.0000  plane waves:    2990
 k-point 141 :   0.0612 0.0612 0.0000  plane waves:    2990
 k-point 142 :   0.0544 0.0544 0.0000  plane waves:    2982
 k-point 143 :   0.0476 0.0476 0.0000  plane waves:    2978
 k-point 144 :   0.0408 0.0408 0.0000  plane waves:    2970
 k-point 145 :   0.0340 0.0340 0.0000  plane waves:    2978
 k-point 146 :   0.0272 0.0272 0.0000  plane waves:    2986
 k-point 147 :   0.0204 0.0204 0.0000  plane waves:    2978
 k-point 148 :   0.0136 0.0136 0.0000  plane waves:    2966
 k-point 149 :   0.0068 0.0068 0.0000  plane waves:    2970
 k-point 150 :   0.0000 0.0000 0.0000  plane waves:    2970

 maximum and minimum number of plane-waves per node :       762      710

 maximum number of plane-waves:      3014
 maximum index in each direction: 
   IXMAX=    4   IYMAX=    4   IZMAX=   19
   IXMIN=   -5   IYMIN=   -4   IZMIN=  -19


 parallel 3D FFT for wavefunctions:
    minimum data exchange during FFTs selected (reduces bandwidth)
 parallel 3D FFT for charge:
    minimum data exchange during FFTs selected (reduces bandwidth)


 total amount of memory used by VASP MPI-rank0    60179. kBytes
=======================================================================

   base      :      30000. kBytes
   nonl-proj :       5877. kBytes
   fftplans  :       4426. kBytes
   grid      :       4792. kBytes
   one-center:         32. kBytes
   wavefun   :      15052. kBytes
 
     INWAV:  cpu time      0.0001: real time      0.0009
 initial charge density was supplied:
 number of electron       9.9999999 magnetization      -0.0000141     -0.0000140     -0.0000142
 keeping initial charge density in first step


--------------------------------------------------------------------------------------------------------


 Maximum index for augmentation-charges         3084 (set IRDMAX)


--------------------------------------------------------------------------------------------------------


 First call to EWALD:  gamma=   0.314
 Maximum number of real-space cells 5x 5x 1
 Maximum number of reciprocal cells 2x 2x 7

    FEWALD:  cpu time      0.0016: real time      0.0016


--------------------------------------- Ionic step        1  -------------------------------------------




--------------------------------------- Iteration      1(   1)  ---------------------------------------


    POTLOK:  cpu time      0.0689: real time      0.1114
    SETDIJ:  cpu time      1.2220: real time      1.2232
     EDDAV:  cpu time      6.8774: real time      6.8917
       DOS:  cpu time      0.0104: real time      0.0104
    --------------------------------------------
      LOOP:  cpu time      8.1788: real time      8.2368

 eigenvalue-minimisations  :  9656
 total energy-change (2. order) : 0.3264102E+02  (-0.1862438E+03)
 number of electron       9.9999999 magnetization      -0.0000141     -0.0000140     -0.0000142
 augmentation part        9.9999999 magnetization      -0.0000141     -0.0000140     -0.0000142

 Free energy of the ion-electron system (eV)
  ---------------------------------------------------
  alpha Z        PSCENC =         5.26383816
  Ewald energy   TEWEN  =       378.22030483
  -Hartree energ DENC   =      -670.10751820
  -exchange      EXHF   =         0.00000000
  -V(xc)+E(xc)   XCENC  =       -23.49391141
  PAW double counting   =       332.41297739     -289.68818257
  entropy T*S    EENTRO =        -0.00006638
  eigenvalues    EBANDS =       -40.33035877
  atomic energy  EATOM  =       340.36393574
  Solvation  Ediel_sol  =         0.00000000
  ---------------------------------------------------
  free energy    TOTEN  =        32.64101879 eV

  energy without entropy =       32.64108516  energy(sigma->0) =       32.64105198


--------------------------------------------------------------------------------------------------------




--------------------------------------- Iteration      1(   2)  ---------------------------------------


     EDDAV:  cpu time     12.3245: real time     12.3653
       DOS:  cpu time      0.0105: real time      0.0106
    --------------------------------------------
      LOOP:  cpu time     12.3350: real time     12.3759

 eigenvalue-minimisations  : 13624
 total energy-change (2. order) :-0.3785298E+02  (-0.3555178E+02)
 number of electron       9.9999999 magnetization      -0.0000141     -0.0000140     -0.0000142
 augmentation part        9.9999999 magnetization      -0.0000141     -0.0000140     -0.0000142

 Free energy of the ion-electron system (eV)
  ---------------------------------------------------
  alpha Z        PSCENC =         5.26383816
  Ewald energy   TEWEN  =       378.22030483
  -Hartree energ DENC   =      -670.10751820
  -exchange      EXHF   =         0.00000000
  -V(xc)+E(xc)   XCENC  =       -23.49391141
  PAW double counting   =       332.41297739     -289.68818257
  entropy T*S    EENTRO =        -0.00000000
  eigenvalues    EBANDS =       -78.18340146
  atomic energy  EATOM  =       340.36393574
  Solvation  Ediel_sol  =         0.00000000
  ---------------------------------------------------
  free energy    TOTEN  =        -5.21195753 eV

  energy without entropy =       -5.21195753  energy(sigma->0) =       -5.21195753


--------------------------------------------------------------------------------------------------------




--------------------------------------- Iteration      1(   3)  ---------------------------------------


     EDDAV:  cpu time     11.6763: real time     11.7098
       DOS:  cpu time      0.0075: real time      0.0075
    --------------------------------------------
      LOOP:  cpu time     11.6838: real time     11.7173

 eigenvalue-minimisations  : 13144
 total energy-change (2. order) :-0.3959367E+01  (-0.3924987E+01)
 number of electron       9.9999999 magnetization      -0.0000141     -0.0000140     -0.0000142
 augmentation part        9.9999999 magnetization      -0.0000141     -0.0000140     -0.0000142

 Free energy of the ion-electron system (eV)
  ---------------------------------------------------
  alpha Z        PSCENC =         5.26383816
  Ewald energy   TEWEN  =       378.22030483
  -Hartree energ DENC   =      -670.10751820
  -exchange      EXHF   =         0.00000000
  -V(xc)+E(xc)   XCENC  =       -23.49391141
  PAW double counting   =       332.41297739     -289.68818257
  entropy T*S    EENTRO =        -0.00000000
  eigenvalues    EBANDS =       -82.14276805
  atomic energy  EATOM  =       340.36393574
  Solvation  Ediel_sol  =         0.00000000
  ---------------------------------------------------
  free energy    TOTEN  =        -9.17132412 eV

  energy without entropy =       -9.17132412  energy(sigma->0) =       -9.17132412


--------------------------------------------------------------------------------------------------------




--------------------------------------- Iteration      1(   4)  ---------------------------------------


     EDDAV:  cpu time     11.6179: real time     11.6509
       DOS:  cpu time      0.0077: real time      0.0077
    --------------------------------------------
      LOOP:  cpu time     11.6256: real time     11.6586

 eigenvalue-minimisations  : 13152
 total energy-change (2. order) :-0.1841266E+00  (-0.1840583E+00)
 number of electron       9.9999999 magnetization      -0.0000141     -0.0000140     -0.0000142
 augmentation part        9.9999999 magnetization      -0.0000141     -0.0000140     -0.0000142

 Free energy of the ion-electron system (eV)
  ---------------------------------------------------
  alpha Z        PSCENC =         5.26383816
  Ewald energy   TEWEN  =       378.22030483
  -Hartree energ DENC   =      -670.10751820
  -exchange      EXHF   =         0.00000000
  -V(xc)+E(xc)   XCENC  =       -23.49391141
  PAW double counting   =       332.41297739     -289.68818257
  entropy T*S    EENTRO =        -0.00000000
  eigenvalues    EBANDS =       -82.32689462
  atomic energy  EATOM  =       340.36393574
  Solvation  Ediel_sol  =         0.00000000
  ---------------------------------------------------
  free energy    TOTEN  =        -9.35545069 eV

  energy without entropy =       -9.35545069  energy(sigma->0) =       -9.35545069


--------------------------------------------------------------------------------------------------------




--------------------------------------- Iteration      1(   5)  ---------------------------------------


     EDDAV:  cpu time     11.6222: real time     11.6554
       DOS:  cpu time      0.0068: real time      0.0068



 total charge

# of ion       s       p       d       tot
------------------------------------------
    1        1.288   1.350   0.042   2.680
    2        1.288   1.350   0.042   2.680
--------------------------------------------------
tot          2.576   2.699   0.084   5.360



 magnetization (x)

# of ion       s       p       d       tot
------------------------------------------
    1       -0.000   0.001  -0.000   0.000
    2        0.000  -0.001   0.000  -0.000
--------------------------------------------------
tot         -0.000   0.000   0.000  -0.000



 magnetization (y)

# of ion       s       p       d       tot
------------------------------------------
    1        0.001  -0.001   0.000  -0.000
    2       -0.001   0.001  -0.000   0.000
--------------------------------------------------
tot          0.000   0.000   0.000   0.000



 magnetization (z)

# of ion       s       p       d       tot
------------------------------------------
    1       -0.000   0.000  -0.000  -0.000
    2       -0.000   0.000  -0.000  -0.000
--------------------------------------------------
tot         -0.000   0.000  -0.000  -0.000
 
    --------------------------------------------
      LOOP:  cpu time     11.6373: real time     11.6705

 eigenvalue-minimisations  : 12768
 total energy-change (2. order) :-0.3015415E-02  (-0.3015326E-02)
 number of electron       9.9999999 magnetization      -0.0000141     -0.0000140     -0.0000142
 augmentation part        9.9999999 magnetization      -0.0000141     -0.0000140     -0.0000142

 Free energy of the ion-electron system (eV)
  ---------------------------------------------------
  alpha Z        PSCENC =         5.26383816
  Ewald energy   TEWEN  =       378.22030483
  -Hartree energ DENC   =      -670.10751820
  -exchange      EXHF   =         0.00000000
  -V(xc)+E(xc)   XCENC  =       -23.49391141
  PAW double counting   =       332.41297739     -289.68818257
  entropy T*S    EENTRO =        -0.00000000
  eigenvalues    EBANDS =       -82.32991004
  atomic energy  EATOM  =       340.36393574
  Solvation  Ediel_sol  =         0.00000000
  ---------------------------------------------------
  free energy    TOTEN  =        -9.35846610 eV

  energy without entropy =       -9.35846610  energy(sigma->0) =       -9.35846610


--------------------------------------------------------------------------------------------------------




--------------------------------------- Iteration      1(   6)  ---------------------------------------


     EDDAV:  cpu time     11.5797: real time     11.6131
       DOS:  cpu time      0.0082: real time      0.0082
    --------------------------------------------
      LOOP:  cpu time     11.5797: real time     11.6131

 eigenvalue-minimisations  : 12880
 total energy-change (2. order) :-0.7673521E-04  (-0.7673475E-04)
 number of electron       9.9999999 magnetization      -0.0000141     -0.0000140     -0.0000142
 augmentation part        9.9999999 magnetization      -0.0000141     -0.0000140     -0.0000142

 Free energy of the ion-electron system (eV)
  ---------------------------------------------------
  alpha Z        PSCENC =         5.26383816
  Ewald energy   TEWEN  =       378.22030483
  -Hartree energ DENC   =      -670.10751820
  -exchange      EXHF   =         0.00000000
  -V(xc)+E(xc)   XCENC  =       -23.49391141
  PAW double counting   =       332.41297739     -289.68818257
  entropy T*S    EENTRO =        -0.00000000
  eigenvalues    EBANDS =       -82.32998677
  atomic energy  EATOM  =       340.36393574
  Solvation  Ediel_sol  =         0.00000000
  ---------------------------------------------------
  free energy    TOTEN  =        -9.35854284 eV

  energy without entropy =       -9.35854284  energy(sigma->0) =       -9.35854284


--------------------------------------------------------------------------------------------------------




--------------------------------------- Iteration      1(   7)  ---------------------------------------


     EDDAV:  cpu time     11.5078: real time     11.5408
       DOS:  cpu time      0.0076: real time      0.0076
    --------------------------------------------
      LOOP:  cpu time     11.5153: real time     11.5484

 eigenvalue-minimisations  : 13016
 total energy-change (2. order) :-0.3242481E-05  (-0.3242398E-05)
 number of electron       9.9999999 magnetization      -0.0000141     -0.0000140     -0.0000142
 augmentation part        9.9999999 magnetization      -0.0000141     -0.0000140     -0.0000142

 Free energy of the ion-electron system (eV)
  ---------------------------------------------------
  alpha Z        PSCENC =         5.26383816
  Ewald energy   TEWEN  =       378.22030483
  -Hartree energ DENC   =      -670.10751820
  -exchange      EXHF   =         0.00000000
  -V(xc)+E(xc)   XCENC  =       -23.49391141
  PAW double counting   =       332.41297739     -289.68818257
  entropy T*S    EENTRO =        -0.00000000
  eigenvalues    EBANDS =       -82.32999001
  atomic energy  EATOM  =       340.36393574
  Solvation  Ediel_sol  =         0.00000000
  ---------------------------------------------------
  free energy    TOTEN  =        -9.35854608 eV

  energy without entropy =       -9.35854608  energy(sigma->0) =       -9.35854608


--------------------------------------------------------------------------------------------------------




--------------------------------------- Iteration      1(   8)  ---------------------------------------


     EDDAV:  cpu time      9.7913: real time      9.8195
       DOS:  cpu time      0.0073: real time      0.0073
    --------------------------------------------
      LOOP:  cpu time      9.7986: real time      9.8268

 eigenvalue-minimisations  : 10384
 total energy-change (2. order) :-0.1428159E-06  (-0.1427942E-06)
 number of electron       9.9999999 magnetization      -0.0000141     -0.0000140     -0.0000142
 augmentation part        9.9999999 magnetization      -0.0000141     -0.0000140     -0.0000142

 Free energy of the ion-electron system (eV)
  ---------------------------------------------------
  alpha Z        PSCENC =         5.26383816
  Ewald energy   TEWEN  =       378.22030483
  -Hartree energ DENC   =      -670.10751820
  -exchange      EXHF   =         0.00000000
  -V(xc)+E(xc)   XCENC  =       -23.49391141
  PAW double counting   =       332.41297739     -289.68818257
  entropy T*S    EENTRO =        -0.00000000
  eigenvalues    EBANDS =       -82.32999016
  atomic energy  EATOM  =       340.36393574
  Solvation  Ediel_sol  =         0.00000000
  ---------------------------------------------------
  free energy    TOTEN  =        -9.35854622 eV

  energy without entropy =       -9.35854622  energy(sigma->0) =       -9.35854622


--------------------------------------------------------------------------------------------------------




--------------------------------------- Iteration      1(   9)  ---------------------------------------


     EDDAV:  cpu time      8.7360: real time      8.7611
       DOS:  cpu time      0.0074: real time      0.0074
    --------------------------------------------
      LOOP:  cpu time      8.7435: real time      8.7686

 eigenvalue-minimisations  :  8376
 total energy-change (2. order) :-0.7780784E-08  (-0.7785587E-08)
 number of electron       9.9999999 magnetization      -0.0000141     -0.0000140     -0.0000142
 augmentation part        9.9999999 magnetization      -0.0000141     -0.0000140     -0.0000142

 Free energy of the ion-electron system (eV)
  ---------------------------------------------------
  alpha Z        PSCENC =         5.26383816
  Ewald energy   TEWEN  =       378.22030483
  -Hartree energ DENC   =      -670.10751820
  -exchange      EXHF   =         0.00000000
  -V(xc)+E(xc)   XCENC  =       -23.49391141
  PAW double counting   =       332.41297739     -289.68818257
  entropy T*S    EENTRO =        -0.00000000
  eigenvalues    EBANDS =       -82.32999017
  atomic energy  EATOM  =       340.36393574
  Solvation  Ediel_sol  =         0.00000000
  ---------------------------------------------------
  free energy    TOTEN  =        -9.35854623 eV

  energy without entropy =       -9.35854623  energy(sigma->0) =       -9.35854623


--------------------------------------------------------------------------------------------------------




--------------------------------------- Iteration      1(  10)  ---------------------------------------


     EDDAV:  cpu time      8.0307: real time      8.0558
       DOS:  cpu time      0.0076: real time      0.0076



 total charge

# of ion       s       p       d       tot
------------------------------------------
    1        1.288   1.350   0.042   2.679
    2        1.288   1.350   0.042   2.679
--------------------------------------------------
tot          2.575   2.699   0.084   5.359



 magnetization (x)

# of ion       s       p       d       tot
------------------------------------------
    1       -0.000   0.001  -0.000   0.000
    2        0.000  -0.001   0.000  -0.000
--------------------------------------------------
tot          0.000   0.000   0.000   0.000



 magnetization (y)

# of ion       s       p       d       tot
------------------------------------------
    1        0.001  -0.001   0.000  -0.000
    2       -0.001   0.001  -0.000   0.000
--------------------------------------------------
tot          0.000   0.000  -0.000   0.000



 magnetization (z)

# of ion       s       p       d       tot
------------------------------------------
    1        0.000   0.000  -0.000   0.000
    2        0.000   0.000  -0.000   0.000
--------------------------------------------------
tot          0.000   0.000  -0.000   0.000
 
    --------------------------------------------
      LOOP:  cpu time      8.0471: real time      8.0723

 eigenvalue-minimisations  :  7728
 total energy-change (2. order) :-0.1505725E-08  (-0.1485435E-08)
 number of electron       9.9999999 magnetization      -0.0000141     -0.0000140     -0.0000142
 augmentation part        9.9999999 magnetization      -0.0000141     -0.0000140     -0.0000142

 Free energy of the ion-electron system (eV)
  ---------------------------------------------------
  alpha Z        PSCENC =         5.26383816
  Ewald energy   TEWEN  =       378.22030483
  -Hartree energ DENC   =      -670.10751820
  -exchange      EXHF   =         0.00000000
  -V(xc)+E(xc)   XCENC  =       -23.49391141
  PAW double counting   =       332.41297739     -289.68818257
  entropy T*S    EENTRO =        -0.00000000
  eigenvalues    EBANDS =       -82.32999017
  atomic energy  EATOM  =       340.36393574
  Solvation  Ediel_sol  =         0.00000000
  ---------------------------------------------------
  free energy    TOTEN  =        -9.35854623 eV

  energy without entropy =       -9.35854623  energy(sigma->0) =       -9.35854623


--------------------------------------------------------------------------------------------------------




--------------------------------------- Iteration      1(  11)  ---------------------------------------


     EDDAV:  cpu time      8.0621: real time      8.0853
       DOS:  cpu time      0.0074: real time      0.0074
    --------------------------------------------
      LOOP:  cpu time      8.0607: real time      8.0839

 eigenvalue-minimisations  :  7312
 total energy-change (2. order) :-0.5937295E-09  (-0.6048820E-09)
 number of electron       9.9999999 magnetization      -0.0000141     -0.0000140     -0.0000142
 augmentation part        9.9999999 magnetization      -0.0000141     -0.0000140     -0.0000142

 Free energy of the ion-electron system (eV)
  ---------------------------------------------------
  alpha Z        PSCENC =         5.26383816
  Ewald energy   TEWEN  =       378.22030483
  -Hartree energ DENC   =      -670.10751820
  -exchange      EXHF   =         0.00000000
  -V(xc)+E(xc)   XCENC  =       -23.49391141
  PAW double counting   =       332.41297739     -289.68818257
  entropy T*S    EENTRO =        -0.00000000
  eigenvalues    EBANDS =       -82.32999017
  atomic energy  EATOM  =       340.36393574
  Solvation  Ediel_sol  =         0.00000000
  ---------------------------------------------------
  free energy    TOTEN  =        -9.35854623 eV

  energy without entropy =       -9.35854623  energy(sigma->0) =       -9.35854623


--------------------------------------------------------------------------------------------------------




--------------------------------------- Iteration      1(  12)  ---------------------------------------


     EDDAV:  cpu time      7.5379: real time      7.5625
       DOS:  cpu time      0.0076: real time      0.0076
    --------------------------------------------
      LOOP:  cpu time      7.5455: real time      7.5701

 eigenvalue-minimisations  :  7048
 total energy-change (2. order) :-0.2578417E-09  (-0.2652155E-09)
 number of electron       9.9999999 magnetization      -0.0000141     -0.0000140     -0.0000142
 augmentation part        9.9999999 magnetization      -0.0000141     -0.0000140     -0.0000142

 Free energy of the ion-electron system (eV)
  ---------------------------------------------------
  alpha Z        PSCENC =         5.26383816
  Ewald energy   TEWEN  =       378.22030483
  -Hartree energ DENC   =      -670.10751820
  -exchange      EXHF   =         0.00000000
  -V(xc)+E(xc)   XCENC  =       -23.49391141
  PAW double counting   =       332.41297739     -289.68818257
  entropy T*S    EENTRO =        -0.00000000
  eigenvalues    EBANDS =       -82.32999017
  atomic energy  EATOM  =       340.36393574
  Solvation  Ediel_sol  =         0.00000000
  ---------------------------------------------------
  free energy    TOTEN  =        -9.35854623 eV

  energy without entropy =       -9.35854623  energy(sigma->0) =       -9.35854623


--------------------------------------------------------------------------------------------------------




--------------------------------------- Iteration      1(  13)  ---------------------------------------


     EDDAV:  cpu time      7.7635: real time      7.7852
       DOS:  cpu time      0.0080: real time      0.0080
    --------------------------------------------
      LOOP:  cpu time      7.7715: real time      7.7931

 eigenvalue-minimisations  :  6920
 total energy-change (2. order) :-0.1166995E-09  (-0.1179418E-09)
 number of electron       9.9999999 magnetization      -0.0000141     -0.0000140     -0.0000142
 augmentation part        9.9999999 magnetization      -0.0000141     -0.0000140     -0.0000142

 Free energy of the ion-electron system (eV)
  ---------------------------------------------------
  alpha Z        PSCENC =         5.26383816
  Ewald energy   TEWEN  =       378.22030483
  -Hartree energ DENC   =      -670.10751820
  -exchange      EXHF   =         0.00000000
  -V(xc)+E(xc)   XCENC  =       -23.49391141
  PAW double counting   =       332.41297739     -289.68818257
  entropy T*S    EENTRO =        -0.00000000
  eigenvalues    EBANDS =       -82.32999017
  atomic energy  EATOM  =       340.36393574
  Solvation  Ediel_sol  =         0.00000000
  ---------------------------------------------------
  free energy    TOTEN  =        -9.35854623 eV

  energy without entropy =       -9.35854623  energy(sigma->0) =       -9.35854623


--------------------------------------------------------------------------------------------------------




 average (electrostatic) potential at core
  the test charge radii are     1.0621
  (the norm of the test charge is              1.0000)
       1 -57.2572       2 -57.2572
 
 
 
 E-fermi :  -2.8453     XC(G=0):  -3.2500     alpha+bet : -2.4472

 Fermi energy:        -2.8452968049

 k-point     1 :       0.0000    0.0000    0.0000
  band No.  band energies     occupation 
      1     -16.4715      1.00000
      2     -16.4715      1.00000
      3     -10.1844      1.00000
      4     -10.1844      1.00000
      5      -3.6062      1.00000
      6      -3.6061      1.00000
      7      -3.0937      1.00000
      8      -3.0937      1.00000
      9      -2.8890      1.00000
     10      -2.8890      1.00000
     11      -1.1000      0.00000
     12      -1.0999      0.00000
     13       0.3616      0.00000
     14       0.3616      0.00000
     15       0.5962      0.00000
     16       0.5962      0.00000
     17       1.9040      0.00000
     18       1.9042      0.00000
     19       1.9964      0.00000
     20       1.9969      0.00000
     21       3.3766      0.00000
     22       3.3768      0.00000
     23       4.3039      0.00000
     24       4.3044      0.00000
     25       5.8654      0.00000
     26       5.8656      0.00000
     27       6.8857      0.00000
     28       6.8860      0.00000
     29       7.0589      0.00000
     30       7.0589      0.00000
     31       7.0805      0.00000
     32       7.0805      0.00000

 k-point     2 :       0.0136   -0.0068    0.0000
  band No.  band energies     occupation 
      1     -16.4697      1.00000
      2     -16.4697      1.00000
      3     -10.1841      1.00000
      4     -10.1841      1.00000
      5      -3.6063      1.00000
      6      -3.6062      1.00000
      7      -3.1075      1.00000
      8      -3.1075      1.00000
      9      -2.9051      1.00000
     10      -2.9051      1.00000
     11      -1.0766      0.00000
[...]
         0         1         2         3         4         5         6         7         8         9
 total charge-density along one line
 
 soft charge-density along one line, spin component           2
         0         1         2         3         4         5         6         7         8         9
 total charge-density along one line
 
 soft charge-density along one line, spin component           3
         0         1         2         3         4         5         6         7         8         9
 total charge-density along one line
 
 soft charge-density along one line, spin component           4
         0         1         2         3         4         5         6         7         8         9
 total charge-density along one line
 
 pseudopotential strength for first ion, spin component:           1
 25.465  -0.000 -40.477   0.000  -0.000  -0.000   0.081   0.000   0.000  -0.000   0.000   0.000  -0.178  -0.000  -0.000   0.000
-40.477   0.000  41.302  -0.000   0.000   0.000  -0.165  -0.000  -0.000   0.000  -0.000  -0.000   0.448   0.000   0.000  -0.000
 -0.000  -0.000   0.000   0.000   5.892   0.000  -0.000   0.000  -0.000   0.089  -7.417  -0.000   0.000  -0.000   0.000  -0.218
  0.081   0.000  -0.165  -0.000  -0.000   0.000   5.883  -0.000   0.000   0.000   0.000  -0.000  -7.405   0.000  -0.000  -0.000
  0.000  -0.000  -0.000   0.000  -0.000  -0.089   0.000   0.000   5.892   0.000   0.000   0.218  -0.000  -0.000  -7.417  -0.000
  0.000   0.000  -0.000  -0.000  -7.417  -0.000   0.000  -0.000   0.000  -0.218  11.034   0.000  -0.000   0.000  -0.000   0.540
 -0.178  -0.000   0.448   0.000   0.000  -0.000  -7.405   0.000  -0.000  -0.000  -0.000   0.000  11.005  -0.000   0.000   0.000
 -0.000   0.000   0.000  -0.000   0.000   0.218  -0.000  -0.000  -7.417  -0.000  -0.000  -0.540   0.000   0.000  11.034   0.000
 -0.000  -0.000   0.000   0.000   0.000   0.000  -0.000  -0.000  -0.002  -0.000  -0.000  -0.000   0.000   0.000   0.002   0.000
 -0.000   0.000   0.000  -0.000   0.019   0.000  -0.000  -0.000  -0.000  -0.000  -0.038  -0.000   0.000   0.000   0.000   0.000
 -0.009  -0.000   0.013   0.000   0.000   0.000   0.024   0.000  -0.000  -0.000  -0.000  -0.000  -0.046  -0.000   0.000   0.000
  0.000   0.000  -0.000  -0.000  -0.000  -0.000   0.000  -0.000   0.019   0.000   0.000   0.000  -0.000   0.000  -0.038  -0.000
  0.000   0.000  -0.000  -0.000  -0.002   0.000   0.000   0.000   0.000  -0.000   0.002  -0.000  -0.000  -0.000  -0.000   0.000
 pseudopotential strength for first ion, spin component:           2
 -0.000   0.000   0.000  -0.000  -0.000   0.000  -0.000   0.000   0.000  -0.000   0.000  -0.000   0.000  -0.000  -0.000   0.000
  0.000  -0.000  -0.000   0.000   0.000  -0.000   0.000  -0.000  -0.000   0.000  -0.000   0.000  -0.000   0.000   0.000  -0.000
 -0.000   0.000   0.000  -0.000  -0.000   0.000  -0.000  -0.089  -0.000   0.000   0.000  -0.000   0.000   0.218   0.000  -0.000
 -0.000   0.000   0.000  -0.000  -0.000   0.089  -0.000   0.000  -0.089  -0.000   0.000  -0.218   0.000  -0.000   0.218   0.000
  0.000  -0.000  -0.000   0.000  -0.000   0.000   0.089  -0.000  -0.000   0.000   0.000  -0.000  -0.218   0.000   0.000  -0.000
  0.000  -0.000  -0.000   0.000   0.000  -0.000   0.000   0.218   0.000  -0.000  -0.000   0.000  -0.000  -0.540  -0.000   0.000
  0.000  -0.000  -0.000   0.000   0.000  -0.218   0.000  -0.000   0.218   0.000  -0.000   0.540  -0.000   0.000  -0.540  -0.000
 -0.000   0.000   0.000  -0.000   0.000  -0.000  -0.218   0.000   0.000  -0.000  -0.000   0.000   0.540  -0.000  -0.000   0.000
 -0.000   0.000   0.000  -0.000   0.000  -0.000  -0.000   0.000  -0.000   0.000  -0.000   0.000   0.000  -0.000   0.000  -0.000
 -0.000   0.000   0.000  -0.000  -0.000   0.000  -0.000   0.000  -0.000   0.000   0.000  -0.000   0.000  -0.000   0.000  -0.000
 -0.000  -0.000   0.000   0.000   0.000  -0.000  -0.000   0.000  -0.000   0.000  -0.000   0.000   0.000  -0.000   0.000  -0.000
  0.000  -0.000  -0.000   0.000  -0.000   0.000   0.000  -0.000  -0.000   0.000   0.000  -0.000  -0.000   0.000   0.000  -0.000
  0.000   0.000  -0.000  -0.000   0.000  -0.000   0.000  -0.000   0.000  -0.000  -0.000   0.000  -0.000   0.000  -0.000   0.000
 pseudopotential strength for first ion, spin component:           3
 -0.000  -0.000   0.000   0.000  -0.000  -0.000  -0.000  -0.000   0.000   0.000   0.000   0.000   0.000   0.000  -0.000  -0.000
  0.000   0.000  -0.000  -0.000   0.000   0.000   0.000   0.000  -0.000  -0.000  -0.000  -0.000  -0.000  -0.000   0.000   0.000
 -0.000  -0.000   0.000   0.000  -0.000  -0.000  -0.000  -0.089  -0.000  -0.000   0.000   0.000   0.000   0.218   0.000   0.000
 -0.000  -0.000   0.000   0.000  -0.000   0.089  -0.000  -0.000   0.089   0.000   0.000  -0.218   0.000   0.000  -0.218  -0.000
  0.000   0.000  -0.000  -0.000  -0.000  -0.000  -0.089   0.000  -0.000  -0.000   0.000   0.000   0.218  -0.000   0.000   0.000
  0.000   0.000  -0.000  -0.000   0.000   0.000   0.000   0.218   0.000   0.000  -0.000  -0.000  -0.000  -0.540  -0.000  -0.000
  0.000   0.000  -0.000  -0.000   0.000  -0.218   0.000   0.000  -0.218  -0.000  -0.000   0.540  -0.000  -0.000   0.540   0.000
 -0.000  -0.000   0.000   0.000   0.000   0.000   0.218  -0.000   0.000   0.000  -0.000  -0.000  -0.540   0.000  -0.000  -0.000
 -0.000  -0.000   0.000   0.000   0.000   0.000  -0.000  -0.000  -0.000  -0.000  -0.000  -0.000   0.000   0.000   0.000   0.000
 -0.000  -0.000   0.000   0.000  -0.000  -0.000  -0.000  -0.000  -0.000  -0.000   0.000   0.000   0.000   0.000   0.000   0.000
 -0.000   0.000   0.000  -0.000   0.000   0.000  -0.000  -0.000  -0.000  -0.000  -0.000  -0.000   0.000   0.000   0.000   0.000
  0.000   0.000  -0.000  -0.000  -0.000  -0.000   0.000   0.000  -0.000  -0.000   0.000   0.000  -0.000  -0.000   0.000   0.000
  0.000  -0.000  -0.000   0.000   0.000   0.000   0.000   0.000   0.000   0.000  -0.000  -0.000  -0.000  -0.000  -0.000  -0.000
 pseudopotential strength for first ion, spin component:           4
 25.465  -0.000 -40.477   0.000   0.000   0.000   0.081   0.000  -0.000  -0.000  -0.000  -0.000  -0.178  -0.000   0.000   0.000
-40.477   0.000  41.302  -0.000  -0.000  -0.000  -0.165  -0.000   0.000   0.000   0.000   0.000   0.449   0.000  -0.000  -0.000
  0.000   0.000  -0.000  -0.000   5.892   0.000   0.000  -0.000   0.000  -0.089  -7.417  -0.000  -0.000   0.000  -0.000   0.218
  0.081   0.000  -0.165  -0.000   0.000  -0.000   5.883  -0.000  -0.000  -0.000  -0.000   0.000  -7.405   0.000   0.000   0.000
 -0.000  -0.000   0.000   0.000   0.000   0.089  -0.000  -0.000   5.892   0.000  -0.000  -0.218   0.000   0.000  -7.417  -0.000
 -0.000  -0.000   0.000   0.000  -7.417  -0.000  -0.000   0.000  -0.000   0.218  11.034   0.000   0.000  -0.000   0.000  -0.540
 -0.178  -0.000   0.449   0.000  -0.000   0.000  -7.405   0.000   0.000   0.000   0.000  -0.000  11.005  -0.000  -0.000  -0.000
  0.000   0.000  -0.000  -0.000  -0.000  -0.218   0.000   0.000  -7.417  -0.000   0.000   0.540  -0.000  -0.000  11.034   0.000
  0.000  -0.000  -0.000   0.000  -0.000   0.000   0.000  -0.000  -0.002  -0.000   0.000  -0.000  -0.000   0.000   0.002   0.000
  0.000  -0.000  -0.000   0.000   0.019   0.000   0.000   0.000   0.000  -0.000  -0.038  -0.000  -0.000  -0.000  -0.000   0.000
 -0.009  -0.000   0.013   0.000  -0.000   0.000   0.024   0.000   0.000   0.000   0.000  -0.000  -0.046  -0.000  -0.000  -0.000
 -0.000  -0.000   0.000   0.000   0.000  -0.000  -0.000   0.000   0.019   0.000  -0.000   0.000   0.000  -0.000  -0.038  -0.000
 -0.000  -0.000   0.000   0.000  -0.002   0.000  -0.000   0.000  -0.000  -0.000   0.002  -0.000   0.000  -0.000   0.000   0.000
 total augmentation occupancy for first ion, spin component:           1
  2.000   0.000   0.000   0.000   0.000   0.000   0.000   0.000   0.000   0.000   0.000   0.000   0.000
  0.000   0.000   0.000   0.000   0.000   0.000   0.000   0.000   0.000   0.000   0.000   0.000   0.000
  0.000   0.000   1.000   0.000   0.000   0.000   0.000   0.000   0.000   0.000   0.000   0.000   0.000
  0.000   0.000   0.000   1.000   0.000   0.000   0.000   0.000   0.000   0.000   0.000   0.000   0.000
  0.000   0.000   0.000   0.000   1.000   0.000   0.000   0.000   0.000   0.000   0.000   0.000   0.000
  0.000   0.000   0.000   0.000   0.000   0.000   0.000   0.000   0.000   0.000   0.000   0.000   0.000
  0.000   0.000   0.000   0.000   0.000   0.000   0.000   0.000   0.000   0.000   0.000   0.000   0.000
  0.000   0.000   0.000   0.000   0.000   0.000   0.000   0.000   0.000   0.000   0.000   0.000   0.000
  0.000   0.000   0.000   0.000   0.000   0.000   0.000   0.000   0.000   0.000   0.000   0.000   0.000
  0.000   0.000   0.000   0.000   0.000   0.000   0.000   0.000   0.000   0.000   0.000   0.000   0.000
  0.000   0.000   0.000   0.000   0.000   0.000   0.000   0.000   0.000   0.000   0.000   0.000   0.000
  0.000   0.000   0.000   0.000   0.000   0.000   0.000   0.000   0.000   0.000   0.000   0.000   0.000
  0.000   0.000   0.000   0.000   0.000   0.000   0.000   0.000   0.000   0.000   0.000   0.000   0.000
 total augmentation occupancy for first ion, spin component:           2
  0.400   0.000   0.000   0.000   0.000   0.000   0.000   0.000   0.000   0.000   0.000   0.000   0.000
  0.000   0.000   0.000   0.000   0.000   0.000   0.000   0.000   0.000   0.000   0.000   0.000   0.000
  0.000   0.000   0.200   0.000   0.000   0.000   0.000   0.000   0.000   0.000   0.000   0.000   0.000
  0.000   0.000   0.000   0.200   0.000   0.000   0.000   0.000   0.000   0.000   0.000   0.000   0.000
  0.000   0.000   0.000   0.000   0.200   0.000   0.000   0.000   0.000   0.000   0.000   0.000   0.000
  0.000   0.000   0.000   0.000   0.000   0.000   0.000   0.000   0.000   0.000   0.000   0.000   0.000
  0.000   0.000   0.000   0.000   0.000   0.000   0.000   0.000   0.000   0.000   0.000   0.000   0.000
  0.000   0.000   0.000   0.000   0.000   0.000   0.000   0.000   0.000   0.000   0.000   0.000   0.000
  0.000   0.000   0.000   0.000   0.000   0.000   0.000   0.000   0.000   0.000   0.000   0.000   0.000
  0.000   0.000   0.000   0.000   0.000   0.000   0.000   0.000   0.000   0.000   0.000   0.000   0.000
  0.000   0.000   0.000   0.000   0.000   0.000   0.000   0.000   0.000   0.000   0.000   0.000   0.000
  0.000   0.000   0.000   0.000   0.000   0.000   0.000   0.000   0.000   0.000   0.000   0.000   0.000
  0.000   0.000   0.000   0.000   0.000   0.000   0.000   0.000   0.000   0.000   0.000   0.000   0.000
 total augmentation occupancy for first ion, spin component:           3
  0.400   0.000   0.000   0.000   0.000   0.000   0.000   0.000   0.000   0.000   0.000   0.000   0.000
  0.000   0.000   0.000   0.000   0.000   0.000   0.000   0.000   0.000   0.000   0.000   0.000   0.000
  0.000   0.000   0.200   0.000   0.000   0.000   0.000   0.000   0.000   0.000   0.000   0.000   0.000
  0.000   0.000   0.000   0.200   0.000   0.000   0.000   0.000   0.000   0.000   0.000   0.000   0.000
  0.000   0.000   0.000   0.000   0.200   0.000   0.000   0.000   0.000   0.000   0.000   0.000   0.000
  0.000   0.000   0.000   0.000   0.000   0.000   0.000   0.000   0.000   0.000   0.000   0.000   0.000
  0.000   0.000   0.000   0.000   0.000   0.000   0.000   0.000   0.000   0.000   0.000   0.000   0.000
  0.000   0.000   0.000   0.000   0.000   0.000   0.000   0.000   0.000   0.000   0.000   0.000   0.000
  0.000   0.000   0.000   0.000   0.000   0.000   0.000   0.000   0.000   0.000   0.000   0.000   0.000
  0.000   0.000   0.000   0.000   0.000   0.000   0.000   0.000   0.000   0.000   0.000   0.000   0.000
  0.000   0.000   0.000   0.000   0.000   0.000   0.000   0.000   0.000   0.000   0.000   0.000   0.000
  0.000   0.000   0.000   0.000   0.000   0.000   0.000   0.000   0.000   0.000   0.000   0.000   0.000
  0.000   0.000   0.000   0.000   0.000   0.000   0.000   0.000   0.000   0.000   0.000   0.000   0.000
 total augmentation occupancy for first ion, spin component:           4
  0.400   0.000   0.000   0.000   0.000   0.000   0.000   0.000   0.000   0.000   0.000   0.000   0.000
  0.000   0.000   0.000   0.000   0.000   0.000   0.000   0.000   0.000   0.000   0.000   0.000   0.000
  0.000   0.000   0.200   0.000   0.000   0.000   0.000   0.000   0.000   0.000   0.000   0.000   0.000
  0.000   0.000   0.000   0.200   0.000   0.000   0.000   0.000   0.000   0.000   0.000   0.000   0.000
  0.000   0.000   0.000   0.000   0.200   0.000   0.000   0.000   0.000   0.000   0.000   0.000   0.000
  0.000   0.000   0.000   0.000   0.000   0.000   0.000   0.000   0.000   0.000   0.000   0.000   0.000
  0.000   0.000   0.000   0.000   0.000   0.000   0.000   0.000   0.000   0.000   0.000   0.000   0.000
  0.000   0.000   0.000   0.000   0.000   0.000   0.000   0.000   0.000   0.000   0.000   0.000   0.000
  0.000   0.000   0.000   0.000   0.000   0.000   0.000   0.000   0.000   0.000   0.000   0.000   0.000
  0.000   0.000   0.000   0.000   0.000   0.000   0.000   0.000   0.000   0.000   0.000   0.000   0.000
  0.000   0.000   0.000   0.000   0.000   0.000   0.000   0.000   0.000   0.000   0.000   0.000   0.000
  0.000   0.000   0.000   0.000   0.000   0.000   0.000   0.000   0.000   0.000   0.000   0.000   0.000
  0.000   0.000   0.000   0.000   0.000   0.000   0.000   0.000   0.000   0.000   0.000   0.000   0.000


------------------------ aborting loop because EDIFF is reached ----------------------------------------





 total charge

# of ion       s       p       d       tot
------------------------------------------
    1        1.288   1.350   0.042   2.679
    2        1.288   1.350   0.042   2.679
--------------------------------------------------
tot          2.575   2.699   0.084   5.359



 magnetization (x)

# of ion       s       p       d       tot
------------------------------------------
    1        0.000   0.000   0.000   0.000
    2        0.000   0.000   0.000   0.000
--------------------------------------------------
tot          0.000   0.000   0.000   0.000



 magnetization (y)

# of ion       s       p       d       tot
------------------------------------------
    1        0.000   0.000  -0.000   0.000
    2        0.000   0.000  -0.000   0.000
--------------------------------------------------
tot          0.000   0.000  -0.000   0.000



 magnetization (z)

# of ion       s       p       d       tot
------------------------------------------
    1        0.000   0.000  -0.000   0.000
    2        0.000   0.000  -0.000   0.000
--------------------------------------------------
tot          0.000   0.000  -0.000   0.000
 


--------------------------------------------------------------------------------------------------------



  FREE ENERGIE OF THE ION-ELECTRON SYSTEM (eV)
  ---------------------------------------------------
  free  energy   TOTEN  =        -9.35854623 eV

  energy  without entropy=       -9.35854623  energy(sigma->0) =       -9.35854623
 


--------------------------------------------------------------------------------------------------------




--------------------------------------------------------------------------------------------------------


     LOOP+:  cpu time    128.5585: real time    129.2099
    4ORBIT:  cpu time      0.0000: real time      0.0000

 Spin-Orbit-Coupling matrix elements

 Ion:    1  E_soc:      0.0000000
 l=   1
     0.0000000     0.0000000     0.0000000
     0.0000000     0.0000000     0.0000000
     0.0000000     0.0000000     0.0000000
 l=   2
     0.0000000     0.0000000     0.0000000     0.0000000     0.0000000
     0.0000000     0.0000000     0.0000000     0.0000000     0.0000000
     0.0000000     0.0000000     0.0000000     0.0000000     0.0000000
     0.0000000     0.0000000     0.0000000     0.0000000     0.0000000
     0.0000000     0.0000000     0.0000000     0.0000000     0.0000000
 l=   3
     0.0000000     0.0000000     0.0000000     0.0000000     0.0000000     0.0000000     0.0000000
     0.0000000     0.0000000     0.0000000     0.0000000     0.0000000     0.0000000     0.0000000
     0.0000000     0.0000000     0.0000000     0.0000000     0.0000000     0.0000000     0.0000000
     0.0000000     0.0000000     0.0000000     0.0000000     0.0000000     0.0000000     0.0000000
     0.0000000     0.0000000     0.0000000     0.0000000     0.0000000     0.0000000     0.0000000
     0.0000000     0.0000000     0.0000000     0.0000000     0.0000000     0.0000000     0.0000000
     0.0000000     0.0000000     0.0000000     0.0000000     0.0000000     0.0000000     0.0000000

 Ion:    2  E_soc:      0.0000000
 l=   1
     0.0000000     0.0000000     0.0000000
     0.0000000     0.0000000     0.0000000
     0.0000000     0.0000000     0.0000000
 l=   2
     0.0000000     0.0000000     0.0000000     0.0000000     0.0000000
     0.0000000     0.0000000     0.0000000     0.0000000     0.0000000
     0.0000000     0.0000000     0.0000000     0.0000000     0.0000000
     0.0000000     0.0000000     0.0000000     0.0000000     0.0000000
     0.0000000     0.0000000     0.0000000     0.0000000     0.0000000
 l=   3
     0.0000000     0.0000000     0.0000000     0.0000000     0.0000000     0.0000000     0.0000000
     0.0000000     0.0000000     0.0000000     0.0000000     0.0000000     0.0000000     0.0000000
     0.0000000     0.0000000     0.0000000     0.0000000     0.0000000     0.0000000     0.0000000
     0.0000000     0.0000000     0.0000000     0.0000000     0.0000000     0.0000000     0.0000000
     0.0000000     0.0000000     0.0000000     0.0000000     0.0000000     0.0000000     0.0000000
     0.0000000     0.0000000     0.0000000     0.0000000     0.0000000     0.0000000     0.0000000
     0.0000000     0.0000000     0.0000000     0.0000000     0.0000000     0.0000000     0.0000000



 total charge

# of ion       s       p       d       tot
------------------------------------------
    1        1.288   1.350   0.042   2.679
    2        1.288   1.350   0.042   2.679
--------------------------------------------------
tot          2.575   2.699   0.084   5.359



 magnetization (x)

# of ion       s       p       d       tot
------------------------------------------
    1        0.000   0.000   0.000   0.000
    2        0.000   0.000   0.000   0.000
--------------------------------------------------
tot          0.000   0.000   0.000   0.000



 magnetization (y)

# of ion       s       p       d       tot
------------------------------------------
    1        0.000   0.000  -0.000   0.000
    2        0.000   0.000  -0.000   0.000
--------------------------------------------------
tot          0.000   0.000  -0.000   0.000



 magnetization (z)

# of ion       s       p       d       tot
------------------------------------------
    1        0.000   0.000  -0.000   0.000
    2        0.000   0.000  -0.000   0.000
--------------------------------------------------
tot          0.000   0.000  -0.000   0.000
 

 total amount of memory used by VASP MPI-rank0    60179. kBytes
=======================================================================

   base      :      30000. kBytes
   nonl-proj :       5877. kBytes
   fftplans  :       4426. kBytes
   grid      :       4792. kBytes
   one-center:         32. kBytes
   wavefun   :      15052. kBytes
 
  
  
 General timing and accounting informations for this job:
 ========================================================
  
                  Total CPU time used (sec):      132.816
                            User time (sec):      132.214
                          System time (sec):        0.602
                         Elapsed time (sec):      135.640
  
                   Maximum memory used (kb):      181364.
                   Average memory used (kb):          N/A
  
                          Minor page faults:        19585
                          Major page faults:         3669
                 Voluntary context switches:          150
