PROCAR new format
# of k-points:  150         # of bands:   32         # of ions:    2

 k-point     1 :    0.00000000 0.00000000 0.00000000     weight = 0.00666667

band     1 # energy  -16.47154016 # occ.  1.00000000
 
ion      s      p      d    tot
    1  0.268  0.011  0.000  0.279
    2  0.268  0.011  0.000  0.279
tot    0.536  0.021  0.000  0.557
    1  0.122  0.005  0.000  0.127
    2  0.122  0.005  0.000  0.127
tot    0.244  0.010  0.000  0.253
    1  0.078  0.003  0.000  0.081
    2  0.078  0.003  0.000  0.081
tot    0.155  0.006  0.000  0.162
    1  0.226  0.009  0.000  0.235
    2  0.226  0.009  0.000  0.235
tot    0.451  0.018  0.000  0.469
 
band     2 # energy  -16.47152331 # occ.  1.00000000
 
ion      s      p      d    tot
    1  0.268  0.011  0.000  0.279
    2  0.268  0.011  0.000  0.279
tot    0.536  0.021  0.000  0.557
    1 -0.122 -0.005 -0.000 -0.127
    2 -0.122 -0.005 -0.000 -0.127
tot   -0.244 -0.010 -0.000 -0.253
    1 -0.078 -0.003 -0.000 -0.081
    2 -0.078 -0.003 -0.000 -0.081
tot   -0.155 -0.006 -0.000 -0.162
    1 -0.226 -0.009 -0.000 -0.235
    2 -0.226 -0.009 -0.000 -0.235
tot   -0.451 -0.018 -0.000 -0.469
 
band     3 # energy  -10.18439407 # occ.  1.00000000
 
ion      s      p      d    tot
    1  0.284  0.025  0.001  0.310
    2  0.284  0.025  0.001  0.310
tot    0.567  0.050  0.001  0.619
    1 -0.260 -0.023 -0.001 -0.283
    2 -0.260 -0.023 -0.001 -0.283
tot   -0.520 -0.046 -0.001 -0.567
    1  0.012  0.001  0.000  0.013
    2  0.012  0.001  0.000  0.013
tot    0.023  0.002  0.000  0.025
    1  0.113  0.010  0.000  0.124
    2  0.113  0.010  0.000  0.124
tot    0.227  0.020  0.001  0.248
 
band     4 # energy  -10.18436612 # occ.  1.00000000
 
ion      s      p      d    tot
    1  0.284  0.025  0.001  0.310
    2  0.284  0.025  0.001  0.310
tot    0.567  0.050  0.001  0.619
    1  0.260  0.023  0.001  0.283
    2  0.260  0.023  0.001  0.283
tot    0.520  0.046  0.001  0.567
    1 -0.012 -0.001 -0.000 -0.013
    2 -0.012 -0.001 -0.000 -0.013
tot   -0.023 -0.002 -0.000 -0.025
    1 -0.113 -0.010 -0.000 -0.124
    2 -0.113 -0.010 -0.000 -0.124
tot   -0.227 -0.020 -0.001 -0.248
 
band     5 # energy   -3.60615335 # occ.  1.00000000
 
ion      s      p      d    tot
    1  0.005  0.203  0.002  0.211
    2  0.005  0.203  0.002  0.211
tot    0.011  0.407  0.005  0.423
    1 -0.004 -0.135 -0.001 -0.140
    2 -0.004 -0.135 -0.001 -0.140
tot   -0.008 -0.270 -0.002 -0.280
    1 -0.002 -0.072 -0.001 -0.074
    2 -0.002 -0.072 -0.001 -0.074
tot   -0.004 -0.143 -0.001 -0.149
    1 -0.003 -0.080 -0.000 -0.083
    2 -0.003 -0.080 -0.000 -0.083
tot   -0.006 -0.159 -0.000 -0.165
 
band     6 # energy   -3.60605092 # occ.  1.00000000
 
ion      s      p      d    tot
    1  0.005  0.203  0.002  0.211
    2  0.005  0.203  0.002  0.211
tot    0.011  0.407  0.005  0.423
    1  0.004  0.135  0.001  0.140
    2  0.004  0.135  0.001  0.140
tot    0.008  0.270  0.002  0.280
    1  0.002  0.072  0.001  0.074
    2  0.002  0.072  0.001  0.074
tot    0.004  0.143  0.001  0.149
    1  0.003  0.080  0.000  0.083
    2  0.003  0.080  0.000  0.083
tot    0.006  0.159  0.000  0.165
 
band     7 # energy   -3.09372927 # occ.  1.00000000
 
ion      s      p      d    tot
    1  0.000  0.275  0.013  0.289
    2  0.000  0.275  0.013  0.289
tot    0.001  0.551  0.026  0.577
    1  0.000  0.002  0.000  0.002
    2  0.000  0.002  0.000  0.002
tot    0.000  0.004  0.000  0.005
    1  0.000  0.001  0.000  0.001
    2  0.000  0.001  0.000  0.001
tot    0.000  0.002  0.000  0.003
    1 -0.000  0.242  0.012  0.254
    2 -0.000  0.242  0.012  0.254
tot   -0.001  0.484  0.025  0.508
 
band     8 # energy   -3.09369407 # occ.  1.00000000
 
ion      s      p      d    tot
    1  0.000  0.275  0.013  0.289
    2  0.000  0.275  0.013  0.289
tot    0.001  0.551  0.026  0.577
    1 -0.000 -0.002 -0.000 -0.002
    2 -0.000 -0.002 -0.000 -0.002
tot   -0.000 -0.004 -0.000 -0.004
    1 -0.000 -0.001 -0.000 -0.001
    2 -0.000 -0.001 -0.000 -0.001
tot   -0.000 -0.002 -0.000 -0.002
    1  0.000 -0.242 -0.012 -0.254
    2  0.000 -0.242 -0.012 -0.254
tot    0.001 -0.484 -0.025 -0.508
 
band     9 # energy   -2.88903948 # occ.  1.00000000
 
ion      s      p      d    tot
    1  0.000  0.282  0.015  0.296
    2  0.000  0.282  0.015  0.296
tot    0.000  0.563  0.029  0.592
    1 -0.000 -0.000 -0.000 -0.000
    2 -0.000 -0.000 -0.000 -0.000
tot   -0.000 -0.000 -0.000 -0.000
    1  0.000 -0.000 -0.000 -0.000
    2 -0.000 -0.000 -0.000 -0.000
tot    0.000 -0.000 -0.000 -0.000
    1  0.000  0.279  0.014  0.293
    2  0.000  0.279  0.014  0.293
tot    0.000  0.557  0.029  0.586
 
band    10 # energy   -2.88899843 # occ.  1.00000000
 
ion      s      p      d    tot
    1  0.000  0.282  0.015  0.296
    2  0.000  0.282  0.015  0.296
tot    0.000  0.563  0.029  0.592
    1 -0.000 -0.000 -0.000 -0.000
    2 -0.000 -0.000 -0.000 -0.000
tot   -0.000 -0.000 -0.000 -0.000
    1 -0.000 -0.000 -0.000 -0.000
    2 -0.000 -0.000 -0.000 -0.000
tot   -0.000 -0.000 -0.000 -0.000
    1 -0.000 -0.279 -0.014 -0.293
    2 -0.000 -0.279 -0.014 -0.293
tot   -0.000 -0.557 -0.029 -0.586
 
band    11 # energy   -1.09996863 # occ.  0.00000000
 
ion      s      p      d    tot
    1  0.143  0.120  0.011  0.274
    2  0.143  0.120  0.011  0.274
tot    0.287  0.240  0.021  0.548
    1 -0.062 -0.051 -0.005 -0.118
    2 -0.062 -0.051 -0.005 -0.118
tot   -0.124 -0.103 -0.009 -0.236
    1 -0.094 -0.077 -0.007 -0.178
    2 -0.094 -0.077 -0.007 -0.178
tot   -0.188 -0.155 -0.014 -0.356
    1 -0.089 -0.072 -0.007 -0.167
    2 -0.089 -0.072 -0.007 -0.167
tot   -0.178 -0.144 -0.013 -0.335
 
band    12 # energy   -1.09985059 # occ.  0.00000000
 
ion      s      p      d    tot
    1  0.143  0.120  0.011  0.274
    2  0.143  0.120  0.011  0.274
tot    0.287  0.240  0.021  0.548
    1  0.062  0.051  0.005  0.118
    2  0.062  0.051  0.005  0.118
tot    0.124  0.103  0.009  0.236
    1  0.094  0.077  0.007  0.178
    2  0.094  0.077  0.007  0.178
tot    0.188  0.155  0.014  0.356
    1  0.089  0.072  0.007  0.167
    2  0.089  0.072  0.007  0.167
tot    0.178  0.144  0.013  0.335
 
band    13 # energy    0.36159096 # occ.  0.00000000
 
ion      s      p      d    tot
    1  0.001  0.262  0.018  0.281
    2  0.001  0.262  0.018  0.281
tot    0.002  0.525  0.036  0.562
    1  0.000  0.000  0.000  0.000
    2  0.000  0.000  0.000  0.000
tot    0.000  0.000  0.000  0.000
    1 -0.000  0.000  0.000 -0.000
    2 -0.000  0.000  0.000 -0.000
tot   -0.000  0.000  0.000 -0.000
    1 -0.001  0.260  0.018  0.276
    2 -0.001  0.260  0.018  0.276
tot   -0.002  0.519  0.035  0.553
 
band    14 # energy    0.36163198 # occ.  0.00000000
 
ion      s      p      d    tot
    1  0.001  0.262  0.018  0.281
    2  0.001  0.262  0.018  0.281
tot    0.002  0.525  0.036  0.562
    1 -0.000  0.000 -0.000 -0.000
    2 -0.000  0.000 -0.000 -0.000
tot   -0.000  0.000 -0.000 -0.000
    1  0.000  0.000  0.000  0.000
    2  0.000  0.000  0.000  0.000
tot    0.000  0.000  0.000  0.000
    1  0.001 -0.260 -0.018 -0.276
    2  0.001 -0.260 -0.018 -0.276
tot    0.002 -0.519 -0.035 -0.553
 
band    15 # energy    0.59618112 # occ.  0.00000000
 
ion      s      p      d    tot
    1  0.000  0.257  0.020  0.276
    2  0.000  0.257  0.020  0.276
tot    0.000  0.513  0.039  0.552
    1 -0.000 -0.000 -0.000 -0.000
    2 -0.000 -0.000 -0.000 -0.000
tot   -0.000 -0.000 -0.000 -0.000
    1  0.000 -0.000 -0.000 -0.000
    2  0.000 -0.000 -0.000 -0.000
tot    0.000 -0.000 -0.000 -0.000
    1  0.000  0.255  0.019  0.274
    2  0.000  0.255  0.019  0.274
tot    0.000  0.510  0.039  0.549
 
band    16 # energy    0.59622294 # occ.  0.00000000
 
ion      s      p      d    tot
    1  0.000  0.257  0.020  0.276
    2  0.000  0.257  0.020  0.276
tot    0.000  0.513  0.039  0.552
    1  0.000 -0.000 -0.000 -0.000
    2  0.000 -0.000 -0.000 -0.000
tot    0.000 -0.000 -0.000 -0.000
    1 -0.000 -0.000 -0.000 -0.000
    2 -0.000 -0.000 -0.000 -0.000
tot   -0.000 -0.000 -0.000 -0.000
    1 -0.000 -0.255 -0.019 -0.274
    2 -0.000 -0.255 -0.019 -0.274
tot   -0.000 -0.510 -0.039 -0.549
 
band    17 # energy    1.90398027 # occ.  0.00000000
 
ion      s      p      d    tot
    1  0.000  0.014  0.012  0.027
    2  0.000  0.014  0.012  0.027
tot    0.000  0.028  0.025  0.053
    1  0.000  0.009  0.008  0.018
    2  0.000  0.009  0.008  0.018
tot    0.000  0.019  0.017  0.036
    1  0.000  0.009  0.008  0.017
    2  0.000  0.009  0.008  0.017
tot    0.000  0.018  0.016  0.034
    1  0.000  0.005  0.005  0.010
    2  0.000  0.005  0.005  0.010
tot    0.000  0.010  0.009  0.019
 
band    18 # energy    1.90417793 # occ.  0.00000000
 
ion      s      p      d    tot
    1  0.000  0.014  0.012  0.027
    2  0.000  0.014  0.012  0.027
tot    0.000  0.028  0.025  0.053
    1 -0.000 -0.009 -0.008 -0.018
    2 -0.000 -0.009 -0.008 -0.018
tot   -0.000 -0.019 -0.017 -0.036
    1 -0.000 -0.009 -0.008 -0.017
    2 -0.000 -0.009 -0.008 -0.017
tot   -0.000 -0.018 -0.016 -0.034
    1 -0.000 -0.005 -0.005 -0.010
    2 -0.000 -0.005 -0.005 -0.010
tot   -0.000 -0.010 -0.009 -0.019
 
band    19 # energy    1.99641206 # occ.  0.00000000
 
ion      s      p      d    tot
    1  0.005  0.017  0.000  0.022
    2  0.005  0.017  0.000  0.022
tot    0.010  0.034  0.000  0.044
    1  0.003  0.011  0.000  0.014
    2  0.003  0.011  0.000  0.014
tot    0.006  0.022  0.000  0.028
    1  0.003  0.010  0.000  0.013
    2  0.003  0.010  0.000  0.013
tot    0.006  0.020  0.000  0.026
    1  0.002  0.009 -0.000  0.011
    2  0.002  0.009 -0.000  0.011
tot    0.005  0.017 -0.000  0.022
 
band    20 # energy    1.99686543 # occ.  0.00000000
 
ion      s      p      d    tot
    1  0.005  0.017  0.000  0.022
    2  0.005  0.017  0.000  0.022
tot    0.010  0.034  0.000  0.044
    1 -0.003 -0.011 -0.000 -0.014
    2 -0.003 -0.011 -0.000 -0.014
tot   -0.006 -0.022 -0.000 -0.028
    1 -0.003 -0.010 -0.000 -0.013
    2 -0.003 -0.010 -0.000 -0.013
tot   -0.006 -0.020 -0.000 -0.026
    1 -0.002 -0.009  0.000 -0.011
    2 -0.002 -0.009  0.000 -0.011
tot   -0.005 -0.017  0.000 -0.022
 
band    21 # energy    3.37663779 # occ.  0.00000000
 
ion      s      p      d    tot
    1  0.012  0.026  0.000  0.037
    2  0.012  0.026  0.000  0.037
tot    0.024  0.051  0.000  0.075
    1  0.007  0.015  0.000  0.022
    2  0.007  0.015  0.000  0.022
tot    0.014  0.030  0.000  0.044
    1  0.007  0.015  0.000  0.022
    2  0.007  0.015  0.000  0.022
tot    0.014  0.031  0.000  0.045
    1  0.006  0.014 -0.000  0.020
    2  0.006  0.014 -0.000  0.020
tot    0.013  0.028 -0.000  0.041
 
band    22 # energy    3.37681522 # occ.  0.00000000
 
ion      s      p      d    tot
    1  0.012  0.026  0.000  0.037
    2  0.012  0.026  0.000  0.037
tot    0.024  0.051  0.000  0.075
    1 -0.007 -0.015 -0.000 -0.022
    2 -0.007 -0.015 -0.000 -0.022
tot   -0.014 -0.030 -0.000 -0.044
    1 -0.007 -0.015 -0.000 -0.022
    2 -0.007 -0.015 -0.000 -0.022
tot   -0.014 -0.031 -0.000 -0.045
    1 -0.006 -0.014  0.000 -0.020
    2 -0.006 -0.014  0.000 -0.020
tot   -0.013 -0.028  0.000 -0.041
 
band    23 # energy    4.30391778 # occ.  0.00000000
 
ion      s      p      d    tot
    1  0.002  0.002  0.017  0.021
    2  0.002  0.002  0.017  0.021
tot    0.003  0.004  0.034  0.042
    1  0.001  0.001  0.011  0.014
    2  0.001  0.001  0.011  0.014
tot    0.002  0.003  0.023  0.028
    1  0.001  0.001  0.010  0.012
    2  0.001  0.001  0.010  0.012
tot    0.002  0.002  0.020  0.024
    1  0.001  0.001  0.008  0.010
    2  0.001  0.001  0.008  0.010
tot    0.002  0.002  0.017  0.020
 
band    24 # energy    4.30435661 # occ.  0.00000000
 
ion      s      p      d    tot
    1  0.002  0.002  0.017  0.021
    2  0.002  0.002  0.017  0.021
tot    0.003  0.004  0.034  0.042
    1 -0.001 -0.001 -0.011 -0.014
    2 -0.001 -0.001 -0.011 -0.014
tot   -0.002 -0.003 -0.023 -0.028
    1 -0.001 -0.001 -0.010 -0.012
    2 -0.001 -0.001 -0.010 -0.012
tot   -0.002 -0.002 -0.020 -0.024
    1 -0.001 -0.001 -0.008 -0.010
    2 -0.001 -0.001 -0.008 -0.010
tot   -0.002 -0.002 -0.017 -0.020
 
band    25 # energy    5.86542450 # occ.  0.00000000
 
ion      s      p      d    tot
    1  0.083  0.009  0.007  0.099
    2  0.083  0.009  0.007  0.099
tot    0.166  0.018  0.014  0.197
    1  0.048  0.005  0.004  0.057
    2  0.048  0.005  0.004  0.057
tot    0.096  0.010  0.008  0.115
    1  0.052  0.006  0.004  0.062
    2  0.052  0.006  0.004  0.062
tot    0.105  0.011  0.009  0.125
    1  0.042  0.005  0.003  0.050
    2  0.042  0.005  0.003  0.050
tot    0.085  0.009  0.007  0.101
 
band    26 # energy    5.86557887 # occ.  0.00000000
 
ion      s      p      d    tot
    1  0.083  0.009  0.007  0.099
    2  0.083  0.009  0.007  0.099
tot    0.166  0.018  0.014  0.197
    1 -0.048 -0.005 -0.004 -0.057
    2 -0.048 -0.005 -0.004 -0.057
tot   -0.096 -0.010 -0.008 -0.115
    1 -0.052 -0.006 -0.004 -0.062
    2 -0.052 -0.006 -0.004 -0.062
tot   -0.105 -0.011 -0.009 -0.125
    1 -0.042 -0.005 -0.003 -0.050
    2 -0.042 -0.005 -0.003 -0.050
tot   -0.085 -0.009 -0.007 -0.101
 
band    27 # energy    6.88574706 # occ.  0.00000000
 
ion      s      p      d    tot
    1  0.005  0.027  0.014  0.047
    2  0.005  0.027  0.014  0.047
tot    0.010  0.055  0.029  0.093
    1  0.003  0.018  0.009  0.030
    2  0.003  0.018  0.009  0.030
tot    0.006  0.035  0.019  0.060
    1  0.003  0.016  0.008  0.027
    2  0.003  0.016  0.008  0.027
tot    0.006  0.031  0.016  0.053
    1  0.002  0.014  0.007  0.024
    2  0.002  0.014  0.007  0.024
tot    0.005  0.028  0.014  0.047
 
band    28 # energy    6.88604119 # occ.  0.00000000
 
ion      s      p      d    tot
    1  0.005  0.027  0.014  0.047
    2  0.005  0.027  0.014  0.047
tot    0.010  0.055  0.029  0.093
    1 -0.003 -0.018 -0.009 -0.030
    2 -0.003 -0.018 -0.009 -0.030
tot   -0.006 -0.035 -0.019 -0.060
    1 -0.003 -0.016 -0.008 -0.027
    2 -0.003 -0.016 -0.008 -0.027
tot   -0.006 -0.031 -0.016 -0.053
    1 -0.002 -0.014 -0.007 -0.024
    2 -0.002 -0.014 -0.007 -0.024
tot   -0.005 -0.028 -0.014 -0.047
 
band    29 # energy    7.05892477 # occ.  0.00000000
 
ion      s      p      d    tot
    1  0.000  0.032  0.133  0.165
    2  0.000  0.032  0.133  0.165
tot    0.000  0.064  0.266  0.330
    1 -0.000 -0.000 -0.000 -0.000
    2 -0.000 -0.000 -0.000 -0.000
tot   -0.000 -0.000 -0.000 -0.000
    1 -0.000 -0.000 -0.000 -0.000
    2 -0.000 -0.000 -0.000 -0.000
tot   -0.000 -0.000 -0.000 -0.001
    1 -0.000  0.028  0.121  0.149
    2 -0.000  0.028  0.121  0.149
tot   -0.000  0.056  0.241  0.297
 
band    30 # energy    7.05893252 # occ.  0.00000000
 
ion      s      p      d    tot
    1  0.000  0.032  0.133  0.165
    2  0.000  0.032  0.133  0.165
tot    0.000  0.064  0.266  0.330
    1  0.000  0.000  0.000  0.000
    2  0.000  0.000  0.000  0.000
tot    0.000  0.000  0.000  0.000
    1  0.000  0.000  0.000  0.000
    2  0.000  0.000  0.000  0.000
tot    0.000  0.000  0.000  0.001
    1  0.000 -0.028 -0.121 -0.149
    2  0.000 -0.028 -0.121 -0.149
tot    0.000 -0.056 -0.241 -0.297
 
band    31 # energy    7.08052246 # occ.  0.00000000
 
ion      s      p      d    tot
    1  0.000  0.034  0.133  0.167
    2  0.000  0.034  0.133  0.167
tot    0.000  0.068  0.267  0.334
    1 -0.000 -0.000 -0.000 -0.000
    2 -0.000 -0.000 -0.000 -0.000
tot   -0.000 -0.000 -0.000 -0.000
    1  0.000 -0.000 -0.000 -0.000
    2 -0.000 -0.000 -0.000 -0.000
tot   -0.000 -0.000 -0.000 -0.000
    1  0.000  0.010  0.037  0.047
    2  0.000  0.010  0.037  0.047
tot    0.000  0.020  0.075  0.095
 
band    32 # energy    7.08054207 # occ.  0.00000000
 
ion      s      p      d    tot
    1  0.000  0.034  0.133  0.167
    2  0.000  0.034  0.133  0.167
tot    0.000  0.068  0.267  0.334
    1 -0.000 -0.000 -0.000 -0.000
    2 -0.000 -0.000 -0.000 -0.000
tot   -0.000 -0.000 -0.000 -0.000
    1  0.000 -0.000 -0.000 -0.000
    2  0.000 -0.000 -0.000 -0.000
tot    0.000 -0.000 -0.000 -0.000
    1  0.000 -0.010 -0.037 -0.047
    2  0.000 -0.010 -0.037 -0.047
tot    0.000 -0.020 -0.075 -0.095
 

 k-point     2 :    0.01360544-0.00680272 0.00000000     weight = 0.00666667

band     1 # energy  -16.46969936 # occ.  1.00000000
 
ion      s      p      d    tot
    1  0.268  0.011  0.000  0.279
    2  0.268  0.011  0.000  0.279
tot    0.536  0.021  0.000  0.557
    1  0.122  0.005  0.000  0.127
    2  0.122  0.005  0.000  0.127
tot    0.244  0.010  0.000  0.253
    1  0.078  0.003  0.000  0.081
    2  0.078  0.003  0.000  0.081
tot    0.155  0.006  0.000  0.162
    1  0.226  0.009  0.000  0.235
    2  0.226  0.009  0.000  0.235
tot    0.451  0.018  0.000  0.469
 
band     2 # energy  -16.46968250 # occ.  1.00000000
 
ion      s      p      d    tot
    1  0.268  0.011  0.000  0.279
    2  0.268  0.011  0.000  0.279
tot    0.536  0.021  0.000  0.557
    1 -0.122 -0.005 -0.000 -0.127
    2 -0.122 -0.005 -0.000 -0.127
tot   -0.244 -0.010 -0.000 -0.253
    1 -0.078 -0.003 -0.000 -0.081
    2 -0.078 -0.003 -0.000 -0.081
tot   -0.155 -0.006 -0.000 -0.162
    1 -0.226 -0.009 -0.000 -0.235
    2 -0.226 -0.009 -0.000 -0.235
tot   -0.451 -0.018 -0.000 -0.469
 
band     3 # energy  -10.18408639 # occ.  1.00000000
 
ion      s      p      d    tot
    1  0.284  0.025  0.001  0.310
    2  0.284  0.025  0.001  0.310
tot    0.568  0.050  0.001  0.619
    1 -0.260 -0.023 -0.001 -0.283
    2 -0.260 -0.023 -0.001 -0.283
tot   -0.520 -0.046 -0.001 -0.567
    1  0.012  0.001  0.000  0.013
    2  0.012  0.001  0.000  0.013
tot    0.023  0.002  0.000  0.025
    1  0.114  0.010  0.000  0.124
    2  0.114  0.010  0.000  0.124
tot    0.227  0.020  0.001  0.248
 
band     4 # energy  -10.18405845 # occ.  1.00000000
 
ion      s      p      d    tot
    1  0.284  0.025  0.001  0.310
    2  0.284  0.025  0.001  0.310
tot    0.568  0.050  0.001  0.619
    1  0.260  0.023  0.001  0.283
    2  0.260  0.023  0.001  0.283
tot    0.520  0.046  0.001  0.567
    1 -0.012 -0.001 -0.000 -0.013
    2 -0.012 -0.001 -0.000 -0.013
tot   -0.023 -0.002 -0.000 -0.025
    1 -0.114 -0.010 -0.000 -0.124
    2 -0.114 -0.010 -0.000 -0.124
tot   -0.227 -0.020 -0.001 -0.248
 
band     5 # energy   -3.60628681 # occ.  1.00000000
 
ion      s      p      d    tot
    1  0.006  0.202  0.003  0.210
    2  0.005  0.206  0.002  0.213
tot    0.011  0.408  0.005  0.424
    1 -0.004 -0.134 -0.001 -0.139
    2 -0.004 -0.134 -0.001 -0.139
tot   -0.008 -0.268 -0.002 -0.278
    1 -0.003 -0.067 -0.001 -0.071
    2 -0.001 -0.075 -0.000 -0.077
tot   -0.004 -0.142 -0.001 -0.148
    1 -0.003 -0.079 -0.000 -0.082
    2 -0.003 -0.079 -0.000 -0.082
tot   -0.005 -0.158 -0.000 -0.163
 
band     6 # energy   -3.60618455 # occ.  1.00000000
 
ion      s      p      d    tot
    1  0.005  0.206  0.002  0.213
    2  0.006  0.202  0.003  0.210
tot    0.011  0.408  0.005  0.424
    1  0.004  0.134  0.001  0.139
    2  0.004  0.134  0.001  0.139
tot    0.008  0.268  0.002  0.278
    1  0.001  0.075  0.000  0.077
    2  0.003  0.067  0.001  0.071
tot    0.004  0.142  0.001  0.148
    1  0.003  0.079  0.000  0.082
    2  0.003  0.079  0.000  0.082
tot    0.006  0.158  0.000  0.163
 
band     7 # energy   -3.10754580 # occ.  1.00000000
 
ion      s      p      d    tot
    1  0.001  0.273  0.013  0.287
    2  0.001  0.275  0.013  0.288
tot    0.002  0.548  0.026  0.575
    1 -0.000 -0.001 -0.000 -0.001
    2 -0.000 -0.001 -0.000 -0.001
tot   -0.000 -0.002 -0.000 -0.002
    1  0.001  0.002  0.001  0.004
    2 -0.001  0.013  0.000  0.012
tot    0.000  0.015  0.001  0.016
    1  0.000  0.238  0.012  0.251
    2  0.000  0.239  0.012  0.251
tot    0.001  0.477  0.025  0.502
 
band     8 # energy   -3.10751061 # occ.  1.00000000
 
ion      s      p      d    tot
    1  0.001  0.275  0.013  0.288
    2  0.001  0.273  0.013  0.287
tot    0.002  0.548  0.026  0.575
    1  0.000  0.001  0.000  0.001
    2  0.000  0.001  0.000  0.001
tot    0.000  0.002  0.000  0.002
    1  0.001 -0.013 -0.000 -0.012
    2 -0.001 -0.002 -0.001 -0.004
tot   -0.000 -0.015 -0.001 -0.016
    1 -0.000 -0.239 -0.012 -0.251
    2 -0.000 -0.238 -0.012 -0.251
tot   -0.001 -0.477 -0.025 -0.502
 
band     9 # energy   -2.90509973 # occ.  1.00000000
 
ion      s      p      d    tot
    1  0.001  0.280  0.014  0.296
    2  0.001  0.280  0.014  0.295
tot    0.002  0.561  0.029  0.591
    1  0.000 -0.001 -0.000 -0.001
    2  0.000 -0.001 -0.000 -0.001
tot    0.000 -0.001 -0.000 -0.001
    1 -0.000  0.009  0.000  0.009
    2 -0.000  0.005  0.000  0.005
tot   -0.000  0.014  0.001  0.015
    1  0.001  0.274  0.014  0.289
    2  0.001  0.274  0.014  0.288
tot    0.001  0.547  0.028  0.577
 
band    10 # energy   -2.90505919 # occ.  1.00000000
 
ion      s      p      d    tot
    1  0.001  0.280  0.014  0.295
    2  0.001  0.280  0.014  0.296
tot    0.002  0.561  0.029  0.591
    1 -0.000  0.000  0.000  0.000
    2 -0.000  0.000  0.000  0.000
tot   -0.000  0.001  0.000  0.001
    1  0.000 -0.005 -0.000 -0.006
    2  0.000 -0.009 -0.000 -0.009
tot    0.000 -0.015 -0.001 -0.015
    1 -0.001 -0.274 -0.014 -0.288
    2 -0.001 -0.274 -0.014 -0.289
tot   -0.001 -0.547 -0.028 -0.577
 
band    11 # energy   -1.07655104 # occ.  0.00000000
 
ion      s      p      d    tot
    1  0.141  0.124  0.011  0.276
    2  0.142  0.121  0.011  0.274
tot    0.283  0.245  0.021  0.550
    1 -0.062 -0.052 -0.005 -0.118
    2 -0.062 -0.052 -0.005 -0.118
tot   -0.123 -0.105 -0.009 -0.237
    1 -0.092 -0.082 -0.007 -0.181
    2 -0.093 -0.076 -0.007 -0.176
tot   -0.185 -0.158 -0.014 -0.357
    1 -0.088 -0.074 -0.006 -0.168
    2 -0.088 -0.073 -0.006 -0.168
tot   -0.176 -0.147 -0.013 -0.336
 
band    12 # energy   -1.07643520 # occ.  0.00000000
 
ion      s      p      d    tot
    1  0.142  0.121  0.011  0.274
    2  0.141  0.124  0.011  0.276
tot    0.283  0.245  0.021  0.550
    1  0.062  0.052  0.005  0.118
    2  0.062  0.052  0.005  0.118
tot    0.123  0.105  0.009  0.237
    1  0.093  0.076  0.007  0.176
    2  0.092  0.082  0.007  0.181
tot    0.185  0.158  0.014  0.357
    1  0.088  0.073  0.006  0.168
    2  0.088  0.074  0.006  0.168
tot    0.176  0.147  0.013  0.336
 
band    13 # energy    0.36169593 # occ.  0.00000000
 
ion      s      p      d    tot
    1  0.001  0.262  0.018  0.281
    2  0.001  0.262  0.018  0.281
tot    0.002  0.524  0.036  0.562
    1  0.000 -0.001 -0.000 -0.001
    2  0.000 -0.001 -0.000 -0.001
tot    0.000 -0.002 -0.000 -0.002
    1 -0.001  0.001 -0.000  0.001
    2  0.001 -0.003  0.000 -0.002
tot    0.000 -0.002 -0.000 -0.002
    1 -0.001  0.261  0.018  0.277
    2 -0.001  0.260  0.018  0.277
tot   -0.001  0.521  0.035  0.555
 
band    14 # energy    0.36173647 # occ.  0.00000000
 
ion      s      p      d    tot
    1  0.001  0.262  0.018  0.281
    2  0.001  0.262  0.018  0.281
tot    0.002  0.524  0.036  0.562
    1 -0.000  0.001  0.000  0.001
    2 -0.000  0.001  0.000  0.001
tot   -0.000  0.002  0.000  0.002
    1 -0.001  0.003 -0.000  0.002
    2  0.001 -0.001  0.000 -0.000
tot   -0.000  0.002  0.000  0.002
    1  0.001 -0.260 -0.018 -0.277
    2  0.001 -0.261 -0.018 -0.277
tot    0.001 -0.521 -0.035 -0.555
 
band    15 # energy    0.59548436 # occ.  0.00000000
 
ion      s      p      d    tot
    1  0.000  0.256  0.020  0.276
    2  0.000  0.257  0.020  0.276
tot    0.000  0.513  0.039  0.552
    1 -0.000  0.000  0.000  0.000
    2 -0.000  0.000  0.000  0.000
tot   -0.000  0.001  0.000  0.001
    1  0.000 -0.002 -0.000 -0.002
    2  0.000 -0.002 -0.000 -0.002
tot    0.000 -0.003 -0.000 -0.004
    1  0.000  0.255  0.019  0.275
    2  0.000  0.256  0.019  0.275
tot    0.000  0.511  0.039  0.550
 
band    16 # energy    0.59552569 # occ.  0.00000000
 
ion      s      p      d    tot
    1  0.000  0.257  0.020  0.276
    2  0.000  0.256  0.020  0.276
tot    0.000  0.513  0.039  0.552
    1  0.000 -0.000 -0.000 -0.000
    2  0.000 -0.000 -0.000 -0.000
tot    0.000 -0.001 -0.000 -0.001
    1 -0.000  0.002  0.000  0.002
    2 -0.000  0.002  0.000  0.002
tot   -0.000  0.003  0.000  0.003
    1 -0.000 -0.256 -0.019 -0.275
    2 -0.000 -0.255 -0.019 -0.275
tot   -0.000 -0.511 -0.039 -0.550
 
band    17 # energy    1.90662005 # occ.  0.00000000
 
ion      s      p      d    tot
    1  0.000  0.014  0.012  0.027
    2  0.000  0.014  0.012  0.027
tot    0.000  0.028  0.025  0.053
    1  0.000  0.009  0.008  0.018
    2  0.000  0.009  0.008  0.018
tot    0.000  0.019  0.017  0.036
    1  0.000  0.009  0.008  0.017
    2  0.000  0.009  0.008  0.017
tot    0.000  0.018  0.016  0.034
    1  0.000  0.005  0.005  0.010
    2  0.000  0.005  0.005  0.010
tot    0.000  0.010  0.009  0.019
 
band    18 # energy    1.90681778 # occ.  0.00000000
 
ion      s      p      d    tot
    1  0.000  0.014  0.012  0.027
    2  0.000  0.014  0.012  0.027
tot    0.000  0.028  0.025  0.053
    1 -0.000 -0.009 -0.008 -0.018
    2 -0.000 -0.009 -0.008 -0.018
tot   -0.000 -0.019 -0.017 -0.036
    1 -0.000 -0.009 -0.008 -0.017
    2 -0.000 -0.009 -0.008 -0.017
tot   -0.000 -0.018 -0.016 -0.034
    1 -0.000 -0.005 -0.005 -0.010
    2 -0.000 -0.005 -0.005 -0.010
tot   -0.000 -0.010 -0.009 -0.019
 
band    19 # energy    1.99873911 # occ.  0.00000000
 
ion      s      p      d    tot
    1  0.005  0.017  0.000  0.022
    2  0.005  0.017  0.000  0.022
tot    0.009  0.034  0.000  0.044
    1  0.003  0.011  0.000  0.014
    2  0.003  0.011  0.000  0.014
tot    0.006  0.022  0.000  0.028
    1  0.003  0.010  0.000  0.013
    2  0.003  0.010  0.000  0.013
tot    0.006  0.020  0.000  0.026
    1  0.002  0.009  0.000  0.011
    2  0.002  0.009  0.000  0.011
tot    0.005  0.017  0.000  0.022
 
band    20 # energy    1.99919252 # occ.  0.00000000
 
ion      s      p      d    tot
    1  0.005  0.017  0.000  0.022
    2  0.005  0.017  0.000  0.022
tot    0.009  0.034  0.000  0.044
    1 -0.003 -0.011 -0.000 -0.014
    2 -0.003 -0.011 -0.000 -0.014
tot   -0.006 -0.022 -0.000 -0.028
    1 -0.003 -0.010 -0.000 -0.013
    2 -0.003 -0.010 -0.000 -0.013
tot   -0.006 -0.020 -0.000 -0.026
    1 -0.002 -0.009 -0.000 -0.011
    2 -0.002 -0.009 -0.000 -0.011
tot   -0.005 -0.017 -0.000 -0.022
 
band    21 # energy    3.37882187 # occ.  0.00000000
 
ion      s      p      d    tot
    1  0.012  0.026  0.000  0.037
    2  0.012  0.026  0.000  0.037
tot    0.024  0.051  0.000  0.075
    1  0.007  0.015  0.000  0.022
    2  0.007  0.015  0.000  0.022
tot    0.014  0.030  0.000  0.044
    1  0.007  0.015  0.000  0.022
    2  0.007  0.015  0.000  0.022
tot    0.014  0.031  0.000  0.045
    1  0.006  0.014  0.000  0.020
    2  0.006  0.014  0.000  0.020
tot    0.013  0.028  0.000  0.041
 
band    22 # energy    3.37899932 # occ.  0.00000000
 
ion      s      p      d    tot
    1  0.012  0.026  0.000  0.037
    2  0.012  0.026  0.000  0.037
tot    0.024  0.051  0.000  0.075
    1 -0.007 -0.015 -0.000 -0.022
    2 -0.007 -0.015 -0.000 -0.022
tot   -0.014 -0.030 -0.000 -0.044
    1 -0.007 -0.015 -0.000 -0.022
    2 -0.007 -0.015 -0.000 -0.022
tot   -0.014 -0.031 -0.000 -0.045
    1 -0.006 -0.014 -0.000 -0.020
    2 -0.006 -0.014 -0.000 -0.020
tot   -0.013 -0.028 -0.000 -0.041
 
band    23 # energy    4.30613425 # occ.  0.00000000
 
ion      s      p      d    tot
    1  0.002  0.002  0.017  0.021
    2  0.002  0.002  0.017  0.021
tot    0.003  0.004  0.034  0.042
    1  0.001  0.001  0.011  0.014
    2  0.001  0.001  0.011  0.014
tot    0.002  0.003  0.023  0.028
    1  0.001  0.001  0.010  0.012
    2  0.001  0.001  0.010  0.012
tot    0.002  0.002  0.020  0.024
    1  0.001  0.001  0.008  0.010
    2  0.001  0.001  0.008  0.010
tot    0.002  0.002  0.017  0.020
 
band    24 # energy    4.30657305 # occ.  0.00000000
 
ion      s      p      d    tot
    1  0.002  0.002  0.017  0.021
    2  0.002  0.002  0.017  0.021
tot    0.003  0.004  0.034  0.042
    1 -0.001 -0.001 -0.011 -0.014
    2 -0.001 -0.001 -0.011 -0.014
tot   -0.002 -0.003 -0.023 -0.028
    1 -0.001 -0.001 -0.010 -0.012
    2 -0.001 -0.001 -0.010 -0.012
tot   -0.002 -0.002 -0.020 -0.024
    1 -0.001 -0.001 -0.008 -0.010
    2 -0.001 -0.001 -0.008 -0.010
tot   -0.002 -0.002 -0.017 -0.020
 
band    25 # energy    5.87410405 # occ.  0.00000000
 
ion      s      p      d    tot
    1  0.082  0.010  0.007  0.099
    2  0.082  0.010  0.007  0.099
tot    0.165  0.019  0.013  0.198
    1  0.048  0.006  0.004  0.057
    2  0.048  0.006  0.004  0.057
tot    0.096  0.011  0.008  0.115
    1  0.052  0.006  0.004  0.063
    2  0.052  0.006  0.004  0.062
tot    0.104  0.012  0.009  0.125
    1  0.042  0.005  0.003  0.050
    2  0.042  0.005  0.003  0.050
tot    0.084  0.010  0.007  0.101
 
band    26 # energy    5.87426075 # occ.  0.00000000
 
ion      s      p      d    tot
    1  0.082  0.010  0.007  0.099
    2  0.083  0.010  0.007  0.099
tot    0.165  0.019  0.014  0.198
    1 -0.048 -0.006 -0.004 -0.058
    2 -0.048 -0.006 -0.004 -0.058
tot   -0.096 -0.011 -0.008 -0.115
    1 -0.052 -0.006 -0.004 -0.062
    2 -0.052 -0.006 -0.004 -0.063
tot   -0.104 -0.012 -0.009 -0.125
    1 -0.042 -0.005 -0.003 -0.050
    2 -0.042 -0.005 -0.003 -0.050
tot   -0.084 -0.010 -0.007 -0.101
 
band    27 # energy    6.82965612 # occ.  0.00000000
 
ion      s      p      d    tot
    1  0.004  0.029  0.040  0.072
    2  0.004  0.031  0.038  0.073
tot    0.007  0.059  0.078  0.145
    1  0.002  0.019  0.025  0.047
    2  0.002  0.019  0.025  0.047
tot    0.005  0.038  0.050  0.093
    1  0.002  0.016  0.024  0.042
    2  0.002  0.019  0.021  0.042
tot    0.004  0.034  0.045  0.083
    1  0.002  0.015  0.019  0.036
    2  0.002  0.015  0.019  0.036
tot    0.004  0.030  0.039  0.072
 
band    28 # energy    6.82988008 # occ.  0.00000000
 
ion      s      p      d    tot
    1  0.004  0.031  0.038  0.073
    2  0.004  0.029  0.040  0.072
tot    0.007  0.059  0.078  0.145
    1 -0.002 -0.019 -0.025 -0.047
    2 -0.002 -0.019 -0.025 -0.047
tot   -0.005 -0.038 -0.050 -0.093
    1 -0.002 -0.019 -0.021 -0.042
    2 -0.002 -0.016 -0.024 -0.042
tot   -0.004 -0.034 -0.045 -0.084
    1 -0.002 -0.015 -0.019 -0.036