   2   2   1   0
  0.1300420E+03  0.4332429E-09  0.4332429E-09  0.1600000E-08  0.5000000E-15
  1.000000000000000E-004
  CAR 
 unknown system                          
      5.15760642    -15.99201793 6001     -2.63955466      1.00000000
    -15.992  0.0000E+00  0.0000E+00
    -15.988  0.0000E+00  0.0000E+00
    -15.985  0.0000E+00  0.0000E+00
    -15.981  0.0000E+00  0.0000E+00
    -15.978  0.0000E+00  0.0000E+00
    -15.974  0.0000E+00  0.0000E+00
    -15.971  0.0000E+00  0.0000E+00
    -15.967  0.0000E+00  0.0000E+00
    -15.964  0.0000E+00  0.0000E+00
    -15.960  0.0000E+00  0.0000E+00
    -15.957  0.0000E+00  0.0000E+00
    -15.953  0.0000E+00  0.0000E+00
    -15.950  0.0000E+00  0.0000E+00
    -15.946  0.0000E+00  0.0000E+00
    -15.943  0.0000E+00  0.0000E+00
    -15.939  0.0000E+00  0.0000E+00
    -15.936  0.0000E+00  0.0000E+00
    -15.932  0.0000E+00  0.0000E+00
    -15.929  0.0000E+00  0.0000E+00
    -15.925  0.0000E+00  0.0000E+00
    -15.922  0.0000E+00  0.0000E+00
    -15.918  0.0000E+00  0.0000E+00
    -15.914  0.0000E+00  0.0000E+00
    -15.911  0.0000E+00  0.0000E+00
    -15.907  0.0000E+00  0.0000E+00
    -15.904  0.0000E+00  0.0000E+00
    -15.900  0.0000E+00  0.0000E+00
    -15.897  0.0000E+00  0.0000E+00
    -15.893  0.0000E+00  0.0000E+00
    -15.890  0.0000E+00  0.0000E+00
    -15.886  0.0000E+00  0.0000E+00
    -15.883  0.0000E+00  0.0000E+00
    -15.879  0.0000E+00  0.0000E+00
    -15.876  0.0000E+00  0.0000E+00
    -15.872  0.0000E+00  0.0000E+00
    -15.869  0.0000E+00  0.0000E+00
    -15.865  0.0000E+00  0.0000E+00
    -15.862  0.0000E+00  0.0000E+00
    -15.858  0.0000E+00  0.0000E+00
    -15.855  0.0000E+00  0.0000E+00
    -15.851  0.0000E+00  0.0000E+00
    -15.847  0.0000E+00  0.0000E+00
    -15.844  0.0000E+00  0.0000E+00
    -15.840  0.0000E+00  0.0000E+00
    -15.837  0.0000E+00  0.0000E+00
    -15.833  0.0000E+00  0.0000E+00
    -15.830  0.0000E+00  0.0000E+00
    -15.826  0.0000E+00  0.0000E+00
    -15.823  0.0000E+00  0.0000E+00
    -15.819  0.0000E+00  0.0000E+00
    -15.816  0.0000E+00  0.0000E+00
    -15.812  0.0000E+00  0.0000E+00
    -15.809  0.0000E+00  0.0000E+00
    -15.805  0.0000E+00  0.0000E+00
    -15.802  0.0000E+00  0.0000E+00
    -15.798  0.0000E+00  0.0000E+00
    -15.795  0.0000E+00  0.0000E+00
    -15.791  0.0000E+00  0.0000E+00
    -15.788  0.0000E+00  0.0000E+00
    -15.784  0.0000E+00  0.0000E+00
    -15.781  0.0000E+00  0.0000E+00
    -15.777  0.0000E+00  0.0000E+00
    -15.773  0.0000E+00  0.0000E+00
    -15.770  0.0000E+00  0.0000E+00
    -15.766  0.0000E+00  0.0000E+00
    -15.763  0.0000E+00  0.0000E+00
    -15.759  0.0000E+00  0.0000E+00
    -15.756  0.0000E+00  0.0000E+00
    -15.752  0.0000E+00  0.0000E+00
    -15.749  0.0000E+00  0.0000E+00
    -15.745  0.0000E+00  0.0000E+00
    -15.742  0.0000E+00  0.0000E+00
    -15.738  0.0000E+00  0.0000E+00
    -15.735  0.0000E+00  0.0000E+00
    -15.731  0.0000E+00  0.0000E+00
    -15.728  0.0000E+00  0.0000E+00
    -15.724  0.0000E+00  0.0000E+00
    -15.721  0.0000E+00  0.0000E+00
    -15.717  0.0000E+00  0.0000E+00
    -15.714  0.0000E+00  0.0000E+00
    -15.710  0.0000E+00  0.0000E+00
    -15.706  0.0000E+00  0.0000E+00
    -15.703  0.0000E+00  0.0000E+00
    -15.699  0.0000E+00  0.0000E+00
    -15.696  0.0000E+00  0.0000E+00
    -15.692  0.0000E+00  0.0000E+00
    -15.689  0.0000E+00  0.0000E+00
    -15.685  0.0000E+00  0.0000E+00
    -15.682  0.0000E+00  0.0000E+00
    -15.678  0.0000E+00  0.0000E+00
    -15.675  0.0000E+00  0.0000E+00
    -15.671  0.0000E+00  0.0000E+00
    -15.668  0.0000E+00  0.0000E+00
    -15.664  0.0000E+00  0.0000E+00
    -15.661  0.0000E+00  0.0000E+00
    -15.657  0.0000E+00  0.0000E+00
    -15.654  0.0000E+00  0.0000E+00
    -15.650  0.0000E+00  0.0000E+00
    -15.647  0.0000E+00  0.0000E+00
    -15.643  0.0000E+00  0.0000E+00
    -15.640  0.0000E+00  0.0000E+00
    -15.636  0.0000E+00  0.0000E+00
    -15.632  0.0000E+00  0.0000E+00
    -15.629  0.0000E+00  0.0000E+00
    -15.625  0.0000E+00  0.0000E+00
    -15.622  0.0000E+00  0.0000E+00
    -15.618  0.0000E+00  0.0000E+00
    -15.615  0.0000E+00  0.0000E+00
    -15.611  0.0000E+00  0.0000E+00
    -15.608  0.0000E+00  0.0000E+00
    -15.604  0.0000E+00  0.0000E+00
    -15.601  0.0000E+00  0.0000E+00
    -15.597  0.0000E+00  0.0000E+00
    -15.594  0.0000E+00  0.0000E+00
    -15.590  0.0000E+00  0.0000E+00
    -15.587  0.0000E+00  0.0000E+00
    -15.583  0.0000E+00  0.0000E+00
    -15.580  0.0000E+00  0.0000E+00
    -15.576  0.0000E+00  0.0000E+00
    -15.573  0.0000E+00  0.0000E+00
    -15.569  0.0000E+00  0.0000E+00
    -15.566  0.0000E+00  0.0000E+00
    -15.562  0.0000E+00  0.0000E+00
    -15.558  0.0000E+00  0.0000E+00
    -15.555  0.0000E+00  0.0000E+00
    -15.551  0.0000E+00  0.0000E+00
    -15.548  0.0000E+00  0.0000E+00
    -15.544  0.0000E+00  0.0000E+00
    -15.541  0.0000E+00  0.0000E+00
    -15.537  0.0000E+00  0.0000E+00
    -15.534  0.0000E+00  0.0000E+00
    -15.530  0.0000E+00  0.0000E+00
    -15.527  0.0000E+00  0.0000E+00
    -15.523  0.0000E+00  0.0000E+00
    -15.520  0.0000E+00  0.0000E+00
    -15.516  0.0000E+00  0.0000E+00
    -15.513  0.0000E+00  0.0000E+00
    -15.509  0.0000E+00  0.0000E+00
    -15.506  0.0000E+00  0.0000E+00
    -15.502  0.0000E+00  0.0000E+00
    -15.499  0.0000E+00  0.0000E+00
    -15.495  0.0000E+00  0.0000E+00
    -15.491  0.0000E+00  0.0000E+00
    -15.488  0.0000E+00  0.0000E+00
    -15.484  0.0000E+00  0.0000E+00
    -15.481  0.0000E+00  0.0000E+00
    -15.477  0.0000E+00  0.0000E+00
    -15.474  0.0000E+00  0.0000E+00
    -15.470  0.0000E+00  0.0000E+00
    -15.467  0.0000E+00  0.0000E+00
    -15.463  0.0000E+00  0.0000E+00
    -15.460  0.0000E+00  0.0000E+00
    -15.456  0.0000E+00  0.0000E+00
    -15.453  0.0000E+00  0.0000E+00
    -15.449  0.0000E+00  0.0000E+00
    -15.446  0.0000E+00  0.0000E+00
    -15.442  0.0000E+00  0.0000E+00
    -15.439  0.0000E+00  0.0000E+00
    -15.435  0.0000E+00  0.0000E+00
    -15.432  0.0000E+00  0.0000E+00
    -15.428  0.0000E+00  0.0000E+00
    -15.425  0.0000E+00  0.0000E+00
    -15.421  0.0000E+00  0.0000E+00
    -15.417  0.0000E+00  0.0000E+00
    -15.414  0.0000E+00  0.0000E+00
    -15.410  0.0000E+00  0.0000E+00
    -15.407  0.0000E+00  0.0000E+00
    -15.403  0.0000E+00  0.0000E+00
    -15.400  0.0000E+00  0.0000E+00
    -15.396  0.0000E+00  0.0000E+00
    -15.393  0.0000E+00  0.0000E+00
    -15.389  0.0000E+00  0.0000E+00
    -15.386  0.0000E+00  0.0000E+00
    -15.382  0.0000E+00  0.0000E+00
    -15.379  0.0000E+00  0.0000E+00
    -15.375  0.0000E+00  0.0000E+00
    -15.372  0.0000E+00  0.0000E+00
    -15.368  0.0000E+00  0.0000E+00
    -15.365  0.0000E+00  0.0000E+00
    -15.361  0.0000E+00  0.0000E+00
    -15.358  0.0000E+00  0.0000E+00
    -15.354  0.0000E+00  0.0000E+00
    -15.350  0.0000E+00  0.0000E+00
    -15.347  0.0000E+00  0.0000E+00
    -15.343  0.0000E+00  0.0000E+00
    -15.340  0.0000E+00  0.0000E+00
    -15.336  0.0000E+00  0.0000E+00
    -15.333  0.0000E+00  0.0000E+00
    -15.329  0.0000E+00  0.0000E+00
    -15.326  0.0000E+00  0.0000E+00
    -15.322  0.0000E+00  0.0000E+00
    -15.319  0.0000E+00  0.0000E+00
    -15.315  0.0000E+00  0.0000E+00
    -15.312  0.0000E+00  0.0000E+00
    -15.308  0.0000E+00  0.0000E+00
    -15.305  0.0000E+00  0.0000E+00
    -15.301  0.0000E+00  0.0000E+00
    -15.298  0.0000E+00  0.0000E+00
    -15.294  0.0000E+00  0.0000E+00
    -15.291  0.0000E+00  0.0000E+00
    -15.287  0.0000E+00  0.0000E+00
    -15.284  0.0000E+00  0.0000E+00
    -15.280  0.0000E+00  0.0000E+00
    -15.276  0.0000E+00  0.0000E+00
    -15.273  0.0000E+00  0.0000E+00
    -15.269  0.0000E+00  0.0000E+00
    -15.266  0.0000E+00  0.0000E+00
    -15.262  0.0000E+00  0.0000E+00
    -15.259  0.0000E+00  0.0000E+00
    -15.255  0.0000E+00  0.0000E+00
    -15.252  0.0000E+00  0.0000E+00
    -15.248  0.0000E+00  0.0000E+00
    -15.245  0.0000E+00  0.0000E+00
    -15.241  0.0000E+00  0.0000E+00
    -15.238  0.0000E+00  0.0000E+00
    -15.234  0.0000E+00  0.0000E+00
    -15.231  0.0000E+00  0.0000E+00
    -15.227  0.0000E+00  0.0000E+00
    -15.224  0.0000E+00  0.0000E+00
    -15.220  0.0000E+00  0.0000E+00
    -15.217  0.0000E+00  0.0000E+00
    -15.213  0.0000E+00  0.0000E+00
    -15.209  0.0000E+00  0.0000E+00
    -15.206  0.0000E+00  0.0000E+00
    -15.202  0.0000E+00  0.0000E+00
    -15.199  0.0000E+00  0.0000E+00
    -15.195  0.0000E+00  0.0000E+00
    -15.192  0.0000E+00  0.0000E+00
    -15.188  0.0000E+00  0.0000E+00
    -15.185  0.0000E+00  0.0000E+00
    -15.181  0.0000E+00  0.0000E+00
    -15.178  0.0000E+00  0.0000E+00
    -15.174  0.0000E+00  0.0000E+00
    -15.171  0.0000E+00  0.0000E+00
    -15.167  0.0000E+00  0.0000E+00
    -15.164  0.0000E+00  0.0000E+00
    -15.160  0.0000E+00  0.0000E+00
    -15.157  0.0000E+00  0.0000E+00
    -15.153  0.0000E+00  0.0000E+00
    -15.150  0.0000E+00  0.0000E+00
    -15.146  0.0000E+00  0.0000E+00
    -15.143  0.0000E+00  0.0000E+00
    -15.139  0.0000E+00  0.0000E+00
    -15.135  0.0000E+00  0.0000E+00
    -15.132  0.0000E+00  0.0000E+00
    -15.128  0.0000E+00  0.0000E+00
    -15.125  0.0000E+00  0.0000E+00
    -15.121  0.0000E+00  0.0000E+00
    -15.118  0.0000E+00  0.0000E+00
    -15.114  0.0000E+00  0.0000E+00
    -15.111  0.0000E+00  0.0000E+00
    -15.107  0.0000E+00  0.0000E+00
    -15.104  0.0000E+00  0.0000E+00
    -15.100  0.0000E+00  0.0000E+00
    -15.097  0.0000E+00  0.0000E+00
    -15.093  0.0000E+00  0.0000E+00
    -15.090  0.8677E-17  0.3058E-19
    -15.086  0.3413E-15  0.1234E-17
    -15.083  0.1613E-13  0.5810E-16
    -15.079  0.5888E-12  0.2134E-14
    -15.076  0.1681E-10  0.6140E-13
    -15.072  0.3757E-09  0.1386E-11
    -15.068  0.6569E-08  0.2454E-10
    -15.065  0.8992E-07  0.3415E-09
    -15.061  0.9637E-06  0.3739E-08
    -15.058  0.8089E-05  0.3225E-07
    -15.054  0.5317E-04  0.2197E-06
    -15.051  0.2738E-03  0.1185E-05
    -15.047  0.1105E-02  0.5080E-05
    -15.044  0.3494E-02  0.1739E-04
    -15.040  0.8658E-02  0.4792E-04
    -15.037  0.1682E-01  0.1072E-03
    -15.033  0.2561E-01  0.1975E-03
    -15.030  0.3057E-01  0.3052E-03
    -15.026  0.2861E-01  0.4061E-03
    -15.023  0.2099E-01  0.4801E-03
    -15.019  0.1207E-01  0.5226E-03
    -15.016  0.5442E-02  0.5418E-03
    -15.012  0.1923E-02  0.5486E-03
    -15.009  0.5325E-03  0.5505E-03
    -15.005  0.1155E-03  0.5509E-03
    -15.002  0.1964E-04  0.5510E-03
    -14.998  0.2622E-05  0.5510E-03
    -14.994  0.3708E-06  0.5510E-03
    -14.991  0.1257E-05  0.5510E-03
    -14.987  0.1219E-04  0.5510E-03
    -14.984  0.9420E-04  0.5513E-03
    -14.980  0.5702E-03  0.5534E-03
    -14.977  0.2704E-02  0.5629E-03
    -14.973  0.1005E-01  0.5983E-03
    -14.970  0.2927E-01  0.7015E-03
    -14.966  0.6680E-01  0.9369E-03
    -14.963  0.1195E+00  0.1358E-02
    -14.959  0.1676E+00  0.1949E-02
    -14.956  0.1843E+00  0.2599E-02
    -14.952  0.1589E+00  0.3159E-02
    -14.949  0.1074E+00  0.3537E-02
    -14.945  0.5687E-01  0.3738E-02
    -14.942  0.2361E-01  0.3821E-02
    -14.938  0.7685E-02  0.3848E-02
    -14.935  0.1960E-02  0.3855E-02
    -14.931  0.3916E-03  0.3857E-02
    -14.927  0.6131E-04  0.3857E-02
    -14.924  0.7517E-05  0.3857E-02
    -14.920  0.7218E-06  0.3857E-02
    -14.917  0.5427E-07  0.3857E-02
    -14.913  0.3194E-08  0.3857E-02
    -14.910  0.1471E-09  0.3857E-02
    -14.906  0.5303E-11  0.3857E-02
    -14.903  0.1496E-12  0.3857E-02
    -14.899  0.3332E-14  0.3857E-02
    -14.896  0.0000E+00  0.3857E-02
    -14.892  0.0000E+00  0.3857E-02
    -14.889  0.0000E+00  0.3857E-02
    -14.885  0.0000E+00  0.3857E-02
    -14.882  0.0000E+00  0.3857E-02
    -14.878  0.0000E+00  0.3857E-02
    -14.875  0.0000E+00  0.3857E-02
    -14.871  0.4685E-15  0.3857E-02
    -14.868  0.2480E-13  0.3857E-02
    -14.864  0.9886E-12  0.3857E-02
    -14.861  0.3085E-10  0.3857E-02
    -14.857  0.7533E-09  0.3857E-02
    -14.853  0.1439E-07  0.3857E-02
    -14.850  0.2153E-06  0.3857E-02
    -14.846  0.2521E-05  0.3857E-02
    -14.843  0.2312E-04  0.3857E-02
    -14.839  0.1660E-03  0.3857E-02
    -14.836  0.9338E-03  0.3861E-02
    -14.832  0.4116E-02  0.3875E-02
    -14.829  0.1421E-01  0.3925E-02
    -14.825  0.3847E-01  0.4061E-02
    -14.822  0.8162E-01  0.4349E-02
    -14.818  0.1357E+00  0.4827E-02
    -14.815  0.1770E+00  0.5451E-02
    -14.811  0.1808E+00  0.6088E-02
    -14.808  0.1449E+00  0.6599E-02
    -14.804  0.9101E-01  0.6920E-02
    -14.801  0.4481E-01  0.7078E-02
    -14.797  0.1729E-01  0.7139E-02
    -14.794  0.5230E-02  0.7157E-02
    -14.790  0.1240E-02  0.7162E-02
    -14.786  0.2302E-03  0.7162E-02
    -14.783  0.3350E-04  0.7163E-02
    -14.779  0.4047E-05  0.7163E-02
    -14.776  0.3032E-05  0.7163E-02
    -14.772  0.2454E-04  0.7163E-02
    -14.769  0.1748E-03  0.7163E-02
    -14.765  0.9768E-03  0.7167E-02
    -14.762  0.4276E-02  0.7182E-02
    -14.758  0.1467E-01  0.7233E-02
    -14.755  0.3943E-01  0.7372E-02
    -14.751  0.8307E-01  0.7665E-02
    -14.748  0.1372E+00  0.8149E-02
    -14.744  0.1777E+00  0.8775E-02
    -14.741  0.1803E+00  0.9411E-02
    -14.737  0.1435E+00  0.9917E-02
    -14.734  0.8951E-01  0.1023E-01
    -14.730  0.4377E-01  0.1039E-01
    -14.727  0.1678E-01  0.1045E-01
    -14.723  0.5040E-02  0.1046E-01
    -14.720  0.1186E-02  0.1047E-01
    -14.716  0.2188E-03  0.1047E-01
    -14.712  0.3161E-04  0.1047E-01
    -14.709  0.3577E-05  0.1047E-01
    -14.705  0.3169E-06  0.1047E-01
    -14.702  0.2199E-07  0.1047E-01
    -14.698  0.1194E-08  0.1047E-01
    -14.695  0.5074E-10  0.1047E-01
    -14.691  0.1687E-11  0.1047E-01
    -14.688  0.4397E-13  0.1047E-01
    -14.684  0.8330E-15  0.1047E-01
    -14.681  0.0000E+00  0.1047E-01
    -14.677  0.0000E+00  0.1047E-01
    -14.674  0.0000E+00  0.1047E-01
    -14.670  0.0000E+00  0.1047E-01
    -14.667  0.0000E+00  0.1047E-01
    -14.663  0.0000E+00  0.1047E-01
    -14.660  0.0000E+00  0.1047E-01
    -14.656  0.0000E+00  0.1047E-01
    -14.653  0.0000E+00  0.1047E-01
    -14.649  0.0000E+00  0.1047E-01
    -14.645  0.0000E+00  0.1047E-01
    -14.642  0.0000E+00  0.1047E-01
    -14.638  0.0000E+00  0.1047E-01
    -14.635  0.0000E+00  0.1047E-01
    -14.631  0.0000E+00  0.1047E-01
    -14.628  0.0000E+00  0.1047E-01
    -14.624  0.0000E+00  0.1047E-01
    -14.621  0.0000E+00  0.1047E-01
    -14.617  0.0000E+00  0.1047E-01
    -14.614  0.0000E+00  0.1047E-01
    -14.610  0.0000E+00  0.1047E-01
    -14.607  0.0000E+00  0.1047E-01
    -14.603  0.0000E+00  0.1047E-01
    -14.600  0.0000E+00  0.1047E-01
    -14.596  0.1041E-15  0.1047E-01
    -14.593  0.4269E-14  0.1047E-01
    -14.589  0.1996E-12  0.1047E-01
    -14.586  0.7272E-11  0.1047E-01
    -14.582  0.2072E-09  0.1047E-01
    -14.579  0.4621E-08  0.1047E-01
    -14.575  0.8064E-07  0.1047E-01
    -14.571  0.1102E-05  0.1047E-01
    -14.568  0.1178E-04  0.1047E-01
    -14.564  0.9869E-04  0.1047E-01
    -14.561  0.6474E-03  0.1047E-01
    -14.557  0.3327E-02  0.1048E-01
    -14.554  0.1340E-01  0.1053E-01
    -14.550  0.4228E-01  0.1068E-01
    -14.547  0.1046E+00  0.1105E-01
    -14.543  0.2027E+00  0.1176E-01
    -14.540  0.3081E+00  0.1285E-01
    -14.536  0.3670E+00  0.1414E-01
    -14.533  0.3428E+00  0.1535E-01
    -14.529  0.2510E+00  0.1624E-01
    -14.526  0.1441E+00  0.1674E-01
    -14.522  0.6481E-01  0.1697E-01
    -14.519  0.2285E-01  0.1705E-01
    -14.515  0.6316E-02  0.1707E-01
    -14.512  0.1368E-02  0.1708E-01
    -14.508  0.2320E-03  0.1708E-01
    -14.504  0.3083E-04  0.1708E-01
    -14.501  0.3209E-05  0.1708E-01
    -14.497  0.2615E-06  0.1708E-01
    -14.494  0.1669E-07  0.1708E-01
    -14.490  0.8332E-09  0.1708E-01
    -14.487  0.3256E-10  0.1708E-01
    -14.483  0.9955E-12  0.1708E-01
    -14.480  0.2374E-13  0.1708E-01
    -14.476  0.4165E-15  0.1708E-01
    -14.473  0.0000E+00  0.1708E-01
    -14.469  0.0000E+00  0.1708E-01
    -14.466  0.0000E+00  0.1708E-01
    -14.462  0.7288E-15  0.1708E-01
    -14.459  0.3502E-13  0.1708E-01
    -14.455  0.1367E-11  0.1708E-01
    -14.452  0.4170E-10  0.1708E-01
    -14.448  0.9957E-09  0.1708E-01
    -14.445  0.1861E-07  0.1708E-01
    -14.441  0.2722E-06  0.1708E-01
    -14.438  0.3117E-05  0.1708E-01
    -14.434  0.2795E-04  0.1708E-01
    -14.430  0.1963E-03  0.1708E-01
    -14.427  0.1080E-02  0.1708E-01
    -14.423  0.4655E-02  0.1710E-01
    -14.420  0.1572E-01  0.1716E-01
    -14.416  0.4162E-01  0.1730E-01
    -14.413  0.8636E-01  0.1761E-01
    -14.409  0.1405E+00  0.1810E-01
    -14.406  0.1791E+00  0.1873E-01
    -14.402  0.1790E+00  0.1936E-01
    -14.399  0.1403E+00  0.1986E-01
    -14.395  0.8618E-01  0.2016E-01
    -14.392  0.4150E-01  0.2031E-01
    -14.388  0.1566E-01  0.2036E-01
    -14.385  0.4634E-02  0.2038E-01
    -14.381  0.1074E-02  0.2038E-01
    -14.378  0.1951E-03  0.2039E-01
    -14.374  0.2775E-04  0.2039E-01
    -14.371  0.3092E-05  0.2039E-01
    -14.367  0.2698E-06  0.2039E-01
    -14.363  0.1843E-07  0.2039E-01
    -14.360  0.9855E-09  0.2039E-01
    -14.356  0.4124E-10  0.2039E-01
    -14.353  0.1350E-11  0.2039E-01
    -14.349  0.3453E-13  0.2039E-01
    -14.346  0.7288E-15  0.2039E-01
    -14.342  0.0000E+00  0.2039E-01
    -14.339  0.0000E+00  0.2039E-01
    -14.335  0.0000E+00  0.2039E-01
    -14.332  0.0000E+00  0.2039E-01
    -14.328  0.0000E+00  0.2039E-01
    -14.325  0.0000E+00  0.2039E-01
    -14.321  0.0000E+00  0.2039E-01
    -14.318  0.0000E+00  0.2039E-01
    -14.314  0.0000E+00  0.2039E-01
    -14.311  0.0000E+00  0.2039E-01
    -14.307  0.0000E+00  0.2039E-01
    -14.304  0.0000E+00  0.2039E-01
    -14.300  0.0000E+00  0.2039E-01
    -14.297  0.0000E+00  0.2039E-01
    -14.293  0.0000E+00  0.2039E-01
    -14.289  0.0000E+00  0.2039E-01
    -14.286  0.0000E+00  0.2039E-01
    -14.282  0.0000E+00  0.2039E-01
    -14.279  0.0000E+00  0.2039E-01
    -14.275  0.0000E+00  0.2039E-01
    -14.272  0.0000E+00  0.2039E-01
    -14.268  0.5206E-16  0.2039E-01
    -14.265  0.2152E-14  0.2039E-01
    -14.261  0.1012E-12  0.2039E-01
    -14.258  0.3684E-11  0.2039E-01
    -14.254  0.1049E-09  0.2039E-01
    -14.251  0.2337E-08  0.2039E-01
    -14.247  0.4074E-07  0.2039E-01
    -14.244  0.5561E-06  0.2039E-01
    -14.240  0.5942E-05  0.2039E-01
    -14.237  0.4972E-04  0.2039E-01
    -14.233  0.3259E-03  0.2039E-01
    -14.230  0.1673E-02  0.2039E-01
    -14.226  0.6732E-02  0.2042E-01
    -14.222  0.2122E-01  0.2049E-01
    -14.219  0.5245E-01  0.2068E-01
    -14.215  0.1016E+00  0.2103E-01
    -14.212  0.1542E+00  0.2158E-01
    -14.208  0.1836E+00  0.2223E-01
    -14.205  0.1713E+00  0.2283E-01
    -14.201  0.1253E+00  0.2327E-01
    -14.198  0.7184E-01  0.2352E-01
    -14.194  0.3229E-01  0.2364E-01
    -14.191  0.1138E-01  0.2368E-01
    -14.187  0.3142E-02  0.2369E-01
    -14.184  0.6861E-03  0.2369E-01
    -14.180  0.1739E-03  0.2369E-01
    -14.177  0.4252E-03  0.2369E-01
    -14.173  0.2244E-02  0.2370E-01
    -14.170  0.9610E-02  0.2373E-01
    -14.166  0.3227E-01  0.2385E-01
    -14.163  0.8494E-01  0.2415E-01
    -14.159  0.1752E+00  0.2477E-01
    -14.156  0.2834E+00  0.2576E-01
    -14.152  0.3592E+00  0.2703E-01
    -14.148  0.3570E+00  0.2829E-01
    -14.145  0.2781E+00  0.2927E-01
    -14.141  0.1699E+00  0.2987E-01
    -14.138  0.8133E-01  0.3015E-01
    -14.134  0.3052E-01  0.3026E-01
    -14.131  0.8976E-02  0.3029E-01
    -14.127  0.2069E-02  0.3030E-01
    -14.124  0.3735E-03  0.3030E-01
    -14.120  0.5283E-04  0.3030E-01
    -14.117  0.5853E-05  0.3030E-01
    -14.113  0.5077E-06  0.3030E-01
    -14.110  0.3448E-07  0.3030E-01
    -14.106  0.1833E-08  0.3030E-01
    -14.103  0.7626E-10  0.3030E-01
    -14.099  0.2482E-11  0.3030E-01
    -14.096  0.6330E-13  0.3030E-01
    -14.092  0.1249E-14  0.3030E-01
    -14.089  0.0000E+00  0.3030E-01
    -14.085  0.0000E+00  0.3030E-01
    -14.082  0.0000E+00  0.3030E-01
    -14.078  0.0000E+00  0.3030E-01
    -14.074  0.0000E+00  0.3030E-01
    -14.071  0.0000E+00  0.3030E-01
    -14.067  0.0000E+00  0.3030E-01
    -14.064  0.0000E+00  0.3030E-01
    -14.060  0.0000E+00  0.3030E-01
    -14.057  0.0000E+00  0.3030E-01
    -14.053  0.0000E+00  0.3030E-01
    -14.050  0.0000E+00  0.3030E-01
    -14.046  0.0000E+00  0.3030E-01
    -14.043  0.3644E-15  0.3030E-01
    -14.039  0.1758E-13  0.3030E-01
    -14.036  0.7175E-12  0.3030E-01
    -14.032  0.2289E-10  0.3030E-01
    -14.029  0.5713E-09  0.3030E-01
    -14.025  0.1116E-07  0.3030E-01
    -14.022  0.1706E-06  0.3030E-01
    -14.018  0.2042E-05  0.3030E-01
    -14.015  0.1914E-04  0.3030E-01
    -14.011  0.1405E-03  0.3030E-01
    -14.007  0.8078E-03  0.3031E-01
    -14.004  0.3639E-02  0.3032E-01
    -14.000  0.1285E-01  0.3036E-01
    -13.997  0.3554E-01  0.3049E-01
    -13.993  0.7706E-01  0.3076E-01
    -13.990  0.1310E+00  0.3122E-01
    -13.986  0.1745E+00  0.3184E-01
    -13.983  0.1823E+00  0.3248E-01
    -13.979  0.1493E+00  0.3301E-01
    -13.976  0.9583E-01  0.3334E-01
    -13.972  0.4822E-01  0.3351E-01
    -13.969  0.1902E-01  0.3358E-01
    -13.965  0.5880E-02  0.3360E-01
    -13.962  0.1424E-02  0.3361E-01
    -13.958  0.2704E-03  0.3361E-01
    -13.955  0.4020E-04  0.3361E-01
    -13.951  0.4682E-05  0.3361E-01
    -13.948  0.4270E-06  0.3361E-01
    -13.944  0.3049E-07  0.3361E-01
    -13.941  0.1704E-08  0.3361E-01
    -13.937  0.7454E-10  0.3361E-01
    -13.933  0.2551E-11  0.3361E-01
    -13.930  0.6834E-13  0.3361E-01
    -13.926  0.1458E-14  0.3361E-01
    -13.923  0.0000E+00  0.3361E-01
    -13.919  0.0000E+00  0.3361E-01
    -13.916  0.0000E+00  0.3361E-01
    -13.912  0.0000E+00  0.3361E-01
    -13.909  0.0000E+00  0.3361E-01
    -13.905  0.0000E+00  0.3361E-01
    -13.902  0.0000E+00  0.3361E-01
    -13.898  0.0000E+00  0.3361E-01
    -13.895  0.0000E+00  0.3361E-01
    -13.891  0.0000E+00  0.3361E-01
    -13.888  0.0000E+00  0.3361E-01
    -13.884  0.0000E+00  0.3361E-01
    -13.881  0.0000E+00  0.3361E-01
    -13.877  0.0000E+00  0.3361E-01
    -13.874  0.0000E+00  0.3361E-01
    -13.870  0.0000E+00  0.3361E-01
    -13.866  0.0000E+00  0.3361E-01
    -13.863  0.0000E+00  0.3361E-01
    -13.859  0.0000E+00  0.3361E-01
    -13.856  0.0000E+00  0.3361E-01
    -13.852  0.2499E-14  0.3361E-01
    -13.849  0.1192E-12  0.3361E-01
    -13.845  0.4491E-11  0.3361E-01
    -13.842  0.1324E-09  0.3361E-01
    -13.838  0.3054E-08  0.3361E-01
    -13.835  0.5513E-07  0.3361E-01
    -13.831  0.7790E-06  0.3361E-01
    -13.828  0.8618E-05  0.3361E-01
    -13.824  0.7466E-04  0.3361E-01
    -13.821  0.5066E-03  0.3361E-01
    -13.817  0.2693E-02  0.3362E-01
    -13.814  0.1122E-01  0.3366E-01
    -13.810  0.3661E-01  0.3379E-01
    -13.807  0.9363E-01  0.3412E-01
    -13.803  0.1877E+00  0.3478E-01
    -13.800  0.2950E+00  0.3582E-01
    -13.796  0.3635E+00  0.3710E-01
    -13.792  0.3511E+00  0.3834E-01
    -13.789  0.2658E+00  0.3928E-01
    -13.785  0.1578E+00  0.3983E-01
    -13.782  0.7343E-01  0.4009E-01
    -13.778  0.2678E-01  0.4019E-01
    -13.775  0.7654E-02  0.4021E-01
    -13.771  0.1714E-02  0.4022E-01
    -13.768  0.3008E-03  0.4022E-01
    -13.764  0.4149E-04  0.4022E-01
    -13.761  0.6369E-05  0.4022E-01
    -13.757  0.1980E-04  0.4022E-01
    -13.754  0.1540E-03  0.4022E-01
    -13.750  0.9561E-03  0.4022E-01
    -13.747  0.4651E-02  0.4024E-01
    -13.743  0.1773E-01  0.4030E-01
    -13.740  0.5296E-01  0.4049E-01
    -13.736  0.1240E+00  0.4093E-01
    -13.733  0.2275E+00  0.4173E-01
    -13.729  0.3274E+00  0.4288E-01
    -13.725  0.3692E+00  0.4418E-01
    -13.722  0.3264E+00  0.4533E-01
    -13.718  0.2262E+00  0.4613E-01
    -13.715  0.1229E+00  0.4657E-01
    -13.711  0.5235E-01  0.4675E-01
    -13.708  0.1748E-01  0.4681E-01
    -13.704  0.4572E-02  0.4683E-01
    -13.701  0.9370E-03  0.4683E-01
    -13.697  0.1505E-03  0.4683E-01
    -13.694  0.1893E-04  0.4683E-01
    -13.690  0.1864E-05  0.4683E-01
    -13.687  0.1438E-06  0.4683E-01
    -13.683  0.8681E-08  0.4683E-01
    -13.680  0.4102E-09  0.4683E-01
    -13.676  0.1517E-10  0.4683E-01
    -13.673  0.4390E-12  0.4683E-01
    -13.669  0.9891E-14  0.4683E-01
    -13.666  0.5570E-14  0.4683E-01
    -13.662  0.2363E-12  0.4683E-01
    -13.659  0.8128E-11  0.4683E-01
    -13.655  0.2187E-09  0.4683E-01
    -13.651  0.4605E-08  0.4683E-01
    -13.648  0.7590E-07  0.4683E-01
    -13.644  0.9793E-06  0.4683E-01
    -13.641  0.9893E-05  0.4683E-01
    -13.637  0.7826E-04  0.4683E-01
    -13.634  0.4850E-03  0.4683E-01
    -13.630  0.2354E-02  0.4684E-01
    -13.627  0.8956E-02  0.4687E-01
    -13.623  0.2670E-01  0.4697E-01
    -13.620  0.6238E-01  0.4719E-01
    -13.616  0.1142E+00  0.4759E-01
    -13.613  0.1640E+00  0.4817E-01
    -13.609  0.1846E+00  0.4882E-01
    -13.606  0.1629E+00  0.4939E-01
    -13.602  0.1127E+00  0.4979E-01
    -13.599  0.6109E-01  0.5001E-01
    -13.595  0.2596E-01  0.5010E-01
    -13.592  0.8649E-02  0.5013E-01
    -13.588  0.2258E-02  0.5014E-01
    -13.584  0.4618E-03  0.5014E-01
    -13.581  0.7401E-04  0.5014E-01
    -13.577  0.9289E-05  0.5014E-01
    -13.574  0.9131E-06  0.5014E-01
    -13.570  0.7028E-07  0.5014E-01
    -13.567  0.4235E-08  0.5014E-01
    -13.563  0.1997E-09  0.5014E-01
    -13.560  0.7369E-11  0.5014E-01
    -13.556  0.2127E-12  0.5014E-01
    -13.553  0.4790E-14  0.5014E-01
    -13.549  0.1041E-15  0.5014E-01
    -13.546  0.7288E-15  0.5014E-01
    -13.542  0.3561E-13  0.5014E-01
    -13.539  0.1388E-11  0.5014E-01
    -13.535  0.4231E-10  0.5014E-01
    -13.532  0.1009E-08  0.5014E-01
    -13.528  0.1884E-07  0.5014E-01
    -13.525  0.2752E-06  0.5014E-01
    -13.521  0.3148E-05  0.5014E-01
    -13.518  0.2820E-04  0.5014E-01
    -13.514  0.1978E-03  0.5014E-01
    -13.510  0.1087E-02  0.5014E-01
    -13.507  0.4682E-02  0.5016E-01
    -13.503  0.1580E-01  0.5021E-01
    -13.500  0.4178E-01  0.5036E-01
    -13.496  0.8659E-01  0.5067E-01
    -13.493  0.1407E+00  0.5116E-01
    -13.489  0.1792E+00  0.5179E-01
    -13.486  0.1789E+00  0.5243E-01
    -13.482  0.1401E+00  0.5292E-01
    -13.479  0.8595E-01  0.5322E-01
    -13.475  0.4135E-01  0.5337E-01
    -13.472  0.1559E-01  0.5342E-01
    -13.468  0.4607E-02  0.5344E-01
    -13.465  0.1067E-02  0.5344E-01
    -13.461  0.1935E-03  0.5344E-01
    -13.458  0.2750E-04  0.5344E-01
    -13.454  0.3061E-05  0.5344E-01
    -13.451  0.2671E-06  0.5344E-01
    -13.447  0.2553E-07  0.5344E-01
    -13.443  0.1240E-06  0.5344E-01
    -13.440  0.1618E-05  0.5344E-01
    -13.436  0.1666E-04  0.5344E-01
    -13.433  0.1343E-03  0.5344E-01
    -13.429  0.8485E-03  0.5345E-01
    -13.426  0.4198E-02  0.5346E-01
    -13.422  0.1628E-01  0.5352E-01
    -13.419  0.4946E-01  0.5369E-01
    -13.415  0.1178E+00  0.5411E-01
    -13.412  0.2198E+00  0.5488E-01
    -13.408  0.3217E+00  0.5602E-01
    -13.405  0.3691E+00  0.5732E-01
    -13.401  0.3325E+00  0.5849E-01
    -13.398  0.2371E+00  0.5933E-01
    -13.394  0.1408E+00  0.5982E-01
    -13.391  0.8870E-01  0.6014E-01
    -13.387  0.9150E-01  0.6046E-01
    -13.384  0.1311E+00  0.6092E-01
    -13.380  0.1728E+00  0.6153E-01
    -13.377  0.1836E+00  0.6218E-01
    -13.373  0.1536E+00  0.6272E-01
    -13.369  0.1009E+00  0.6307E-01
    -13.366  0.5190E-01  0.6326E-01
    -13.362  0.2094E-01  0.6333E-01
    -13.359  0.6619E-02  0.6335E-01
    -13.355  0.1640E-02  0.6336E-01
    -13.352  0.3184E-03  0.6336E-01
    -13.348  0.4842E-04  0.6336E-01
    -13.345  0.5767E-05  0.6336E-01
    -13.341  0.5379E-06  0.6336E-01
    -13.338  0.3929E-07  0.6336E-01
    -13.334  0.2246E-08  0.6336E-01
    -13.331  0.1005E-09  0.6336E-01
    -13.327  0.3518E-11  0.6336E-01
    -13.324  0.9641E-13  0.6336E-01
    -13.320  0.2082E-14  0.6336E-01
    -13.317  0.0000E+00  0.6336E-01
    -13.313  0.0000E+00  0.6336E-01
    -13.310  0.0000E+00  0.6336E-01
    -13.306  0.0000E+00  0.6336E-01
    -13.302  0.0000E+00  0.6336E-01
    -13.299  0.0000E+00  0.6336E-01
    -13.295  0.0000E+00  0.6336E-01
    -13.292  0.0000E+00  0.6336E-01
    -13.288  0.0000E+00  0.6336E-01
    -13.285  0.0000E+00  0.6336E-01
    -13.281  0.0000E+00  0.6336E-01
    -13.278  0.0000E+00  0.6336E-01
    -13.274  0.0000E+00  0.6336E-01
    -13.271  0.0000E+00  0.6336E-01
    -13.267  0.0000E+00  0.6336E-01
    -13.264  0.0000E+00  0.6336E-01
    -13.260  0.0000E+00  0.6336E-01
    -13.257  0.0000E+00  0.6336E-01
    -13.253  0.0000E+00  0.6336E-01
    -13.250  0.0000E+00  0.6336E-01
    -13.246  0.0000E+00  0.6336E-01
    -13.243  0.0000E+00  0.6336E-01
    -13.239  0.0000E+00  0.6336E-01
    -13.236  0.0000E+00  0.6336E-01
    -13.232  0.0000E+00  0.6336E-01
    -13.228  0.0000E+00  0.6336E-01
    -13.225  0.0000E+00  0.6336E-01
    -13.221  0.0000E+00  0.6336E-01
    -13.218  0.0000E+00  0.6336E-01
    -13.214  0.0000E+00  0.6336E-01
    -13.211  0.0000E+00  0.6336E-01
    -13.207  0.0000E+00  0.6336E-01
    -13.204  0.0000E+00  0.6336E-01
    -13.200  0.0000E+00  0.6336E-01
    -13.197  0.0000E+00  0.6336E-01
    -13.193  0.0000E+00  0.6336E-01
    -13.190  0.0000E+00  0.6336E-01
    -13.186  0.0000E+00  0.6336E-01
    -13.183  0.0000E+00  0.6336E-01
    -13.179  0.0000E+00  0.6336E-01
    -13.176  0.0000E+00  0.6336E-01
    -13.172  0.0000E+00  0.6336E-01
    -13.169  0.0000E+00  0.6336E-01
    -13.165  0.0000E+00  0.6336E-01
    -13.161  0.0000E+00  0.6336E-01
    -13.158  0.0000E+00  0.6336E-01
    -13.154  0.0000E+00  0.6336E-01
    -13.151  0.0000E+00  0.6336E-01
    -13.147  0.0000E+00  0.6336E-01
    -13.144  0.0000E+00  0.6336E-01
    -13.140  0.0000E+00  0.6336E-01
    -13.137  0.0000E+00  0.6336E-01
    -13.133  0.0000E+00  0.6336E-01
    -13.130  0.3644E-15  0.6336E-01
    -13.126  0.1827E-13  0.6336E-01
    -13.123  0.7441E-12  0.6336E-01
    -13.119  0.2368E-10  0.6336E-01
    -13.116  0.5896E-09  0.6336E-01
    -13.112  0.1149E-07  0.6336E-01
    -13.109  0.1752E-06  0.6336E-01
    -13.105  0.2092E-05  0.6336E-01
    -13.102  0.1956E-04  0.6336E-01
    -13.098  0.1432E-03  0.6336E-01
    -13.095  0.8213E-03  0.6336E-01
    -13.091  0.3691E-02  0.6338E-01
    -13.087  0.1300E-01  0.6342E-01
    -13.084  0.3586E-01  0.6355E-01