    2    2   30    1
  0.1300420E+03  0.4332429E-09  0.4332429E-09  0.1600000E-08  0.5000000E-15
  1.000000000000000E-004
  CAR 
 unknown system                          
     10     42     12
 
  0.0000000E+00  0.0000000E+00  0.0000000E+00  0.2754821E-02
      1        -15.030671   1.000000
      2        -11.123076   1.000000
      3         -3.486847   1.000000
      4         -2.682935   1.000000
      5         -2.682935   1.000000
      6         -2.133899   0.000000
      7         -0.132197   0.000000
      8         -0.132197   0.000000
      9          1.026592   0.000000
     10          1.215491   0.000000
     11          2.269905   0.000000
     12          3.396577   0.000000
 
  0.9090909E-01 -0.6938894E-17  0.0000000E+00  0.1652893E-01
      1        -14.957838   1.000000
      2        -11.151386   1.000000
      3         -3.566593   1.000000
      4         -3.462491   1.000000
      5         -2.860860   1.000000
      6         -1.401719   0.000000
      7         -0.446851   0.000000
      8          0.019335   0.000000
      9          1.172173   0.000000
     10          1.324898   0.000000
     11          2.536964   0.000000
     12          3.688890   0.000000
 
  0.1818182E+00  0.0000000E+00  0.0000000E+00  0.1652893E-01
      1        -14.743972   1.000000
      2        -11.255832   1.000000
      3         -4.541268   1.000000
      4         -3.452899   1.000000
      5         -3.245995   1.000000
      6         -1.509143   0.000000
      7         -0.159724   0.000000
      8          0.293553   0.000000
      9          1.444277   0.000000
     10          1.598868   0.000000
     11          2.813113   0.000000
     12          3.598632   0.000000
 
  0.2727273E+00  0.0000000E+00  0.0000000E+00  0.1652893E-01
      1        -14.405803   1.000000
      2        -11.479095   1.000000
      3         -5.256522   1.000000
      4         -3.638423   1.000000
      5         -3.631699   1.000000
      6         -1.780797   0.000000
      7          0.094489   0.000000
      8          0.465701   0.000000
      9          1.793494   0.000000
     10          1.892193   0.000000
     11          2.963171   0.000000
     12          3.769681   0.000000
 
  0.3636364E+00 -0.2775558E-16  0.0000000E+00  0.1652893E-01
      1        -13.985699   1.000000
      2        -11.829992   1.000000
      3         -5.643424   1.000000
      4         -4.016224   1.000000
      5         -3.935855   1.000000
      6         -1.656467   0.000000
      7         -0.138156   0.000000
      8          0.510284   0.000000
      9          2.170822   0.000000
     10          2.305739   0.000000
     11          2.984498   0.000000
     12          3.924226   0.000000
 
  0.4545455E+00 -0.2775558E-16  0.0000000E+00  0.1652893E-01
      1        -13.610972   1.000000
      2        -12.182699   1.000000
      3         -5.765839   1.000000
      4         -4.326430   1.000000
      5         -4.093329   1.000000
      6         -1.384066   0.000000
      7         -0.465982   0.000000
      8          0.504435   0.000000
      9          2.146485   0.000000
     10          2.966780   0.000000
     11          3.350498   0.000000
     12          3.802257   0.000000
 
  0.9090909E-01  0.9090909E-01  0.0000000E+00  0.1652893E-01
      1        -14.814371   1.000000
      2        -11.217790   1.000000
      3         -4.252237   1.000000
      4         -3.476191   1.000000
      5         -3.244493   1.000000
      6         -0.874683   0.000000
      7         -0.821483   0.000000
      8          0.296814   0.000000
      9          1.370402   0.000000
     10          1.518788   0.000000
     11          2.747655   0.000000
     12          3.760413   0.000000
 
  0.1818182E+00  0.9090909E-01  0.0000000E+00  0.3305785E-01
      1        -14.537208   1.000000
      2        -11.382753   1.000000
      3         -4.944267   1.000000
      4         -3.910629   1.000000
      5         -3.413046   1.000000
      6         -1.278218   0.000000
      7         -0.252623   0.000000
      8          0.424625   0.000000
      9          1.694738   0.000000
     10          1.796749   0.000000
     11          2.887331   0.000000
     12          3.714807   0.000000
 
  0.2727273E+00  0.9090909E-01  0.0000000E+00  0.3305785E-01
      1        -14.152090   1.000000
      2        -11.677373   1.000000
      3         -5.437437   1.000000
      4         -4.317946   1.000000
      5         -3.656516   1.000000
      6         -1.400646   0.000000
      7          0.085867   0.000000
      8          0.186185   0.000000
      9          2.105567   0.000000
     10          2.177107   0.000000
     11          3.018537   0.000000
     12          4.049426   0.000000
 
  0.3636364E+00  0.9090909E-01  0.0000000E+00  0.3305785E-01
      1        -13.727269   1.000000
      2        -12.059779   1.000000
      3         -5.688040   1.000000
      4         -4.483712   1.000000
      5         -4.048450   1.000000
      6         -1.184636   0.000000
      7         -0.260872   0.000000
      8          0.229940   0.000000
      9          2.334888   0.000000
     10          2.723790   0.000000
     11          3.202406   0.000000
     12          4.128747   0.000000
 
  0.4545455E+00  0.9090909E-01  0.0000000E+00  0.1652893E-01
      1        -13.489337   1.000000
      2        -12.288345   1.000000
      3         -5.756458   1.000000
      4         -4.380878   1.000000
      5         -4.371737   1.000000
      6         -0.908598   0.000000
      7         -0.598156   0.000000
      8          0.269536   0.000000
      9          2.236806   0.000000
     10          3.411686   0.000000
     11          3.569076   0.000000
     12          3.778835   0.000000
 
  0.1818182E+00  0.1818182E+00  0.0000000E+00  0.1652893E-01
      1        -14.209404   1.000000
      2        -11.623622   1.000000
      3         -5.194198   1.000000
      4         -4.678815   1.000000
      5         -3.553979   1.000000
      6         -0.909226   0.000000
      7         -0.415825   0.000000
      8          0.381813   0.000000
      9          2.119319   0.000000
     10          2.132284   0.000000
     11          2.985118   0.000000
     12          3.989708   0.000000
 
  0.2727273E+00  0.1818182E+00  0.0000000E+00  0.3305785E-01
      1        -13.796486   1.000000
      2        -11.977054   1.000000
      3         -5.445914   1.000000
      4         -5.010821   1.000000
      5         -3.880002   1.000000
      6         -0.842378   0.000000
      7         -0.424169   0.000000
      8          0.342053   0.000000
      9          2.598880   0.000000
     10          2.631222   0.000000
     11          3.249040   0.000000
     12          4.045245   0.000000
 
  0.3636364E+00  0.1818182E+00  0.0000000E+00  0.3305785E-01
      1        -13.406250   1.000000
      2        -12.342151   1.000000
      3         -5.713873   1.000000
      4         -4.838340   1.000000
      5         -4.290767   1.000000
      6         -0.904059   0.000000
      7         -0.215780   0.000000
      8          0.170349   0.000000
      9          2.654840   0.000000
     10          3.346679   0.000000
     11          3.649337   0.000000
     12          4.084534   0.000000
 
  0.2727273E+00  0.2727273E+00  0.0000000E+00  0.1652893E-01
      1        -13.379083   1.000000
      2        -12.354393   1.000000
      3         -5.674925   1.000000
      4         -5.054637   1.000000
      5         -4.223586   1.000000
      6         -1.082331   0.000000
      7         -0.163856   0.000000
      8          0.482044   0.000000
      9          3.166369   0.000000
     10          3.228199   0.000000
     11          3.726503   0.000000
     12          3.903775   0.000000
 
  0.3636364E+00  0.2727273E+00  0.0000000E+00  0.1652893E-01
      1        -13.072774   1.000000
      2        -12.646302   1.000000
      3         -5.836444   1.000000
      4         -4.811063   1.000000
      5         -4.519164   1.000000
      6         -1.259786   0.000000
      7          0.204026   0.000000
      8          0.324962   0.000000
      9          3.301154   0.000000
     10          3.583150   0.000000
     11          4.001291   0.000000
     12          4.196260   0.000000
 
  0.0000000E+00  0.0000000E+00  0.3333333E+00  0.5509642E-02
      1        -15.030670   1.000000
      2        -11.123072   1.000000
      3         -3.486795   1.000000
      4         -2.682936   1.000000
      5         -2.682936   1.000000
      6         -2.134074   0.000000
      7         -0.132197   0.000000
      8         -0.132197   0.000000
      9          0.997217   0.000000
     10          1.255279   0.000000
     11          2.354372   0.000000
     12          2.970607   0.000000
 
  0.9090909E-01 -0.6938894E-17  0.3333333E+00  0.1652893E-01
      1        -14.957837   1.000000
      2        -11.151384   1.000000
      3         -3.566598   1.000000
      4         -3.462456   1.000000
      5         -2.860858   1.000000
      6         -1.402002   0.000000
      7         -0.446899   0.000000
      8          0.019334   0.000000
      9          1.115575   0.000000
     10          1.415286   0.000000
     11          2.509554   0.000000
     12          3.398568   0.000000
 
  0.0000000E+00  0.9090909E-01  0.3333333E+00  0.1652893E-01
      1        -14.957836   1.000000
      2        -11.151384   1.000000
      3         -3.566604   1.000000
      4         -3.462450   1.000000
      5         -2.860858   1.000000
      6         -1.402108   0.000000
      7         -0.446283   0.000000
      8          0.019336   0.000000
      9          1.101437   0.000000
     10          1.435956   0.000000
     11          2.495881   0.000000
     12          3.394652   0.000000
 
  0.1818182E+00  0.0000000E+00  0.3333333E+00  0.1652893E-01
      1        -14.743975   1.000000
      2        -11.255832   1.000000
      3         -4.541271   1.000000
      4         -3.452881   1.000000
      5         -3.246001   1.000000
      6         -1.509029   0.000000
      7         -0.161816   0.000000
      8          0.293553   0.000000
      9          1.401943   0.000000
     10          1.679757   0.000000
     11          2.785422   0.000000
     12          3.440568   0.000000
 
  0.0000000E+00  0.1818182E+00  0.3333333E+00  0.1652893E-01
      1        -14.743974   1.000000
      2        -11.255833   1.000000
      3         -4.541270   1.000000
      4         -3.452881   1.000000
      5         -3.245999   1.000000
      6         -1.509213   0.000000
      7         -0.159776   0.000000
      8          0.293554   0.000000
      9          1.346776   0.000000
     10          1.770326   0.000000
     11          2.680773   0.000000
     12          3.628845   0.000000
 
  0.2727273E+00  0.0000000E+00  0.3333333E+00  0.1652893E-01
      1        -14.405802   1.000000
      2        -11.479092   1.000000
      3         -5.256519   1.000000
      4         -3.638418   1.000000
      5         -3.631693   1.000000
      6         -1.780700   0.000000
      7          0.093572   0.000000
      8          0.465701   0.000000
      9          1.688239   0.000000
     10          2.049991   0.000000
     11          3.024014   0.000000
     12          3.409017   0.000000
 
  0.0000000E+00  0.2727273E+00  0.3333333E+00  0.1652893E-01
      1        -14.405801   1.000000
      2        -11.479094   1.000000
      3         -5.256519   1.000000
      4         -3.638421   1.000000
      5         -3.631694   1.000000
      6         -1.780782   0.000000
      7          0.094998   0.000000
      8          0.465705   0.000000
      9          1.659937   0.000000
     10          2.099580   0.000000
     11          2.910172   0.000000
     12          3.638079   0.000000
 
  0.3636364E+00 -0.2775558E-16  0.3333333E+00  0.1652893E-01
      1        -13.985698   1.000000
      2        -11.829988   1.000000
      3         -5.643419   1.000000
      4         -4.016218   1.000000
      5         -3.935850   1.000000
      6         -1.656408   0.000000
      7         -0.138139   0.000000
      8          0.510284   0.000000
      9          2.119821   0.000000
     10          2.325097   0.000000
     11          3.244405   0.000000
     12          3.584555   0.000000
 
  0.0000000E+00  0.3636364E+00  0.3333333E+00  0.1652893E-01
      1        -13.985695   1.000000
      2        -11.829988   1.000000
      3         -5.643418   1.000000
      4         -4.016218   1.000000
      5         -3.935852   1.000000
      6         -1.656453   0.000000
      7         -0.137936   0.000000
      8          0.510285   0.000000
      9          2.174451   0.000000
     10          2.256822   0.000000
     11          3.163485   0.000000
     12          3.858923   0.000000
 
  0.4545455E+00 -0.2775558E-16  0.3333333E+00  0.1652893E-01
      1        -13.610974   1.000000
      2        -12.182699   1.000000
      3         -5.765839   1.000000
      4         -4.326426   1.000000
      5         -4.093332   1.000000
      6         -1.384049   0.000000
      7         -0.465935   0.000000
      8          0.504433   0.000000
      9          2.150599   0.000000
     10          2.886879   0.000000
     11          3.474066   0.000000
     12          3.895529   0.000000
 
  0.0000000E+00  0.4545455E+00  0.3333333E+00  0.1652893E-01
      1        -13.610973   1.000000
      2        -12.182699   1.000000
      3         -5.765839   1.000000
      4         -4.326427   1.000000
      5         -4.093328   1.000000
      6         -1.384069   0.000000
      7         -0.465916   0.000000
      8          0.504432   0.000000
      9          2.154034   0.000000
     10          2.901526   0.000000
     11          3.365882   0.000000
     12          3.904421   0.000000
 
  0.9090909E-01  0.9090909E-01  0.3333333E+00  0.3305785E-01
      1        -14.814375   1.000000
      2        -11.217792   1.000000
      3         -4.252242   1.000000
      4         -3.476174   1.000000
      5         -3.244494   1.000000
      6         -0.875273   0.000000
      7         -0.821134   0.000000
      8          0.295395   0.000000
      9          1.305751   0.000000
     10          1.632266   0.000000
     11          2.679928   0.000000
     12          3.563832   0.000000
 
  0.1818182E+00  0.9090909E-01  0.3333333E+00  0.3305785E-01
      1        -14.537208   1.000000
      2        -11.382754   1.000000
      3         -4.944271   1.000000
      4         -3.910630   1.000000
      5         -3.413036   1.000000
      6         -1.278022   0.000000
      7         -0.253373   0.000000
      8          0.423301   0.000000
      9          1.615679   0.000000
     10          1.917659   0.000000
     11          2.975223   0.000000
     12          3.308975   0.000000
 
 -0.9090909E-01  0.2727273E+00  0.3333333E+00  0.3305785E-01
      1        -14.537209   1.000000
      2        -11.382755   1.000000
      3         -4.944271   1.000000
      4         -3.910627   1.000000
      5         -3.413036   1.000000
      6         -1.278183   0.000000
      7         -0.252559   0.000000
      8          0.423832   0.000000
      9          1.576895   0.000000
     10          1.988118   0.000000
     11          2.833994   0.000000
     12          3.499388   0.000000
 
  0.2727273E+00  0.9090909E-01  0.3333333E+00  0.3305785E-01
      1        -14.152091   1.000000
      2        -11.677371   1.000000
      3         -5.437436   1.000000
      4         -4.317946   1.000000
      5         -3.656512   1.000000
      6         -1.400534   0.000000
      7          0.085573   0.000000
      8          0.186130   0.000000
      9          1.991686   0.000000
     10          2.312536   0.000000
     11          3.221478   0.000000
     12          3.510175   0.000000
 
 -0.9090909E-01  0.3636364E+00  0.3333333E+00  0.3305785E-01
      1        -14.152090   1.000000
      2        -11.677372   1.000000
      3         -5.437435   1.000000
      4         -4.317946   1.000000
      5         -3.656513   1.000000
      6         -1.400614   0.000000
      7          0.086206   0.000000
      8          0.186166   0.000000
      9          1.977523   0.000000
     10          2.340190   0.000000
     11          3.099680   0.000000
     12          3.715444   0.000000
 
  0.3636364E+00  0.9090909E-01  0.3333333E+00  0.3305785E-01
      1        -13.727266   1.000000
      2        -12.059776   1.000000
      3         -5.688038   1.000000
      4         -4.483708   1.000000
      5         -4.048446   1.000000
      6         -1.184576   0.000000
      7         -0.260869   0.000000
      8          0.229969   0.000000
      9          2.340928   0.000000
     10          2.639005   0.000000
     11          3.469565   0.000000
     12          3.965796   0.000000
 
 -0.9090909E-01  0.4545455E+00  0.3333333E+00  0.3305785E-01
      1        -13.727265   1.000000
      2        -12.059776   1.000000
      3         -5.688035   1.000000
      4         -4.483707   1.000000
      5         -4.048445   1.000000
      6         -1.184621   0.000000
      7         -0.260834   0.000000
      8          0.230084   0.000000
      9          2.358828   0.000000
     10          2.616294   0.000000
     11          3.401322   0.000000
     12          4.141125   0.000000
 
  0.4545455E+00  0.9090909E-01  0.3333333E+00  0.3305785E-01
      1        -13.489332   1.000000
      2        -12.288343   1.000000
      3         -5.756454   1.000000
      4         -4.380873   1.000000
      5         -4.371736   1.000000
      6         -0.908590   0.000000
      7         -0.598125   0.000000
      8          0.269587   0.000000
      9          2.240586   0.000000
     10          3.365117   0.000000
     11          3.470136   0.000000
     12          3.855997   0.000000
 
  0.1818182E+00  0.1818182E+00  0.3333333E+00  0.3305785E-01
      1        -14.209402   1.000000
      2        -11.623623   1.000000
      3         -5.194195   1.000000
      4         -4.678814   1.000000
      5         -3.553974   1.000000
      6         -0.908984   0.000000
      7         -0.415946   0.000000
      8          0.381144   0.000000
      9          1.977812   0.000000
     10          2.305798   0.000000
     11          3.119857   0.000000
     12          3.553138   0.000000
 
  0.2727273E+00  0.1818182E+00  0.3333333E+00  0.3305785E-01
      1        -13.796484   1.000000
      2        -11.977053   1.000000
      3         -5.445913   1.000000
      4         -5.010819   1.000000
      5         -3.880000   1.000000
      6         -0.842285   0.000000
      7         -0.424091   0.000000
      8          0.341837   0.000000
      9          2.483700   0.000000
     10          2.730822   0.000000
     11          3.426051   0.000000
     12          3.921826   0.000000
 
 -0.1818182E+00  0.4545455E+00  0.3333333E+00  0.3305785E-01
      1        -13.796485   1.000000
      2        -11.977053   1.000000
      3         -5.445913   1.000000
      4         -5.010821   1.000000
      5         -3.879999   1.000000
      6         -0.842345   0.000000
      7         -0.424051   0.000000
      8          0.342012   0.000000
      9          2.494440   0.000000
     10          2.710885   0.000000
     11          3.428393   0.000000
     12          3.921012   0.000000
 
  0.3636364E+00  0.1818182E+00  0.3333333E+00  0.3305785E-01
      1        -13.406252   1.000000
      2        -12.342154   1.000000
      3         -5.713875   1.000000
      4         -4.838341   1.000000
      5         -4.290768   1.000000
      6         -0.904053   0.000000
      7         -0.215706   0.000000
      8          0.170365   0.000000
      9          2.656640   0.000000
     10          3.257686   0.000000
     11          3.827763   0.000000
     12          4.120719   0.000000
 
 -0.1818182E+00 -0.4545455E+00  0.3333333E+00  0.3305785E-01
      1        -13.406252   1.000000
      2        -12.342154   1.000000
      3         -5.713875   1.000000
      4         -4.838342   1.000000
      5         -4.290769   1.000000
      6         -0.904063   0.000000
      7         -0.215737   0.000000
      8          0.170428   0.000000
      9          2.664088   0.000000
     10          3.235524   0.000000
     11          3.811485   0.000000
     12          4.083361   0.000000
 
  0.2727273E+00  0.2727273E+00  0.3333333E+00  0.3305785E-01
      1        -13.379083   1.000000
      2        -12.354394   1.000000
      3         -5.674927   1.000000
      4         -5.054638   1.000000
      5         -4.223586   1.000000
      6         -1.082338   0.000000
      7         -0.163726   0.000000
      8          0.482023   0.000000
      9          3.081039   0.000000
     10          3.312220   0.000000
     11          3.735185   0.000000
     12          3.846263   0.000000
 
  0.3636364E+00  0.2727273E+00  0.3333333E+00  0.3305785E-01
      1        -13.072775   1.000000
      2        -12.646304   1.000000
      3         -5.836447   1.000000
      4         -4.811064   1.000000
      5         -4.519165   1.000000
      6         -1.259791   0.000000
      7          0.204096   0.000000
      8          0.325006   0.000000
      9          3.309324   0.000000
     10          3.581571   0.000000
     11          3.945022   0.000000
     12          4.110883   0.000000
