Automatically generated mesh
      42
Reciprocal lattice
    0.00000000000000    0.00000000000000    0.00000000000000             1
    0.09090909090909   -0.00000000000000    0.00000000000000             6
    0.18181818181818    0.00000000000000    0.00000000000000             6
    0.27272727272727    0.00000000000000    0.00000000000000             6
    0.36363636363637   -0.00000000000000    0.00000000000000             6
    0.45454545454545   -0.00000000000000    0.00000000000000             6
    0.09090909090909    0.09090909090909    0.00000000000000             6
    0.18181818181818    0.09090909090909    0.00000000000000            12
    0.27272727272727    0.09090909090909    0.00000000000000            12
    0.36363636363637    0.09090909090909    0.00000000000000            12
    0.45454545454545    0.09090909090909    0.00000000000000             6
    0.18181818181818    0.18181818181818    0.00000000000000             6
    0.27272727272727    0.18181818181818    0.00000000000000            12
    0.36363636363637    0.18181818181818    0.00000000000000            12
    0.27272727272727    0.27272727272727    0.00000000000000             6
    0.36363636363637    0.27272727272727    0.00000000000000             6
    0.00000000000000    0.00000000000000    0.33333333333334             2
    0.09090909090909   -0.00000000000000    0.33333333333334             6
    0.00000000000000    0.09090909090909    0.33333333333334             6
    0.18181818181818    0.00000000000000    0.33333333333334             6
    0.00000000000000    0.18181818181818    0.33333333333334             6
    0.27272727272727    0.00000000000000    0.33333333333334             6
    0.00000000000000    0.27272727272727    0.33333333333334             6
    0.36363636363637   -0.00000000000000    0.33333333333334             6
    0.00000000000000    0.36363636363637    0.33333333333334             6
    0.45454545454545   -0.00000000000000    0.33333333333334             6
    0.00000000000000    0.45454545454545    0.33333333333334             6
    0.09090909090909    0.09090909090909    0.33333333333334            12
    0.18181818181818    0.09090909090909    0.33333333333334            12
   -0.09090909090909    0.27272727272727    0.33333333333334            12
    0.27272727272727    0.09090909090909    0.33333333333334            12
   -0.09090909090909    0.36363636363637    0.33333333333334            12
    0.36363636363637    0.09090909090909    0.33333333333334            12
   -0.09090909090909    0.45454545454546    0.33333333333334            12
    0.45454545454545    0.09090909090909    0.33333333333334            12
    0.18181818181818    0.18181818181818    0.33333333333334            12
    0.27272727272727    0.18181818181818    0.33333333333334            12
   -0.18181818181818    0.45454545454545    0.33333333333334            12
    0.36363636363637    0.18181818181818    0.33333333333334            12
   -0.18181818181818   -0.45454545454545    0.33333333333334            12
    0.27272727272727    0.27272727272727    0.33333333333334            12
    0.36363636363637    0.27272727272727    0.33333333333334            12
