       N       E                     dE             d eps       ncg     rms          rms(c)
DAV:   1     0.494698378631E+02    0.49470E+02   -0.20199E+03  1016   0.346E+02
DAV:   2    -0.292555146831E+01   -0.52395E+02   -0.50060E+02  1448   0.874E+01
DAV:   3    -0.750370450263E+01   -0.45782E+01   -0.45549E+01  1296   0.302E+01
DAV:   4    -0.760435142753E+01   -0.10065E+00   -0.10061E+00  1432   0.546E+00
DAV:   5    -0.760570332681E+01   -0.13519E-02   -0.13519E-02  1312   0.494E-01
DAV:   6    -0.760572557869E+01   -0.22252E-04   -0.22252E-04  1568   0.642E-02
DAV:   7    -0.760572565642E+01   -0.77733E-07   -0.77837E-07  1336   0.383E-03
DAV:   8    -0.760572565708E+01   -0.65506E-09   -0.74550E-09  1104   0.370E-04
DAV:   9    -0.760572565737E+01   -0.29718E-09   -0.20396E-10   868   0.885E-05
DAV:  10    -0.760572565737E+01   -0.90949E-12   -0.66135E-11   832   0.531E-05
DAV:  11    -0.760572565739E+01   -0.12051E-10   -0.28396E-11   724   0.333E-05
DAV:  12    -0.760572565742E+01   -0.36380E-10   -0.12755E-11   648   0.224E-05    0.145E+00
DAV:  13    -0.758526227317E+01    0.20463E-01   -0.60145E-03  1280   0.325E-01    0.129E+00
DAV:  14    -0.754710701582E+01    0.38155E-01   -0.21728E-01  1212   0.183E+00    0.293E-01
DAV:  15    -0.754119235251E+01    0.59147E-02   -0.18555E-02  1064   0.619E-01    0.971E-02
DAV:  16    -0.754065353491E+01    0.53882E-03   -0.51126E-03  1268   0.304E-01    0.459E-02
DAV:  17    -0.754057728994E+01    0.76245E-04   -0.41261E-04  1124   0.986E-02    0.366E-02
DAV:  18    -0.754055666928E+01    0.20621E-04   -0.27472E-04  1252   0.726E-02    0.817E-03
DAV:  19    -0.754054679642E+01    0.98729E-05   -0.28711E-05  1188   0.219E-02    0.591E-03
DAV:  20    -0.754054495744E+01    0.18390E-05   -0.27090E-06  1148   0.861E-03    0.193E-03
DAV:  21    -0.754054465887E+01    0.29857E-06   -0.20898E-06  1276   0.574E-03
   1 F= -.75405447E+01 E0= -.75405447E+01  d E =-.754054E+01
