PROCAR new format
# of k-points:   42         # of bands:   12         # of ions:    2

 k-point     1 :    0.00000000 0.00000000 0.00000000     weight = 0.00275482

band     1 # energy  -15.03067137 # occ.  2.00000000
 
ion      s      p      d      f    tot
    1  0.374  0.010  0.000  0.001  0.385
    2  0.374  0.010  0.000  0.001  0.385
tot    0.749  0.019  0.000  0.001  0.769
 
band     2 # energy  -11.12307608 # occ.  2.00000000
 
ion      s      p      d      f    tot
    1  0.430  0.014  0.000  0.000  0.445
    2  0.430  0.014  0.000  0.000  0.445
tot    0.860  0.029  0.001  0.001  0.890
 
band     3 # energy   -3.48684744 # occ.  2.00000000
 
ion      s      p      d      f    tot
    1  0.007  0.280  0.003  0.003  0.292
    2  0.007  0.280  0.003  0.003  0.292
tot    0.013  0.559  0.006  0.006  0.585
 
band     4 # energy   -2.68293472 # occ.  2.00000000
 
ion      s      p      d      f    tot
    1  0.000  0.385  0.019  0.006  0.410
    2  0.000  0.385  0.019  0.006  0.410
tot    0.000  0.769  0.038  0.012  0.819
 
band     5 # energy   -2.68293472 # occ.  2.00000000
 
ion      s      p      d      f    tot
    1  0.000  0.385  0.019  0.006  0.410
    2  0.000  0.385  0.019  0.006  0.410
tot    0.000  0.769  0.038  0.012  0.819
 
band     6 # energy   -2.13389857 # occ.  0.00000000
 
ion      s      p      d      f    tot
    1  0.075  0.173  0.012  0.007  0.267
    2  0.075  0.173  0.012  0.007  0.267
tot    0.151  0.346  0.024  0.013  0.534
 
band     7 # energy   -0.13219711 # occ.  0.00000000
 
ion      s      p      d      f    tot
    1  0.000  0.341  0.024  0.008  0.373
    2  0.000  0.341  0.024  0.008  0.373
tot    0.000  0.681  0.049  0.015  0.745
 
band     8 # energy   -0.13219710 # occ.  0.00000000
 
ion      s      p      d      f    tot
    1  0.000  0.341  0.024  0.008  0.373
    2  0.000  0.341  0.024  0.008  0.373
tot    0.000  0.681  0.049  0.015  0.745
 
band     9 # energy    1.02659188 # occ.  0.00000000
 
ion      s      p      d      f    tot
    1  0.014  0.028  0.000  0.000  0.042
    2  0.014  0.028  0.000  0.000  0.042
tot    0.027  0.057  0.000  0.000  0.084
 
band    10 # energy    1.21549108 # occ.  0.00000000
 
ion      s      p      d      f    tot
    1  0.000  0.022  0.020  0.002  0.044
    2  0.000  0.022  0.020  0.002  0.044
tot    0.000  0.044  0.040  0.004  0.089
 
band    11 # energy    2.26990501 # occ.  0.00000000
 
ion      s      p      d      f    tot
    1  0.048  0.022  0.002  0.002  0.074
    2  0.048  0.022  0.002  0.002  0.074
tot    0.096  0.045  0.003  0.003  0.148
 
band    12 # energy    3.39657670 # occ.  0.00000000
 
ion      s      p      d      f    tot
    1  0.030  0.009  0.013  0.022  0.074
    2  0.030  0.009  0.013  0.022  0.074
tot    0.060  0.018  0.026  0.044  0.148
 

 k-point     2 :    0.09090909-0.00000000 0.00000000     weight = 0.01652893

band     1 # energy  -14.95783756 # occ.  2.00000000
 
ion      s      p      d      f    tot
    1  0.375  0.010  0.000  0.001  0.386
    2  0.375  0.010  0.000  0.001  0.386
tot    0.750  0.020  0.001  0.001  0.772
 
band     2 # energy  -11.15138552 # occ.  2.00000000
 
ion      s      p      d      f    tot
    1  0.433  0.013  0.001  0.000  0.447
    2  0.433  0.013  0.001  0.000  0.447
tot    0.866  0.026  0.001  0.001  0.895
 
band     3 # energy   -3.56659252 # occ.  2.00000000
 
ion      s      p      d      f    tot
    1  0.016  0.304  0.018  0.004  0.342
    2  0.016  0.304  0.018  0.004  0.342
tot    0.031  0.609  0.035  0.008  0.683
 
band     4 # energy   -3.46249107 # occ.  2.00000000
 
ion      s      p      d      f    tot
    1  0.008  0.285  0.003  0.003  0.299
    2  0.008  0.285  0.003  0.003  0.299
tot    0.016  0.570  0.007  0.006  0.598
 
band     5 # energy   -2.86085999 # occ.  2.00000000
 
ion      s      p      d      f    tot
    1  0.000  0.376  0.019  0.006  0.400
    2  0.000  0.376  0.019  0.006  0.400
tot    0.000  0.752  0.038  0.011  0.801
 
band     6 # energy   -1.40171884 # occ.  0.00000000
 
ion      s      p      d      f    tot
    1  0.053  0.240  0.012  0.007  0.312
    2  0.053  0.240  0.012  0.007  0.312
tot    0.105  0.481  0.024  0.015  0.624
 
band     7 # energy   -0.44685082 # occ.  0.00000000
 
ion      s      p      d      f    tot
    1  0.019  0.287  0.017  0.007  0.330
    2  0.019  0.287  0.017  0.007  0.330
tot    0.039  0.573  0.034  0.015  0.661
 
band     8 # energy    0.01933545 # occ.  0.00000000
 
ion      s      p      d      f    tot
    1  0.000  0.350  0.022  0.008  0.380
    2  0.000  0.350  0.022  0.008  0.380
tot    0.000  0.701  0.043  0.016  0.760
 
band     9 # energy    1.17217304 # occ.  0.00000000
 
ion      s      p      d      f    tot
    1  0.005  0.036  0.002  0.001  0.044
    2  0.005  0.036  0.002  0.001  0.044
tot    0.010  0.073  0.004  0.002  0.088
 
band    10 # energy    1.32489787 # occ.  0.00000000
 
ion      s      p      d      f    tot
    1  0.000  0.031  0.019  0.003  0.053
    2  0.000  0.031  0.019  0.003  0.053
tot    0.001  0.062  0.039  0.005  0.107
 
band    11 # energy    2.53696449 # occ.  0.00000000
 
ion      s      p      d      f    tot
    1  0.026  0.049  0.005  0.001  0.081
    2  0.026  0.049  0.005  0.001  0.081
tot    0.052  0.098  0.010  0.002  0.162
 
band    12 # energy    3.68888983 # occ.  0.00000000
 
ion      s      p      d      f    tot
    1  0.033  0.042  0.026  0.026  0.128
    2  0.033  0.042  0.026  0.026  0.128
tot    0.066  0.084  0.053  0.053  0.255
 

 k-point     3 :    0.18181818 0.00000000 0.00000000     weight = 0.01652893

band     1 # energy  -14.74397221 # occ.  2.00000000
 
ion      s      p      d      f    tot
    1  0.378  0.012  0.001  0.001  0.391
    2  0.378  0.012  0.001  0.001  0.391
tot    0.756  0.023  0.002  0.001  0.782
 
band     2 # energy  -11.25583169 # occ.  2.00000000
 
ion      s      p      d      f    tot
    1  0.440  0.011  0.002  0.001  0.454
    2  0.440  0.011  0.002  0.001  0.454
tot    0.880  0.022  0.003  0.001  0.907
 
band     3 # energy   -4.54126841 # occ.  2.00000000
 
ion      s      p      d      f    tot
    1  0.006  0.290  0.015  0.002  0.314
    2  0.006  0.290  0.015  0.002  0.314
tot    0.013  0.580  0.030  0.005  0.628
 
band     4 # energy   -3.45289929 # occ.  2.00000000
 
ion      s      p      d      f    tot
    1  0.014  0.299  0.003  0.002  0.319
    2  0.014  0.299  0.003  0.002  0.319
tot    0.029  0.598  0.006  0.004  0.637
 
band     5 # energy   -3.24599546 # occ.  2.00000000
 
ion      s      p      d      f    tot
    1  0.000  0.363  0.018  0.005  0.385
    2  0.000  0.363  0.018  0.005  0.385
tot    0.000  0.725  0.036  0.009  0.770
 
band     6 # energy   -1.50914345 # occ.  0.00000000
 
ion      s      p      d      f    tot
    1  0.036  0.210  0.018  0.006  0.270
    2  0.036  0.210  0.018  0.006  0.270
tot    0.073  0.420  0.036  0.012  0.541
 
band     7 # energy   -0.15972387 # occ.  0.00000000
 
ion      s      p      d      f    tot
    1  0.039  0.254  0.005  0.008  0.306
    2  0.039  0.254  0.005  0.008  0.306
tot    0.078  0.507  0.011  0.015  0.612
 
band     8 # energy    0.29355260 # occ.  0.00000000
 
ion      s      p      d      f    tot
    1  0.000  0.361  0.018  0.008  0.387
    2  0.000  0.361  0.018  0.008  0.387
tot    0.000  0.723  0.036  0.016  0.774
 
band     9 # energy    1.44427708 # occ.  0.00000000
 
ion      s      p      d      f    tot
    1  0.002  0.030  0.007  0.001  0.040
    2  0.002  0.030  0.007  0.001  0.040
tot    0.003  0.060  0.014  0.003  0.080
 
band    10 # energy    1.59886836 # occ.  0.00000000
 
ion      s      p      d      f    tot
    1  0.000  0.053  0.016  0.004  0.072
    2  0.000  0.053  0.016  0.004  0.072
tot    0.001  0.106  0.031  0.007  0.145
 
band    11 # energy    2.81311296 # occ.  0.00000000
 
ion      s      p      d      f    tot
    1  0.007  0.049  0.021  0.005  0.082
    2  0.007  0.049  0.021  0.005  0.082
tot    0.014  0.098  0.042  0.010  0.165
 
band    12 # energy    3.59863243 # occ.  0.00000000
 
ion      s      p      d      f    tot
    1  0.012  0.032  0.065  0.014  0.124
    2  0.012  0.032  0.065  0.014  0.124
tot    0.025  0.065  0.129  0.028  0.247
 

 k-point     4 :    0.27272727 0.00000000 0.00000000     weight = 0.01652893

band     1 # energy  -14.40580286 # occ.  2.00000000
 
ion      s      p      d      f    tot
    1  0.383  0.013  0.002  0.001  0.399
    2  0.383  0.013  0.002  0.001  0.399
tot    0.766  0.027  0.003  0.001  0.797
 
band     2 # energy  -11.47909497 # occ.  2.00000000
 
ion      s      p      d      f    tot
    1  0.444  0.010  0.003  0.001  0.458
    2  0.444  0.010  0.003  0.001  0.458
tot    0.887  0.021  0.006  0.001  0.916
 
band     3 # energy   -5.25652178 # occ.  2.00000000
 
ion      s      p      d      f    tot
    1  0.002  0.281  0.011  0.001  0.295
    2  0.002  0.281  0.011  0.001  0.295
tot    0.005  0.562  0.021  0.002  0.590
 
band     4 # energy   -3.63842344 # occ.  2.00000000
 
ion      s      p      d      f    tot
    1  0.000  0.353  0.016  0.004  0.373
    2  0.000  0.353  0.016  0.004  0.373
tot    0.000  0.706  0.031  0.008  0.746
 
band     5 # energy   -3.63169912 # occ.  2.00000000
 
ion      s      p      d      f    tot
    1  0.026  0.305  0.002  0.002  0.335
    2  0.026  0.305  0.002  0.002  0.335
tot    0.051  0.611  0.004  0.004  0.670
 
band     6 # energy   -1.78079740 # occ.  0.00000000
 
ion      s      p      d      f    tot
    1  0.026  0.192  0.021  0.005  0.244
    2  0.026  0.192  0.021  0.005  0.244
tot    0.052  0.385  0.042  0.010  0.488
 
band     7 # energy    0.09448913 # occ.  0.00000000
 
ion      s      p      d      f    tot
    1  0.028  0.226  0.018  0.006  0.278
    2  0.028  0.226  0.018  0.006  0.278
tot    0.055  0.452  0.036  0.013  0.555
 
band     8 # energy    0.46570149 # occ.  0.00000000
 
ion      s      p      d      f    tot
    1  0.000  0.356  0.018  0.006  0.380
    2  0.000  0.356  0.018  0.006  0.380
tot    0.000  0.712  0.036  0.012  0.761
 
band     9 # energy    1.79349419 # occ.  0.00000000
 
ion      s      p      d      f    tot
    1  0.001  0.017  0.023  0.002  0.043
    2  0.001  0.017  0.023  0.002  0.043
tot    0.003  0.034  0.045  0.004  0.086
 
band    10 # energy    1.89219321 # occ.  0.00000000
 
ion      s      p      d      f    tot
    1  0.002  0.051  0.006  0.002  0.060
    2  0.002  0.051  0.006  0.002  0.060
tot    0.003  0.102  0.013  0.003  0.121
 
band    11 # energy    2.96317115 # occ.  0.00000000
 
ion      s      p      d      f    tot
    1  0.003  0.054  0.040  0.006  0.103
    2  0.003  0.054  0.040  0.006  0.103
tot    0.006  0.109  0.080  0.011  0.206
 
band    12 # energy    3.76968054 # occ.  0.00000000
 
ion      s      p      d      f    tot
    1  0.019  0.043  0.044  0.007  0.112
    2  0.019  0.043  0.044  0.007  0.112
tot    0.038  0.086  0.087  0.013  0.224
 

 k-point     5 :    0.36363636-0.00000000 0.00000000     weight = 0.01652893

band     1 # energy  -13.98569851 # occ.  2.00000000
 
ion      s      p      d      f    tot
    1  0.392  0.014  0.003  0.001  0.409
    2  0.392  0.014  0.003  0.001  0.409
tot    0.783  0.029  0.006  0.001  0.819
 
band     2 # energy  -11.82999232 # occ.  2.00000000
 
ion      s      p      d      f    tot
    1  0.437  0.013  0.004  0.001  0.454
    2  0.437  0.013  0.004  0.001  0.454
tot    0.873  0.026  0.008  0.001  0.909
 
band     3 # energy   -5.64342417 # occ.  2.00000000
 
ion      s      p      d      f    tot
    1  0.010  0.272  0.006  0.000  0.289
    2  0.010  0.272  0.006  0.000  0.289
tot    0.021  0.544  0.012  0.001  0.578
 
band     4 # energy   -4.01622358 # occ.  2.00000000
 
ion      s      p      d      f    tot
    1  0.029  0.294  0.002  0.002  0.327
    2  0.029  0.294  0.002  0.002  0.327
tot    0.057  0.589  0.004  0.004  0.654
 
band     5 # energy   -3.93585500 # occ.  2.00000000
 
ion      s      p      d      f    tot
    1  0.000  0.347  0.013  0.004  0.365
    2  0.000  0.347  0.013  0.004  0.365
tot    0.000  0.695  0.027  0.008  0.730
 
band     6 # energy   -1.65646730 # occ.  0.00000000
 
ion      s      p      d      f    tot
    1  0.019  0.199  0.026  0.004  0.249
    2  0.019  0.199  0.026  0.004  0.249
tot    0.039  0.399  0.052  0.008  0.498
 
band     7 # energy   -0.13815568 # occ.  0.00000000
 
ion      s      p      d      f    tot
    1  0.014  0.208  0.032  0.004  0.258
    2  0.014  0.208  0.032  0.004  0.258
tot    0.028  0.416  0.065  0.008  0.516
 
band     8 # energy    0.51028388 # occ.  0.00000000
 
ion      s      p      d      f    tot
    1  0.000  0.342  0.021  0.004  0.368
    2  0.000  0.342  0.021  0.004  0.368
tot    0.000  0.685  0.042  0.009  0.736
 
band     9 # energy    2.17082151 # occ.  0.00000000
 
ion      s      p      d      f    tot
    1  0.005  0.045  0.024  0.001  0.075
    2  0.005  0.045  0.024  0.001  0.075
tot    0.009  0.090  0.049  0.002  0.150
 
band    10 # energy    2.30573949 # occ.  0.00000000
 
ion      s      p      d      f    tot
    1  0.004  0.016  0.028  0.002  0.050
    2  0.004  0.016  0.028  0.002  0.050
tot    0.008  0.032  0.055  0.004  0.099
 
band    11 # energy    2.98449814 # occ.  0.00000000
 
ion      s      p      d      f    tot
    1  0.000  0.020  0.041  0.002  0.063
    2  0.000  0.020  0.041  0.002  0.063
tot    0.000  0.040  0.082  0.004  0.126
 
band    12 # energy    3.92422641 # occ.  0.00000000
 
ion      s      p      d      f    tot
    1  0.019  0.021  0.026  0.008  0.074
    2  0.019  0.021  0.026  0.008  0.074
tot    0.039  0.041  0.051  0.016  0.147
 

 k-point     6 :    0.45454545-0.00000000 0.00000000     weight = 0.01652893

band     1 # energy  -13.61097246 # occ.  2.00000000
 
ion      s      p      d      f    tot
    1  0.402  0.014  0.004  0.001  0.421
    2  0.402  0.014  0.004  0.001  0.421
tot    0.804  0.028  0.008  0.001  0.841
 
band     2 # energy  -12.18269901 # occ.  2.00000000
 
ion      s      p      d      f    tot
    1  0.423  0.017  0.004  0.001  0.445
    2  0.423  0.017  0.004  0.001  0.445
tot    0.847  0.034  0.009  0.001  0.891
 
band     3 # energy   -5.76583852 # occ.  2.00000000
 
ion      s      p      d      f    tot
    1  0.024  0.265  0.003  0.000  0.292
    2  0.024  0.265  0.003  0.000  0.292
tot    0.048  0.530  0.005  0.001  0.583
 
band     4 # energy   -4.32642964 # occ.  2.00000000
 
ion      s      p      d      f    tot
    1  0.023  0.287  0.002  0.002  0.314
    2  0.023  0.287  0.002  0.002  0.314
tot    0.045  0.574  0.005  0.004  0.628
 
band     5 # energy   -4.09332858 # occ.  2.00000000
 
ion      s      p      d      f    tot
    1  0.000  0.345  0.012  0.004  0.361
    2  0.000  0.345  0.012  0.004  0.361
tot    0.000  0.690  0.024  0.008  0.722
 
band     6 # energy   -1.38406613 # occ.  0.00000000
 
ion      s      p      d      f    tot
    1  0.021  0.202  0.034  0.004  0.261
    2  0.021  0.202  0.034  0.004  0.261
tot    0.042  0.405  0.069  0.008  0.523
 
band     7 # energy   -0.46598225 # occ.  0.00000000
 
ion      s      p      d      f    tot
    1  0.005  0.215  0.031  0.002  0.252
    2  0.005  0.215  0.031  0.002  0.252
tot    0.010  0.429  0.061  0.003  0.504
 
band     8 # energy    0.50443548 # occ.  0.00000000
 
ion      s      p      d      f    tot
    1  0.000  0.333  0.023  0.003  0.360
    2  0.000  0.333  0.023  0.003  0.360
tot    0.000  0.666  0.047  0.007  0.720
 
band     9 # energy    2.14648491 # occ.  0.00000000
 
ion      s      p      d      f    tot
    1  0.001  0.017  0.067  0.001  0.086
    2  0.001  0.017  0.067  0.001  0.086
tot    0.001  0.035  0.134  0.002  0.172
 
band    10 # energy    2.96677968 # occ.  0.00000000
 
ion      s      p      d      f    tot
    1  0.013  0.010  0.022  0.003  0.047
    2  0.013  0.010  0.022  0.003  0.047
tot    0.026  0.020  0.044  0.005  0.095
 
band    11 # energy    3.35049769 # occ.  0.00000000
 
ion      s      p      d      f    tot
    1  0.004  0.025  0.011  0.003  0.043
    2  0.004  0.025  0.011  0.003  0.043
tot    0.009  0.050  0.022  0.005  0.086
 
band    12 # energy    3.80225717 # occ.  0.00000000
 
ion      s      p      d      f    tot
    1  0.011  0.007  0.023  0.005  0.046
    2  0.011  0.007  0.023  0.005  0.046
tot    0.021  0.014  0.046  0.010  0.092
 

 k-point     7 :    0.09090909 0.09090909 0.00000000     weight = 0.01652893

band     1 # energy  -14.81437092 # occ.  2.00000000
 
ion      s      p      d      f    tot
    1  0.377  0.011  0.001  0.001  0.389
    2  0.377  0.011  0.001  0.001  0.389
tot    0.754  0.022  0.001  0.001  0.779
 
band     2 # energy  -11.21779020 # occ.  2.00000000
 
ion      s      p      d      f    tot
    1  0.438  0.012  0.001  0.001  0.452
    2  0.438  0.012  0.001  0.001  0.452
tot    0.877  0.023  0.003  0.001  0.904
 
band     3 # energy   -4.25223678 # occ.  2.00000000
 
ion      s      p      d      f    tot
    1  0.009  0.293  0.016  0.003  0.322
    2  0.009  0.293  0.016  0.003  0.322
tot    0.018  0.587  0.033  0.006  0.644
 
band     4 # energy   -3.47619149 # occ.  2.00000000
 
ion      s      p      d      f    tot
    1  0.014  0.303  0.005  0.002  0.324
    2  0.014  0.303  0.005  0.002  0.324
tot    0.027  0.607  0.010  0.005  0.649
 
band     5 # energy   -3.24449334 # occ.  2.00000000
 
ion      s      p      d      f    tot
    1  0.000  0.341  0.016  0.005  0.362
    2  0.000  0.341  0.016  0.005  0.362
tot    0.000  0.682  0.033  0.009  0.724
 
band     6 # energy   -0.87468272 # occ.  0.00000000
 
ion      s      p      d      f    tot
    1  0.045  0.253  0.012  0.008  0.317
    2  0.045  0.253  0.012  0.008  0.317
tot    0.091  0.505  0.024  0.015  0.635
 
band     7 # energy   -0.82148327 # occ.  0.00000000
 
ion      s      p      d      f    tot
    1  0.025  0.257  0.015  0.007  0.304
    2  0.025  0.257  0.015  0.007  0.304
tot    0.050  0.513  0.031  0.013  0.607
 
band     8 # energy    0.29681351 # occ.  0.00000000
 
ion      s      p      d      f    tot
    1  0.006  0.341  0.014  0.008  0.369
    2  0.006  0.341  0.014  0.008  0.369
tot    0.011  0.683  0.028  0.017  0.738
 
band     9 # energy    1.37040169 # occ.  0.00000000
 
ion      s      p      d      f    tot
    1  0.002  0.036  0.003  0.001  0.042
    2  0.002  0.036  0.003  0.001  0.042
tot    0.004  0.071  0.007  0.003  0.085
 
band    10 # energy    1.51878779 # occ.  0.00000000
 
ion      s      p      d      f    tot
    1  0.001  0.048  0.018  0.004  0.070
    2  0.001  0.048  0.018  0.004  0.070
tot    0.001  0.096  0.036  0.008  0.140
 
band    11 # energy    2.74765485 # occ.  0.00000000
 
ion      s      p      d      f    tot
    1  0.009  0.045  0.018  0.004  0.076
    2  0.009  0.045  0.018  0.004  0.076
tot    0.019  0.089  0.036  0.008  0.152
 
band    12 # energy    3.76041301 # occ.  0.00000000
 
ion      s      p      d      f    tot
    1  0.007  0.047  0.073  0.024  0.151
    2  0.007  0.047  0.073  0.024  0.151
tot    0.014  0.094  0.146  0.049  0.302
 

 k-point     8 :    0.18181818 0.09090909 0.00000000     weight = 0.03305785

band     1 # energy  -14.53720821 # occ.  2.00000000
 
ion      s      p      d      f    tot
    1  0.381  0.013  0.001  0.001  0.396
    2  0.381  0.013  0.001  0.001  0.396
tot    0.762  0.025  0.003  0.001  0.791
 
band     2 # energy  -11.38275343 # occ.  2.00000000
 
ion      s      p      d      f    tot
    1  0.444  0.010  0.003  0.001  0.457
    2  0.444  0.010  0.003  0.001  0.457
tot    0.887  0.020  0.005  0.001  0.914
 
band     3 # energy   -4.94426719 # occ.  2.00000000
 
ion      s      p      d      f    tot
    1  0.002  0.286  0.013  0.002  0.303
    2  0.002  0.286  0.013  0.002  0.303
tot    0.004  0.573  0.026  0.003  0.606
 
band     4 # energy   -3.91062876 # occ.  2.00000000
 
ion      s      p      d      f    tot
    1  0.012  0.318  0.014  0.003  0.347
    2  0.012  0.318  0.014  0.003  0.347
tot    0.025  0.637  0.027  0.006  0.694
 
band     5 # energy   -3.41304601 # occ.  2.00000000
 
ion      s      p      d      f    tot
    1  0.010  0.317  0.006  0.003  0.335
    2  0.010  0.317  0.006  0.003  0.335
tot    0.020  0.634  0.011  0.006  0.671
 
band     6 # energy   -1.27821777 # occ.  0.00000000
 
ion      s      p      d      f    tot
    1  0.027  0.225  0.017  0.006  0.275
    2  0.027  0.225  0.017  0.006  0.275
tot    0.055  0.450  0.034  0.011  0.551
 
band     7 # energy   -0.25262328 # occ.  0.00000000
 
ion      s      p      d      f    tot
    1  0.030  0.268  0.013  0.007  0.317
    2  0.030  0.268  0.013  0.007  0.317
tot    0.059  0.535  0.026  0.014  0.635
 
band     8 # energy    0.42462543 # occ.  0.00000000
 
ion      s      p      d      f    tot
    1  0.010  0.310  0.014  0.007  0.341
    2  0.010  0.310  0.014  0.007  0.341
tot    0.019  0.620  0.028  0.015  0.682
 
band     9 # energy    1.69473848 # occ.  0.00000000
 
ion      s      p      d      f    tot
    1  0.001  0.031  0.012  0.002  0.045
    2  0.001  0.031  0.012  0.002  0.045
tot    0.001  0.063  0.023  0.004  0.091
 
band    10 # energy    1.79674932 # occ.  0.00000000
 
ion      s      p      d      f    tot
    1  0.000  0.050  0.014  0.003  0.068
    2  0.000  0.050  0.014  0.003  0.068
tot    0.000  0.101  0.028  0.007  0.135
 
band    11 # energy    2.88733144 # occ.  0.00000000
 
ion      s      p      d      f    tot
    1  0.002  0.041  0.047  0.010  0.100
    2  0.002  0.041  0.047  0.010  0.100
tot    0.004  0.082  0.094  0.019  0.200
 
band    12 # energy    3.71480681 # occ.  0.00000000
 
ion      s      p      d      f    tot
    1  0.008  0.046  0.048  0.010  0.112
    2  0.008  0.046  0.048  0.010  0.112
tot    0.016  0.092  0.096  0.020  0.224
 

 k-point     9 :    0.27272727 0.09090909 0.00000000     weight = 0.03305785

band     1 # energy  -14.15209039 # occ.  2.00000000
 
ion      s      p      d      f    tot
    1  0.388  0.014  0.002  0.001  0.405
    2  0.388  0.014  0.002  0.001  0.405
tot    0.775  0.028  0.005  0.001  0.810
 
band     2 # energy  -11.67737254 # occ.  2.00000000
 
ion      s      p      d      f    tot
    1  0.442  0.011  0.004  0.001  0.457
    2  0.442  0.011  0.004  0.001  0.457
tot    0.883  0.022  0.008  0.001  0.915
 
band     3 # energy   -5.43743669 # occ.  2.00000000
 
ion      s      p      d      f    tot
    1  0.005  0.278  0.008  0.001  0.292
    2  0.005  0.278  0.008  0.001  0.292
tot    0.009  0.556  0.017  0.002  0.584
 
band     4 # energy   -4.31794641 # occ.  2.00000000
 
ion      s      p      d      f    tot
    1  0.012  0.307  0.012  0.003  0.333
    2  0.012  0.307  0.012  0.003  0.333
tot    0.023  0.614  0.024  0.005  0.666
 
band     5 # energy   -3.65651565 # occ.  2.00000000
 
ion      s      p      d      f    tot
    1  0.017  0.322  0.005  0.003  0.346
    2  0.017  0.322  0.005  0.003  0.346
tot    0.034  0.644  0.010  0.005  0.692
 
band     6 # energy   -1.40064600 # occ.  0.00000000
 
ion      s      p      d      f    tot
    1  0.020  0.213  0.021  0.005  0.258
    2  0.020  0.213  0.021  0.005  0.258
tot    0.040  0.426  0.042  0.009  0.517
 
band     7 # energy    0.08586664 # occ.  0.00000000
 
ion      s      p      d      f    tot
    1  0.022  0.252  0.019  0.006  0.299
    2  0.022  0.252  0.019  0.006  0.299
tot    0.044  0.505  0.039  0.011  0.599
 
band     8 # energy    0.18618543 # occ.  0.00000000
 
ion      s      p      d      f    tot
    1  0.005  0.284  0.025  0.005  0.319
    2  0.005  0.284  0.025  0.005  0.319
tot    0.010  0.568  0.050  0.010  0.639
 
band     9 # energy    2.10556740 # occ.  0.00000000
 
ion      s      p      d      f    tot
    1  0.002  0.018  0.022  0.002  0.045
    2  0.002  0.018  0.022  0.002  0.045
tot    0.005  0.037  0.044  0.005  0.090
 
band    10 # energy    2.17710715 # occ.  0.00000000
 
ion      s      p      d      f    tot
    1  0.001  0.057  0.010  0.002  0.070
    2  0.001  0.057  0.010  0.002  0.070
tot    0.002  0.115  0.020  0.004  0.140
 
band    11 # energy    3.01853659 # occ.  0.00000000
 
ion      s      p      d      f    tot
    1  0.000  0.044  0.054  0.006  0.105
    2  0.000  0.044  0.054  0.006  0.105
tot    0.001  0.088  0.109  0.012  0.210
 
band    12 # energy    4.04942574 # occ.  0.00000000
 
ion      s      p      d      f    tot
    1  0.010  0.053  0.029  0.004  0.096
    2  0.010  0.053  0.029  0.004  0.096
tot    0.019  0.106  0.058  0.008  0.193
 

 k-point    10 :    0.36363636 0.09090909 0.00000000     weight = 0.03305785

band     1 # energy  -13.72726892 # occ.  2.00000000
 
ion      s      p      d      f    tot
    1  0.398  0.015  0.004  0.001  0.416
    2  0.398  0.015  0.004  0.001  0.416
tot    0.795  0.029  0.007  0.001  0.833
 
band     2 # energy  -12.05977901 # occ.  2.00000000
 
ion      s      p      d      f    tot
    1  0.430  0.015  0.005  0.001  0.450
    2  0.430  0.015  0.005  0.001  0.450
tot    0.861  0.029  0.009  0.001  0.900
 
band     3 # energy   -5.68803988 # occ.  2.00000000
 
ion      s      p      d      f    tot
    1  0.017  0.269  0.005  0.000  0.291
    2  0.017  0.269  0.005  0.000  0.291
tot    0.034  0.538  0.009  0.001  0.582
 
band     4 # energy   -4.48371214 # occ.  2.00000000
 
ion      s      p      d      f    tot
    1  0.010  0.304  0.010  0.002  0.326
    2  0.010  0.304  0.010  0.002  0.326
tot    0.019  0.609  0.020  0.005  0.652
 
band     5 # energy   -4.04845011 # occ.  2.00000000
 
ion      s      p      d      f    tot
    1  0.016  0.314  0.006  0.002  0.338
    2  0.016  0.314  0.006  0.002  0.338
tot    0.032  0.628  0.012  0.005  0.676
 
band     6 # energy   -1.18463596 # occ.  0.00000000
 
ion      s      p      d      f    tot
    1  0.017  0.220  0.026  0.004  0.267
    2  0.017  0.220  0.026  0.004  0.267
tot    0.034  0.440  0.051  0.008  0.533
 
band     7 # energy   -0.26087151 # occ.  0.00000000
 
ion      s      p      d      f    tot
    1  0.009  0.235  0.032  0.004  0.279
    2  0.009  0.235  0.032  0.004  0.279
tot    0.018  0.469  0.063  0.007  0.557
 
band     8 # energy    0.22993990 # occ.  0.00000000
 
ion      s      p      d      f    tot
    1  0.008  0.279  0.022  0.004  0.314
    2  0.008  0.279  0.022  0.004  0.314
tot    0.016  0.558  0.045  0.008  0.627
 
band     9 # energy    2.33488824 # occ.  0.00000000
 
ion      s      p      d      f    tot
    1  0.001  0.042  0.054  0.003  0.099
    2  0.001  0.042  0.054  0.003  0.099
tot    0.001  0.084  0.107  0.005  0.198
 
band    10 # energy    2.72379011 # occ.  0.00000000
 
ion      s      p      d      f    tot
    1  0.005  0.015  0.021  0.002  0.045
    2  0.005  0.015  0.021  0.002  0.045
tot    0.011  0.031  0.042  0.005  0.089
 
band    11 # energy    3.20240633 # occ.  0.00000000
 
ion      s      p      d      f    tot
    1  0.001  0.020  0.023  0.001  0.045
    2  0.001  0.020  0.023  0.001  0.045
tot    0.001  0.040  0.046  0.003  0.090
 
band    12 # energy    4.12874726 # occ.  0.00000000
 
ion      s      p      d      f    tot
    1  0.013  0.041  0.022  0.008  0.084
    2  0.013  0.041  0.022  0.008  0.084
tot    0.025  0.083  0.045  0.015  0.168
 

 k-point    11 :    0.45454545 0.09090909 0.00000000     weight = 0.01652893

band     1 # energy  -13.48933657 # occ.  2.00000000
 
ion      s      p      d      f    tot
    1  0.405  0.014  0.004  0.001  0.424
    2  0.405  0.014  0.004  0.001  0.424
tot    0.810  0.027  0.009  0.001  0.848
 
band     2 # energy  -12.28834508 # occ.  2.00000000
 
ion      s      p      d      f    tot
    1  0.421  0.017  0.004  0.001  0.444
    2  0.421  0.017  0.004  0.001  0.444
tot    0.842  0.035  0.009  0.001  0.887
 
band     3 # energy   -5.75645761 # occ.  2.00000000
 
ion      s      p      d      f    tot
    1  0.024  0.265  0.003  0.000  0.293
    2  0.024  0.265  0.003  0.000  0.293
tot    0.049  0.530  0.006  0.001  0.585
 
band     4 # energy   -4.38087768 # occ.  2.00000000
 
ion      s      p      d      f    tot
    1  0.000  0.325  0.013  0.003  0.341
    2  0.000  0.325  0.013  0.003  0.341
tot    0.001  0.651  0.025  0.006  0.682
 
band     5 # energy   -4.37173729 # occ.  2.00000000
 
ion      s      p      d      f    tot
    1  0.022  0.288  0.003  0.002  0.314
    2  0.022  0.288  0.003  0.002  0.314
tot    0.043  0.576  0.005  0.004  0.629
 
band     6 # energy   -0.90859779 # occ.  0.00000000
 
ion      s      p      d      f    tot
    1  0.023  0.227  0.031  0.005  0.286
    2  0.023  0.227  0.031  0.005  0.286
tot    0.045  0.454  0.062  0.011  0.572
 
band     7 # energy   -0.59815641 # occ.  0.00000000
 
ion      s      p      d      f    tot
    1  0.001  0.228  0.029  0.001  0.260
    2  0.001  0.228  0.029  0.001  0.260
tot    0.002  0.456  0.058  0.003  0.519
 
band     8 # energy    0.26953640 # occ.  0.00000000
 
ion      s      p      d      f    tot
    1  0.006  0.282  0.022  0.004  0.315
    2  0.006  0.282  0.022  0.004  0.315
tot    0.013  0.565  0.045  0.007  0.630
 
band     9 # energy    2.23680624 # occ.  0.00000000
 
ion      s      p      d      f    tot
    1  0.000  0.011  0.072  0.003  0.087
    2  0.000  0.011  0.072  0.003  0.087
tot    0.001  0.023  0.144  0.005  0.173
 
band    10 # energy    3.41168567 # occ.  0.00000000
 
ion      s      p      d      f    tot
    1  0.013  0.031  0.012  0.003  0.060
    2  0.013  0.031  0.012  0.003  0.060
tot    0.026  0.062  0.024  0.007  0.120
 
band    11 # energy    3.56907627 # occ.  0.00000000
 
ion      s      p      d      f    tot
    1  0.004  0.007  0.026  0.003  0.041
    2  0.004  0.007  0.026  0.003  0.041
tot    0.008  0.015  0.053  0.005  0.081
 
band    12 # energy    3.77883489 # occ.  0.00000000
 
ion      s      p      d      f    tot
    1  0.000  0.043  0.003  0.003  0.049
    2  0.000  0.043  0.003  0.003  0.049
tot    0.000  0.086  0.007  0.005  0.098
 

 k-point    12 :    0.18181818 0.18181818 0.00000000     weight = 0.01652893

band     1 # energy  -14.20940442 # occ.  2.00000000
 