<?xml version="1.0" encoding="ISO-8859-1"?>
<modeling>
 <generator>
  <i name="program" type="string">vasp </i>
  <i name="version" type="string">6.4.2  </i>
  <i name="subversion" type="string">20Jul23 (build Nov 14 2023 12:59:38) complex                          parallel </i>
  <i name="platform" type="string">LinuxIFC </i>
  <i name="date" type="string">2023 12 16 </i>
  <i name="time" type="string">19:22:52 </i>
 </generator>
 <incar>
  <i type="string" name="PREC">Accurate</i>
  <i type="string" name="ALGO">Normal</i>
  <i type="logical" name="ADDGRID"> T  </i>
  <i type="int" name="ISPIN">     1</i>
  <i name="AMIX">      0.10000000</i>
  <i name="BMIX">      0.00010000</i>
  <i type="int" name="NELM">   200</i>
  <i type="int" name="NELMDL">   -12</i>
  <i type="int" name="NELMIN">     6</i>
  <i type="int" name="IBRION">     2</i>
  <i name="EDIFF">      0.00000100</i>
  <i name="EDIFFG">     -0.01000000</i>
  <i type="int" name="NSW">    30</i>
  <i type="int" name="ISIF">     3</i>
  <i name="ENCUT">    293.06000000</i>
  <i name="POTIM">      0.50000000</i>
  <i type="int" name="NEDOS">  6001</i>
  <i type="logical" name="LPLANE"> T  </i>
  <i type="int" name="ISMEAR">     0</i>
  <i name="SIGMA">      0.01000000</i>
  <i type="int" name="NWRITE">     1</i>
  <i type="logical" name="LWAVE"> F  </i>
  <i type="logical" name="LCHARG"> F  </i>
  <i type="int" name="LORBIT">    10</i>
  <i type="logical" name="LASPH"> T  </i>
  <i type="int" name="IVDW">     0</i>
 </incar>
 <primitive_cell>
  <structure name="primitive_cell" >
   <crystal>
    <varray name="basis" >
     <v>       4.33242938       0.00000000       0.00000000 </v>
     <v>      -2.16621469       3.75199391       0.00000000 </v>
     <v>       0.00000000       0.00000000      16.00000000 </v>
    </varray>
    <i name="volume">    260.08397844 </i>
    <varray name="rec_basis" >
     <v>       0.23081738       0.13326248       0.00000000 </v>
     <v>       0.00000000       0.26652495       0.00000000 </v>
     <v>       0.00000000       0.00000000       0.06250000 </v>
    </varray>
   </crystal>
   <varray name="positions" >
    <v>       0.66666667       0.33333333       0.44570588 </v>
    <v>       0.33333333       0.66666667       0.55429412 </v>
   </varray>
  </structure>
  <varray name="primitive_index" >
   <v type="int" >        1 </v>
   <v type="int" >        2 </v>
  </varray>
 </primitive_cell>
 <kpoints>
  <generation param="Auto">
   <i name="subdivisionlength">     40.00000000 </i>
   <v type="int" name="divisions">      11       11        3 </v>
   <v name="usershift">      0.00000000       0.00000000       0.00000000 </v>
   <v name="genvec1">      0.09090909       0.00000000       0.00000000 </v>
   <v name="genvec2">      0.00000000       0.09090909       0.00000000 </v>
   <v name="genvec3">      0.00000000       0.00000000       0.33333333 </v>
   <v name="shift">      0.00000000       0.00000000       0.00000000 </v>
  </generation>
  <varray name="kpointlist" >
   <v>       0.00000000       0.00000000       0.00000000 </v>
   <v>       0.09090909      -0.00000000       0.00000000 </v>
   <v>       0.18181818       0.00000000       0.00000000 </v>
   <v>       0.27272727       0.00000000       0.00000000 </v>
   <v>       0.36363636      -0.00000000       0.00000000 </v>
   <v>       0.45454545      -0.00000000       0.00000000 </v>
   <v>       0.09090909       0.09090909       0.00000000 </v>
   <v>       0.18181818       0.09090909       0.00000000 </v>
   <v>       0.27272727       0.09090909       0.00000000 </v>
   <v>       0.36363636       0.09090909       0.00000000 </v>
   <v>       0.45454545       0.09090909       0.00000000 </v>
   <v>       0.18181818       0.18181818       0.00000000 </v>
   <v>       0.27272727       0.18181818       0.00000000 </v>
   <v>       0.36363636       0.18181818       0.00000000 </v>
   <v>       0.27272727       0.27272727       0.00000000 </v>
   <v>       0.36363636       0.27272727       0.00000000 </v>
   <v>       0.00000000       0.00000000       0.33333333 </v>
   <v>       0.09090909      -0.00000000       0.33333333 </v>
   <v>       0.00000000       0.09090909       0.33333333 </v>
   <v>       0.18181818       0.00000000       0.33333333 </v>
   <v>       0.00000000       0.18181818       0.33333333 </v>
   <v>       0.27272727       0.00000000       0.33333333 </v>
   <v>       0.00000000       0.27272727       0.33333333 </v>
   <v>       0.36363636      -0.00000000       0.33333333 </v>
   <v>       0.00000000       0.36363636       0.33333333 </v>
   <v>       0.45454545      -0.00000000       0.33333333 </v>
   <v>       0.00000000       0.45454545       0.33333333 </v>
   <v>       0.09090909       0.09090909       0.33333333 </v>
   <v>       0.18181818       0.09090909       0.33333333 </v>
   <v>      -0.09090909       0.27272727       0.33333333 </v>
   <v>       0.27272727       0.09090909       0.33333333 </v>
   <v>      -0.09090909       0.36363636       0.33333333 </v>
   <v>       0.36363636       0.09090909       0.33333333 </v>
   <v>      -0.09090909       0.45454545       0.33333333 </v>
   <v>       0.45454545       0.09090909       0.33333333 </v>
   <v>       0.18181818       0.18181818       0.33333333 </v>
   <v>       0.27272727       0.18181818       0.33333333 </v>
   <v>      -0.18181818       0.45454545       0.33333333 </v>
   <v>       0.36363636       0.18181818       0.33333333 </v>
   <v>      -0.18181818      -0.45454545       0.33333333 </v>
   <v>       0.27272727       0.27272727       0.33333333 </v>
   <v>       0.36363636       0.27272727       0.33333333 </v>
  </varray>
  <varray name="weights" >
   <v>       0.00275482 </v>
   <v>       0.01652893 </v>
   <v>       0.01652893 </v>
   <v>       0.01652893 </v>
   <v>       0.01652893 </v>
   <v>       0.01652893 </v>
   <v>       0.01652893 </v>
   <v>       0.03305785 </v>
   <v>       0.03305785 </v>
   <v>       0.03305785 </v>
   <v>       0.01652893 </v>
   <v>       0.01652893 </v>
   <v>       0.03305785 </v>
   <v>       0.03305785 </v>
   <v>       0.01652893 </v>
   <v>       0.01652893 </v>
   <v>       0.00550964 </v>
   <v>       0.01652893 </v>
   <v>       0.01652893 </v>
   <v>       0.01652893 </v>
   <v>       0.01652893 </v>
   <v>       0.01652893 </v>
   <v>       0.01652893 </v>
   <v>       0.01652893 </v>
   <v>       0.01652893 </v>
   <v>       0.01652893 </v>
   <v>       0.01652893 </v>
   <v>       0.03305785 </v>
   <v>       0.03305785 </v>
   <v>       0.03305785 </v>
   <v>       0.03305785 </v>
   <v>       0.03305785 </v>
   <v>       0.03305785 </v>
   <v>       0.03305785 </v>
   <v>       0.03305785 </v>
   <v>       0.03305785 </v>
   <v>       0.03305785 </v>
   <v>       0.03305785 </v>
   <v>       0.03305785 </v>
   <v>       0.03305785 </v>
   <v>       0.03305785 </v>
   <v>       0.03305785 </v>
  </varray>
 </kpoints>
 <parameters>
  <separator name="general" >
   <i type="string" name="SYSTEM">unknown system</i>
   <i type="logical" name="LCOMPAT"> F  </i>
  </separator>
  <separator name="electronic" >
   <i type="string" name="PREC">accura</i>
   <i name="ENMAX">    293.06000000</i>
   <i name="ENAUG">    444.45500000</i>
   <i name="EDIFF">      0.00000100</i>
   <i type="int" name="IALGO">    38</i>
   <i type="int" name="IWAVPR">    11</i>
   <i type="int" name="NBANDS">    12</i>
   <i type="int" name="NBANDSLOW">    -1</i>
   <i type="int" name="NBANDSHIGH">    -1</i>
   <i name="NELECT">     10.00000000</i>
   <i type="int" name="TURBO">     0</i>
   <i type="int" name="IRESTART">     0</i>
   <i type="int" name="NREBOOT">     0</i>
   <i type="int" name="NMIN">     0</i>
   <i name="EREF">      0.00000000</i>
   <separator name="electronic smearing" >
    <i type="int" name="ISMEAR">     0</i>
    <i name="SIGMA">      0.01000000</i>
    <i name="KSPACING">      0.50000000</i>
    <i type="logical" name="KGAMMA"> T  </i>
    <i type="logical" name="KBLOWUP"> T  </i>
   </separator>
   <separator name="electronic projectors" >
    <i type="logical" name="LREAL"> F  </i>
    <v name="ROPT">      0.00000000</v>
    <i type="int" name="LMAXPAW">  -100</i>
    <i type="int" name="LMAXMIX">     2</i>
    <i type="logical" name="NLSPLINE"> F  </i>
   </separator>
   <separator name="electronic startup" >
    <i type="int" name="ISTART">     0</i>
    <i type="int" name="ICHARG">     2</i>
    <i type="int" name="INIWAV">     1</i>
   </separator>
   <separator name="electronic spin" >
    <i type="int" name="ISPIN">     1</i>
    <i type="logical" name="LNONCOLLINEAR"> F  </i>
    <v name="MAGMOM">      1.00000000      1.00000000</v>
    <i name="NUPDOWN">     -1.00000000</i>
    <i type="logical" name="LSORBIT"> F  </i>
    <v name="SAXIS">      0.00000000      0.00000000      1.00000000</v>
    <i type="logical" name="LSPIRAL"> F  </i>
    <v name="QSPIRAL">      0.00000000      0.00000000      0.00000000</v>
    <i type="logical" name="LZEROZ"> F  </i>
   </separator>
   <separator name="electronic exchange-correlation" >
    <i type="logical" name="LASPH"> T  </i>
    <i type="logical" name="LMETAGGA"> F  </i>
   </separator>
   <separator name="electronic convergence" >
    <i type="int" name="NELM">   200</i>
    <i type="int" name="NELMDL">   -12</i>
    <i type="int" name="NELMIN">     6</i>
    <i name="ENINI">    293.06000000</i>
    <separator name="electronic convergence detail" >
     <i type="logical" name="LDIAG"> T  </i>
     <i type="logical" name="LSUBROT"> F  </i>
     <i name="WEIMIN">      0.00100000</i>
     <i name="EBREAK">      0.00000002</i>
     <i name="DEPER">      0.30000000</i>
     <i type="int" name="NRMM">     4</i>
     <i name="TIME">      0.40000000</i>
    </separator>
   </separator>
   <separator name="electronic mixer" >
    <i name="AMIX">      0.10000000</i>
    <i name="BMIX">      0.00010000</i>
    <i name="AMIN">      0.10000000</i>
    <i name="AMIX_MAG">      0.40000000</i>
    <i name="BMIX_MAG">      0.00010000</i>
    <separator name="electronic mixer details" >
     <i type="int" name="IMIX">     4</i>
     <i type="logical" name="MIXFIRST"> F  </i>
     <i type="int" name="MAXMIX">   -45</i>
     <i name="WC">    100.00000000</i>
     <i type="int" name="INIMIX">     1</i>
     <i type="int" name="MIXPRE">     1</i>
     <i type="int" name="MREMOVE">     5</i>
    </separator>
   </separator>
   <separator name="electronic dipolcorrection" >
    <i type="logical" name="LDIPOL"> F  </i>
    <i type="logical" name="LMONO"> F  </i>
    <i type="int" name="IDIPOL">     0</i>
    <i name="EPSILON">      1.00000000</i>
    <v name="DIPOL">   -100.00000000   -100.00000000   -100.00000000</v>
    <i name="EFIELD">      0.00000000</i>
   </separator>
  </separator>
  <separator name="grids" >
   <i type="int" name="NGX">    24</i>
   <i type="int" name="NGY">    24</i>
   <i type="int" name="NGZ">    90</i>
   <i type="int" name="NGXF">    48</i>
   <i type="int" name="NGYF">    48</i>
   <i type="int" name="NGZF">   180</i>
   <i type="logical" name="ADDGRID"> T  </i>
  </separator>
  <separator name="ionic" >
   <i type="int" name="NSW">    30</i>
   <i type="int" name="IBRION">     2</i>
   <i type="int" name="MDALGO">     0</i>
   <i type="int" name="ISIF">     3</i>
   <i name="PSTRESS">      0.00000000</i>
   <i name="EDIFFG">     -0.01000000</i>
   <i type="int" name="NFREE">     1</i>
   <i name="POTIM">      0.50000000</i>
   <i name="SMASS">     -3.00000000</i>
   <i name="SCALEE">      1.00000000</i>
  </separator>
  <separator name="ionic md" >
   <i name="TEBEG">      0.00010000</i>
   <i name="TEEND">      0.00010000</i>
   <i type="int" name="NBLOCK">     1</i>
   <i type="int" name="KBLOCK">    30</i>
   <i type="int" name="NPACO">   256</i>
   <i name="APACO">     10.00000000</i>
  </separator>
  <separator name="symmetry" >
   <i type="int" name="ISYM">     2</i>
   <i name="SYMPREC">      0.00001000</i>
  </separator>
  <separator name="dos" >
   <i type="int" name="LORBIT">    10</i>
   <v name="RWIGS">     -1.00000000</v>
   <i type="int" name="NEDOS">  6001</i>
   <i name="EMIN">     10.00000000</i>
   <i name="EMAX">    -10.00000000</i>
   <i name="EFERMI">      0.00000000</i>
  </separator>
  <separator name="writing" >
   <i type="int" name="NWRITE">     1</i>
   <i type="logical" name="LWAVE"> F  </i>
   <i type="logical" name="LDOWNSAMPLE"> F  </i>
   <i type="logical" name="LCHARG"> F  </i>
   <i type="logical" name="LPARD"> F  </i>
   <i type="logical" name="LVTOT"> F  </i>
   <i type="logical" name="LVHAR"> F  </i>
   <i type="logical" name="LELF"> F  </i>
   <i type="logical" name="LOPTICS"> F  </i>
   <v name="STM">      0.00000000      0.00000000      0.00000000      0.00000000      0.00000000      0.00000000      0.00000000</v>
  </separator>
  <separator name="performance" >
   <i type="int" name="NPAR">     4</i>
   <i type="int" name="NSIM">     4</i>
   <i type="int" name="NBLK">    -1</i>
   <i type="logical" name="LPLANE"> T  </i>
   <i type="logical" name="LSCALAPACK"> T  </i>
   <i type="logical" name="LSCAAWARE"> F  </i>
   <i type="logical" name="LSCALU"> F  </i>
   <i type="logical" name="LASYNC"> F  </i>
   <i type="logical" name="LORBITALREAL"> F  </i>
  </separator>
  <separator name="miscellaneous" >
   <i type="int" name="IDIOT">     3</i>
   <i type="int" name="PHON_NSTRUCT">    -1</i>
   <i type="logical" name="LMUSIC"> F  </i>
   <v name="POMASS">    208.98000000</v>
   <v name="DARWINR">      0.00000000</v>
   <v name="DARWINV">      1.00000000</v>
   <i type="logical" name="LCORR"> T  </i>
  </separator>
  <i type="logical" name="GGA_COMPAT"> T  </i>
  <i type="logical" name="LBERRY"> F  </i>
  <i type="int" name="ICORELEVEL">     0</i>
  <i type="logical" name="LDAU"> F  </i>
  <i type="int" name="I_CONSTRAINED_M">     0</i>
  <separator name="electronic exchange-correlation" >
   <i type="string" name="GGA">--</i>
   <i type="int" name="VOSKOWN">     0</i>
   <i type="logical" name="LHFCALC"> F  </i>
   <i type="string" name="PRECFOCK"></i>
   <i type="logical" name="LSYMGRAD"> F  </i>
   <i type="logical" name="LHFONE"> F  </i>
   <i type="logical" name="LRHFCALC"> F  </i>
   <i type="logical" name="LTHOMAS"> F  </i>
   <i type="logical" name="LMODELHF"> F  </i>
   <i type="logical" name="LFOCKACE"> F  </i>
   <i name="ENCUT4O">     -1.00000000</i>
   <i type="int" name="EXXOEP">     0</i>
   <i type="int" name="FOURORBIT">     0</i>
   <i name="AEXX">      0.00000000</i>
   <i name="HFALPHA">      0.00000000</i>
   <i name="MCALPHA">      0.00000000</i>
   <i name="ALDAX">      1.00000000</i>
   <i name="AGGAX">      1.00000000</i>
   <i name="ALDAC">      1.00000000</i>
   <i name="AGGAC">      1.00000000</i>
   <i type="int" name="NKREDX">     1</i>
   <i type="int" name="NKREDY">     1</i>
   <i type="int" name="NKREDZ">     1</i>
   <i type="logical" name="SHIFTRED"> F  </i>
   <i type="logical" name="ODDONLY"> F  </i>
   <i type="logical" name="EVENONLY"> F  </i>
   <i type="int" name="LMAXFOCK">     0</i>
   <i type="int" name="NMAXFOCKAE">     0</i>
   <i type="logical" name="LFOCKAEDFT"> F  </i>
   <i name="HFSCREEN">      0.00000000</i>
   <i name="HFSCREENC">      0.00000000</i>
   <i type="int" name="NBANDSGWLOW">     0</i>
  </separator>
  <separator name="vdW DFT" >
   <i type="logical" name="LUSE_VDW"> F  </i>
   <i type="int" name="IVDW_NL">     1</i>
   <i type="logical" name="LSPIN_VDW"> F  </i>
   <i name="Zab_VDW">     -0.84910000</i>
   <i name="PARAM1">      0.12340000</i>
   <i name="PARAM2">      1.00000000</i>
   <i name="PARAM3">      0.00000000</i>
  </separator>
  <separator name="model GW" >
   <i type="int" name="MODEL_GW">     0</i>
   <i name="MODEL_EPS0">     78.02519353</i>
   <i name="MODEL_ALPHA">      1.00000000</i>
  </separator>
  <separator name="linear response parameters" >
   <i type="logical" name="LEPSILON"> F  </i>
   <i type="logical" name="LRPA"> F  </i>
   <i type="logical" name="LNABLA"> F  </i>
   <i type="logical" name="LVEL"> F  </i>
   <i name="CSHIFT">      0.10000000</i>
   <i name="OMEGAMAX">     -1.00000000</i>
   <i name="DEG_THRESHOLD">      0.00200000</i>
   <i name="RTIME">     -0.10000000</i>
   <i name="WPLASMAI">      0.00000000</i>
   <v name="DFIELD">      0.00000000      0.00000000      0.00000000</v>
   <v name="WPLASMA">      0.00000000      0.00000000      0.00000000      0.00000000      0.00000000      0.00000000      0.00000000      0.00000000      0.00000000</v>
  </separator>
  <separator name="orbital magnetization" >
   <i type="logical" name="NUCIND"> F  </i>
   <v name="MAGPOS">      0.00000000      0.00000000      0.00000000</v>
   <i type="logical" name="LNICSALL"> T  </i>
   <i type="logical" name="ORBITALMAG"> F  </i>
   <i type="logical" name="LMAGBLOCH"> F  </i>
   <i type="logical" name="LCHIMAG"> F  </i>
   <i type="logical" name="LGAUGE"> T  </i>
   <i type="int" name="MAGATOM">     0</i>
   <v name="MAGDIPOL">      0.00000000      0.00000000      0.00000000</v>
   <v name="AVECCONST">      0.00000000      0.00000000      0.00000000</v>
  </separator>
  <separator name="response functions" >
   <i type="logical" name="LALL_IN_ONE"> F  </i>
   <i type="int" name="IALL_IN_ONE">    -1</i>
   <i type="int" name="NBANDS_WAVE">    -1</i>
   <i type="logical" name="LFINITE_TEMPERATURE"> F  </i>
   <i type="logical" name="LADDER"> F  </i>
   <i type="logical" name="LRPAFORCE"> F  </i>
   <i type="logical" name="LFXC"> F  </i>
   <i type="logical" name="LHARTREE"> T  </i>
   <i type="int" name="IBSE">     0</i>
   <v type="int" name="KPOINT">    -1     0     0     0</v>
   <i type="logical" name="LTCTC"> F  </i>
   <i type="logical" name="LTCTE"> F  </i>
   <i type="logical" name="LTETE"> F  </i>
   <i type="logical" name="LTRIPLET"> F  </i>
   <i type="logical" name="LFXCEPS"> F  </i>
   <i type="logical" name="LFXHEG"> F  </i>
   <i type="int" name="NATURALO">     2</i>
   <i type="logical" name="LHOLEGF"> F  </i>
   <i type="logical" name="L2ORDER"> F  </i>
   <i type="logical" name="LDMP1"> F  </i>
   <i type="logical" name="LMP2LT"> F  </i>
   <i type="logical" name="LSMP2LT"> F  </i>
   <i type="logical" name="LGWLF"> F  </i>
   <i name="ENCUTGW">     -1.60000002</i>
   <i name="ENCUTGWSOFT">     -1.60000002</i>
   <i name="ENCUTLF">     -1.00000000</i>
   <i type="logical" name="LESF_SPLINES"> F  </i>
   <i type="int" name="LMAXMP2">    -1</i>
   <i name="SCISSOR">      0.00000000</i>
   <i type="int" name="NOMEGA">     0</i>
   <i type="int" name="NOMEGAR">     0</i>
   <i type="int" name="NBANDSGW">    -1</i>
   <i type="int" name="NBANDSO">    -1</i>
   <i type="int" name="NBANDSV">    -1</i>
   <i type="int" name="NELMGW">     1</i>
   <i type="int" name="NELMHF">     1</i>
   <i type="int" name="DIM">     3</i>
   <i type="int" name="IESPILON">     4</i>
   <i type="int" name="ANTIRES">     0</i>
   <i name="OMEGAMAX">    -30.00000000</i>
   <i name="OMEGAMIN">    -30.00000000</i>
   <i name="OMEGATL">   -200.00000000</i>
   <i type="int" name="OMEGAGRID">     0</i>
   <i name="CSHIFT">     -0.10000000</i>
   <i type="logical" name="LSELFENERGY"> F  </i>
   <i type="logical" name="LSPECTRAL"> F  </i>
   <i type="logical" name="LSPECTRALGW"> F  </i>
   <i type="logical" name="LSINGLES"> F  </i>
   <i type="logical" name="LFERMIGW"> F  </i>
   <i type="logical" name="ODDONLYGW"> F  </i>
   <i type="logical" name="EVENONLYGW"> F  </i>
   <i type="int" name="NKREDLFX">     1</i>
   <i type="int" name="NKREDLFY">     1</i>
   <i type="int" name="NKREDLFZ">     1</i>
   <i type="int" name="MAXMEM">  2800</i>
   <i type="int" name="TELESCOPE">     0</i>
   <i type="int" name="NTAUPAR">    -1</i>
   <i type="int" name="NOMEGAPAR">    -1</i>
   <i name="DAMP_NEWTON">      0.80000001</i>
   <i name="LAMBDA">      1.00000000</i>
  </separator>
  <separator name="External order field" >
   <i name="OFIELD_KAPPA">      0.00000000</i>
   <v name="OFIELD_K">      0.00000000      0.00000000      0.00000000</v>
   <i name="OFIELD_Q6_NEAR">      0.00000000</i>
   <i name="OFIELD_Q6_FAR">      0.00000000</i>
   <i name="OFIELD_A">      0.00000000</i>
  </separator>
  <separator name="optional k-points parameters" >
   <i type="int" name="KPOINTS_OPT_MODE">     1</i>
   <i type="logical" name="LKPOINTS_OPT"> F  </i>
  </separator>
 </parameters>
 <atominfo>
  <atoms>       2 </atoms>
  <types>       1 </types>
  <array name="atoms" >
   <dimension dim="1">ion</dimension>
   <field type="string">element</field>
   <field type="int">atomtype</field>
   <set>
    <rc><c>Bi</c><c>   1</c></rc>
    <rc><c>Bi</c><c>   1</c></rc>
   </set>
  </array>
  <array name="atomtypes" >
   <dimension dim="1">type</dimension>
   <field type="int">atomspertype</field>
   <field type="string">element</field>
   <field>mass</field>
   <field>valence</field>
   <field type="string">pseudopotential</field>
   <set>
    <rc><c>   2</c><c>Bi</c><c>    208.98000000</c><c>      5.00000000</c><c>  PAW_PBE Bi_GW 07Mar2011               </c></rc>
   </set>
  </array>
 </atominfo>
 <structure name="initialpos" >
  <crystal>
   <varray name="basis" >
    <v>       4.33242938       0.00000000       0.00000000 </v>
    <v>      -2.16621469       3.75199391       0.00000000 </v>
    <v>       0.00000000       0.00000000      16.00000000 </v>
   </varray>
   <i name="volume">    260.08397844 </i>
   <varray name="rec_basis" >
    <v>       0.23081738       0.13326248       0.00000000 </v>
    <v>       0.00000000       0.26652495       0.00000000 </v>
    <v>       0.00000000       0.00000000       0.06250000 </v>
   </varray>
  </crystal>
  <varray name="positions" >
   <v>       0.66666667       0.33333333       0.44570588 </v>
   <v>       0.33333333       0.66666667       0.55429412 </v>
  </varray>
 </structure>
 <calculation>
  <scstep>
   <time name="dav">    0.55    0.55</time>
   <time name="total">    0.90    0.99</time>
   <energy>
    <i name="alphaZ">     11.30404040 </i>
    <i name="ewald">    164.36876020 </i>
    <i name="hartreedc">   -413.41641804 </i>
    <i name="XCdc">   -220.85502346 </i>
    <i name="pawpsdc">    450.63347180 </i>
    <i name="pawaedc">   -216.32616136 </i>
    <i name="eentropy">     -0.00000000 </i>
    <i name="bandstr">    -27.86289816 </i>
    <i name="atom">    301.62406648 </i>
    <i name="e_fr_energy">     49.46983786 </i>
    <i name="e_wo_entrp">     49.46983786 </i>
    <i name="e_0_energy">     49.46983786 </i>
   </energy>
  </scstep>
  <scstep>
   <time name="dav">    0.65    0.65</time>
   <time name="total">    0.65    0.66</time>
   <energy>
    <i name="e_fr_energy">     -2.92555147 </i>
    <i name="e_wo_entrp">     -2.92555147 </i>
    <i name="e_0_energy">     -2.92555147 </i>
   </energy>
  </scstep>
  <scstep>
   <time name="dav">    0.58    0.58</time>
   <time name="total">    0.58    0.59</time>
   <energy>
    <i name="e_fr_energy">     -7.50370450 </i>
    <i name="e_wo_entrp">     -7.50370450 </i>
    <i name="e_0_energy">     -7.50370450 </i>
   </energy>
  </scstep>
  <scstep>
   <time name="dav">    0.61    0.61</time>
   <time name="total">    0.61    0.61</time>
   <energy>
    <i name="e_fr_energy">     -7.60435143 </i>
    <i name="e_wo_entrp">     -7.60435143 </i>
    <i name="e_0_energy">     -7.60435143 </i>
   </energy>
  </scstep>
  <scstep>
   <time name="dav">    0.62    0.62</time>
   <time name="total">    0.62    0.62</time>
   <energy>
    <i name="e_fr_energy">     -7.60570333 </i>
    <i name="e_wo_entrp">     -7.60570333 </i>
    <i name="e_0_energy">     -7.60570333 </i>
   </energy>
  </scstep>
  <scstep>
   <time name="dav">    0.69    0.69</time>
   <time name="total">    0.69    0.70</time>
   <energy>
    <i name="e_fr_energy">     -7.60572558 </i>
    <i name="e_wo_entrp">     -7.60572558 </i>
    <i name="e_0_energy">     -7.60572558 </i>
   </energy>
  </scstep>
  <scstep>
   <time name="dav">    0.61    0.62</time>
   <time name="total">    0.62    0.62</time>
   <energy>
    <i name="e_fr_energy">     -7.60572566 </i>
    <i name="e_wo_entrp">     -7.60572566 </i>
    <i name="e_0_energy">     -7.60572566 </i>
   </energy>
  </scstep>
  <scstep>
   <time name="dav">    0.52    0.53</time>
   <time name="total">    0.53    0.53</time>
   <energy>
    <i name="e_fr_energy">     -7.60572566 </i>
    <i name="e_wo_entrp">     -7.60572566 </i>
    <i name="e_0_energy">     -7.60572566 </i>
   </energy>
  </scstep>
  <scstep>
   <time name="dav">    0.44    0.44</time>
   <time name="total">    0.44    0.44</time>
   <energy>
    <i name="e_fr_energy">     -7.60572566 </i>
    <i name="e_wo_entrp">     -7.60572566 </i>
    <i name="e_0_energy">     -7.60572566 </i>
   </energy>
  </scstep>
  <scstep>
   <time name="dav">    0.46    0.46</time>
   <time name="total">    0.46    0.46</time>
   <energy>
    <i name="e_fr_energy">     -7.60572566 </i>
    <i name="e_wo_entrp">     -7.60572566 </i>
    <i name="e_0_energy">     -7.60572566 </i>
   </energy>
  </scstep>
  <scstep>
   <time name="dav">    0.42    0.42</time>
   <time name="total">    0.42    0.42</time>
   <energy>
    <i name="e_fr_energy">     -7.60572566 </i>
    <i name="e_wo_entrp">     -7.60572566 </i>
    <i name="e_0_energy">     -7.60572566 </i>
   </energy>
  </scstep>
  <scstep>
   <time name="dav">    0.41    0.41</time>
   <time name="total">    0.49    0.49</time>
   <energy>
    <i name="e_fr_energy">     -7.60572566 </i>
    <i name="e_wo_entrp">     -7.60572566 </i>
    <i name="e_0_energy">     -7.60572566 </i>
   </energy>
  </scstep>
  <scstep>
   <time name="dav">    0.55    0.56</time>
   <time name="total">    0.96    0.97</time>
   <energy>
    <i name="e_fr_energy">     -7.58526227 </i>
    <i name="e_wo_entrp">     -7.58526227 </i>
    <i name="e_0_energy">     -7.58526227 </i>
   </energy>
  </scstep>
  <scstep>
   <time name="dav">    0.57    0.57</time>
   <time name="total">    0.97    0.97</time>
   <energy>
    <i name="e_fr_energy">     -7.54710702 </i>
    <i name="e_wo_entrp">     -7.54710702 </i>
    <i name="e_0_energy">     -7.54710702 </i>
   </energy>
  </scstep>
  <scstep>
   <time name="dav">    0.53    0.53</time>
   <time name="total">    0.93    0.93</time>
   <energy>
    <i name="e_fr_energy">     -7.54119235 </i>
    <i name="e_wo_entrp">     -7.54119235 </i>
    <i name="e_0_energy">     -7.54119235 </i>
   </energy>
  </scstep>
  <scstep>
   <time name="dav">    0.60    0.60</time>
   <time name="total">    1.04    1.04</time>
   <energy>
    <i name="e_fr_energy">     -7.54065353 </i>
    <i name="e_wo_entrp">     -7.54065353 </i>
    <i name="e_0_energy">     -7.54065353 </i>
   </energy>
  </scstep>
  <scstep>
   <time name="dav">    0.57    0.58</time>
   <time name="total">    0.97    0.98</time>
   <energy>
    <i name="e_fr_energy">     -7.54057729 </i>
    <i name="e_wo_entrp">     -7.54057729 </i>
    <i name="e_0_energy">     -7.54057729 </i>
   </energy>
  </scstep>
  <scstep>
   <time name="dav">    0.56    0.56</time>
   <time name="total">    0.98    0.99</time>
   <energy>
    <i name="e_fr_energy">     -7.54055667 </i>
    <i name="e_wo_entrp">     -7.54055667 </i>
    <i name="e_0_energy">     -7.54055667 </i>
   </energy>
  </scstep>
  <scstep>
   <time name="dav">    0.55    0.56</time>
   <time name="total">    0.96    0.96</time>
   <energy>
    <i name="e_fr_energy">     -7.54054680 </i>
    <i name="e_wo_entrp">     -7.54054680 </i>
    <i name="e_0_energy">     -7.54054680 </i>
   </energy>
  </scstep>
  <scstep>
   <time name="dav">    0.51    0.51</time>
   <time name="total">    0.94    0.94</time>
   <energy>
    <i name="e_fr_energy">     -7.54054496 </i>
    <i name="e_wo_entrp">     -7.54054496 </i>
    <i name="e_0_energy">     -7.54054496 </i>
   </energy>
  </scstep>
  <scstep>
   <time name="dav">    0.58    0.58</time>
   <time name="total">    0.94    0.94</time>
   <energy>
    <i name="alphaZ">     11.30404040 </i>
    <i name="ewald">    164.36876020 </i>
    <i name="hartreedc">   -420.00488452 </i>
    <i name="XCdc">   -220.47296815 </i>
    <i name="pawpsdc">    496.35607043 </i>
    <i name="pawaedc">   -262.24197529 </i>
    <i name="eentropy">     -0.00000000 </i>
    <i name="bandstr">    -78.47365423 </i>
    <i name="atom">    301.62406648 </i>
    <i name="e_fr_energy">     -7.54054466 </i>
    <i name="e_wo_entrp">     -7.54054466 </i>
    <i name="e_0_energy">     -7.54054466 </i>
   </energy>
  </scstep>
  <structure>
   <crystal>
    <varray name="basis" >
     <v>       4.33242938       0.00000000       0.00000000 </v>
     <v>      -2.16621469       3.75199391       0.00000000 </v>
     <v>       0.00000000       0.00000000      16.00000000 </v>
    </varray>
    <i name="volume">    260.08397844 </i>
    <varray name="rec_basis" >
     <v>       0.23081738       0.13326248       0.00000000 </v>
     <v>       0.00000000       0.26652495       0.00000000 </v>
     <v>       0.00000000       0.00000000       0.06250000 </v>
    </varray>
   </crystal>
   <varray name="positions" >
    <v>       0.66666667       0.33333333       0.44570588 </v>
    <v>       0.33333333       0.66666667       0.55429412 </v>
   </varray>
  </structure>
  <varray name="forces" >
   <v>       0.00000000      -0.00000000       0.00765033 </v>
   <v>       0.00000000       0.00000000      -0.00765033 </v>
  </varray>
  <varray name="stress" >
   <v>      -0.00050758      -0.00000000       0.00000000 </v>
   <v>       0.00000000      -0.00050758       0.00000000 </v>
   <v>       0.00000000      -0.00000000      -0.11751692 </v>
  </varray>
  <energy>
   <i name="e_fr_energy">     -7.54054466 </i>
   <i name="e_wo_entrp">     -7.54054466 </i>
   <i name="e_0_energy">     -7.54054466 </i>
  </energy>
  <time name="totalsc">   17.62   18.31</time>
  <eigenvalues>
   <array>
    <dimension dim="1">band</dimension>
    <dimension dim="2">kpoint</dimension>
    <dimension dim="3">spin</dimension>
    <field>eigene</field>
    <field>occ</field>
    <set>
     <set comment="spin 1">
      <set comment="kpoint 1">
       <r>  -15.0307    1.0000 </r>
       <r>  -11.1231    1.0000 </r>
       <r>   -3.4868    1.0000 </r>
       <r>   -2.6829    1.0000 </r>
       <r>   -2.6829    1.0000 </r>
       <r>   -2.1339    0.0000 </r>
       <r>   -0.1322    0.0000 </r>
       <r>   -0.1322    0.0000 </r>
       <r>    1.0266    0.0000 </r>
       <r>    1.2155    0.0000 </r>
       <r>    2.2699    0.0000 </r>
       <r>    3.3966    0.0000 </r>
      </set>
      <set comment="kpoint 2">
       <r>  -14.9578    1.0000 </r>
       <r>  -11.1514    1.0000 </r>
       <r>   -3.5666    1.0000 </r>
       <r>   -3.4625    1.0000 </r>
       <r>   -2.8609    1.0000 </r>
       <r>   -1.4017    0.0000 </r>
       <r>   -0.4469    0.0000 </r>
       <r>    0.0193    0.0000 </r>
       <r>    1.1722    0.0000 </r>
       <r>    1.3249    0.0000 </r>
       <r>    2.5370    0.0000 </r>
       <r>    3.6889    0.0000 </r>
      </set>
      <set comment="kpoint 3">
       <r>  -14.7440    1.0000 </r>
       <r>  -11.2558    1.0000 </r>
       <r>   -4.5413    1.0000 </r>
       <r>   -3.4529    1.0000 </r>
       <r>   -3.2460    1.0000 </r>
       <r>   -1.5091    0.0000 </r>
       <r>   -0.1597    0.0000 </r>
       <r>    0.2936    0.0000 </r>
       <r>    1.4443    0.0000 </r>
       <r>    1.5989    0.0000 </r>
       <r>    2.8131    0.0000 </r>
       <r>    3.5986    0.0000 </r>
      </set>
      <set comment="kpoint 4">
       <r>  -14.4058    1.0000 </r>
       <r>  -11.4791    1.0000 </r>
       <r>   -5.2565    1.0000 </r>
       <r>   -3.6384    1.0000 </r>
       <r>   -3.6317    1.0000 </r>
       <r>   -1.7808    0.0000 </r>
       <r>    0.0945    0.0000 </r>
       <r>    0.4657    0.0000 </r>
       <r>    1.7935    0.0000 </r>
       <r>    1.8922    0.0000 </r>
       <r>    2.9632    0.0000 </r>
       <r>    3.7697    0.0000 </r>
      </set>
      <set comment="kpoint 5">
       <r>  -13.9857    1.0000 </r>
       <r>  -11.8300    1.0000 </r>
       <r>   -5.6434    1.0000 </r>
       <r>   -4.0162    1.0000 </r>
       <r>   -3.9359    1.0000 </r>
       <r>   -1.6565    0.0000 </r>
       <r>   -0.1382    0.0000 </r>
       <r>    0.5103    0.0000 </r>
       <r>    2.1708    0.0000 </r>
       <r>    2.3057    0.0000 </r>
       <r>    2.9845    0.0000 </r>
       <r>    3.9242    0.0000 </r>
      </set>
      <set comment="kpoint 6">
       <r>  -13.6110    1.0000 </r>
       <r>  -12.1827    1.0000 </r>
       <r>   -5.7658    1.0000 </r>
       <r>   -4.3264    1.0000 </r>
       <r>   -4.0933    1.0000 </r>
       <r>   -1.3841    0.0000 </r>
       <r>   -0.4660    0.0000 </r>
       <r>    0.5044    0.0000 </r>
       <r>    2.1465    0.0000 </r>
       <r>    2.9668    0.0000 </r>
       <r>    3.3505    0.0000 </r>
       <r>    3.8023    0.0000 </r>
      </set>
      <set comment="kpoint 7">
       <r>  -14.8144    1.0000 </r>
       <r>  -11.2178    1.0000 </r>
       <r>   -4.2522    1.0000 </r>
       <r>   -3.4762    1.0000 </r>
       <r>   -3.2445    1.0000 </r>
       <r>   -0.8747    0.0000 </r>
       <r>   -0.8215    0.0000 </r>
       <r>    0.2968    0.0000 </r>
       <r>    1.3704    0.0000 </r>
       <r>    1.5188    0.0000 </r>
       <r>    2.7477    0.0000 </r>
       <r>    3.7604    0.0000 </r>
      </set>
      <set comment="kpoint 8">
       <r>  -14.5372    1.0000 </r>
       <r>  -11.3828    1.0000 </r>
       <r>   -4.9443    1.0000 </r>
       <r>   -3.9106    1.0000 </r>
       <r>   -3.4130    1.0000 </r>
       <r>   -1.2782    0.0000 </r>
       <r>   -0.2526    0.0000 </r>
       <r>    0.4246    0.0000 </r>
       <r>    1.6947    0.0000 </r>
       <r>    1.7967    0.0000 </r>
       <r>    2.8873    0.0000 </r>
       <r>    3.7148    0.0000 </r>
      </set>
      <set comment="kpoint 9">
       <r>  -14.1521    1.0000 </r>
       <r>  -11.6774    1.0000 </r>
       <r>   -5.4374    1.0000 </r>
       <r>   -4.3179    1.0000 </r>
       <r>   -3.6565    1.0000 </r>
       <r>   -1.4006    0.0000 </r>
       <r>    0.0859    0.0000 </r>
       <r>    0.1862    0.0000 </r>
       <r>    2.1056    0.0000 </r>
       <r>    2.1771    0.0000 </r>
       <r>    3.0185    0.0000 </r>
       <r>    4.0494    0.0000 </r>
      </set>
      <set comment="kpoint 10">
       <r>  -13.7273    1.0000 </r>
       <r>  -12.0598    1.0000 </r>
       <r>   -5.6880    1.0000 </r>
       <r>   -4.4837    1.0000 </r>
       <r>   -4.0485    1.0000 </r>
       <r>   -1.1846    0.0000 </r>
       <r>   -0.2609    0.0000 </r>
       <r>    0.2299    0.0000 </r>
       <r>    2.3349    0.0000 </r>
       <r>    2.7238    0.0000 </r>
       <r>    3.2024    0.0000 </r>
       <r>    4.1287    0.0000 </r>
      </set>
      <set comment="kpoint 11">
       <r>  -13.4893    1.0000 </r>
       <r>  -12.2883    1.0000 </r>
       <r>   -5.7565    1.0000 </r>
       <r>   -4.3809    1.0000 </r>
       <r>   -4.3717    1.0000 </r>
       <r>   -0.9086    0.0000 </r>
       <r>   -0.5982    0.0000 </r>
       <r>    0.2695    0.0000 </r>
       <r>    2.2368    0.0000 </r>
       <r>    3.4117    0.0000 </r>
       <r>    3.5691    0.0000 </r>
       <r>    3.7788    0.0000 </r>
      </set>
      <set comment="kpoint 12">
       <r>  -14.2094    1.0000 </r>
       <r>  -11.6236    1.0000 </r>
       <r>   -5.1942    1.0000 </r>
       <r>   -4.6788    1.0000 </r>
       <r>   -3.5540    1.0000 </r>
       <r>   -0.9092    0.0000 </r>
       <r>   -0.4158    0.0000 </r>
       <r>    0.3818    0.0000 </r>
       <r>    2.1193    0.0000 </r>
       <r>    2.1323    0.0000 </r>
       <r>    2.9851    0.0000 </r>
       <r>    3.9897    0.0000 </r>
      </set>
      <set comment="kpoint 13">
       <r>  -13.7965    1.0000 </r>
       <r>  -11.9771    1.0000 </r>
       <r>   -5.4459    1.0000 </r>
       <r>   -5.0108    1.0000 </r>
       <r>   -3.8800    1.0000 </r>
       <r>   -0.8424    0.0000 </r>
       <r>   -0.4242    0.0000 </r>
       <r>    0.3421    0.0000 </r>
       <r>    2.5989    0.0000 </r>
       <r>    2.6312    0.0000 </r>
       <r>    3.2490    0.0000 </r>
       <r>    4.0452    0.0000 </r>
      </set>
      <set comment="kpoint 14">
       <r>  -13.4063    1.0000 </r>
       <r>  -12.3422    1.0000 </r>
       <r>   -5.7139    1.0000 </r>
       <r>   -4.8383    1.0000 </r>
       <r>   -4.2908    1.0000 </r>
       <r>   -0.9041    0.0000 </r>
       <r>   -0.2158    0.0000 </r>
       <r>    0.1703    0.0000 </r>
       <r>    2.6548    0.0000 </r>
       <r>    3.3467    0.0000 </r>
       <r>    3.6493    0.0000 </r>
       <r>    4.0845    0.0000 </r>
      </set>
      <set comment="kpoint 15">
       <r>  -13.3791    1.0000 </r>
       <r>  -12.3544    1.0000 </r>
       <r>   -5.6749    1.0000 </r>
       <r>   -5.0546    1.0000 </r>
       <r>   -4.2236    1.0000 </r>
       <r>   -1.0823    0.0000 </r>
       <r>   -0.1639    0.0000 </r>
       <r>    0.4820    0.0000 </r>
       <r>    3.1664    0.0000 </r>
       <r>    3.2282    0.0000 </r>
       <r>    3.7265    0.0000 </r>
       <r>    3.9038    0.0000 </r>
      </set>
      <set comment="kpoint 16">
       <r>  -13.0728    1.0000 </r>
       <r>  -12.6463    1.0000 </r>
       <r>   -5.8364    1.0000 </r>
       <r>   -4.8111    1.0000 </r>
       <r>   -4.5192    1.0000 </r>
       <r>   -1.2598    0.0000 </r>
       <r>    0.2040    0.0000 </r>
       <r>    0.3250    0.0000 </r>
       <r>    3.3012    0.0000 </r>
       <r>    3.5831    0.0000 </r>
       <r>    4.0013    0.0000 </r>
       <r>    4.1963    0.0000 </r>
      </set>
      <set comment="kpoint 17">
       <r>  -15.0307    1.0000 </r>
       <r>  -11.1231    1.0000 </r>
       <r>   -3.4868    1.0000 </r>
       <r>   -2.6829    1.0000 </r>
       <r>   -2.6829    1.0000 </r>
       <r>   -2.1341    0.0000 </r>
       <r>   -0.1322    0.0000 </r>
       <r>   -0.1322    0.0000 </r>
       <r>    0.9972    0.0000 </r>
       <r>    1.2553    0.0000 </r>
       <r>    2.3544    0.0000 </r>
       <r>    2.9706    0.0000 </r>
      </set>
      <set comment="kpoint 18">
       <r>  -14.9578    1.0000 </r>
       <r>  -11.1514    1.0000 </r>
       <r>   -3.5666    1.0000 </r>
       <r>   -3.4625    1.0000 </r>
       <r>   -2.8609    1.0000 </r>
       <r>   -1.4020    0.0000 </r>
       <r>   -0.4469    0.0000 </r>
       <r>    0.0193    0.0000 </r>
       <r>    1.1156    0.0000 </r>
       <r>    1.4153    0.0000 </r>
       <r>    2.5096    0.0000 </r>
       <r>    3.3986    0.0000 </r>
      </set>
      <set comment="kpoint 19">
       <r>  -14.9578    1.0000 </r>
       <r>  -11.1514    1.0000 </r>
       <r>   -3.5666    1.0000 </r>
       <r>   -3.4625    1.0000 </r>
       <r>   -2.8609    1.0000 </r>
       <r>   -1.4021    0.0000 </r>
       <r>   -0.4463    0.0000 </r>
       <r>    0.0193    0.0000 </r>
       <r>    1.1014    0.0000 </r>
       <r>    1.4360    0.0000 </r>
       <r>    2.4959    0.0000 </r>
       <r>    3.3947    0.0000 </r>
      </set>
      <set comment="kpoint 20">
       <r>  -14.7440    1.0000 </r>
       <r>  -11.2558    1.0000 </r>
       <r>   -4.5413    1.0000 </r>
       <r>   -3.4529    1.0000 </r>
       <r>   -3.2460    1.0000 </r>
       <r>   -1.5090    0.0000 </r>
       <r>   -0.1618    0.0000 </r>
       <r>    0.2936    0.0000 </r>
       <r>    1.4019    0.0000 </r>
       <r>    1.6798    0.0000 </r>
       <r>    2.7854    0.0000 </r>
       <r>    3.4406    0.0000 </r>
      </set>
      <set comment="kpoint 21">
       <r>  -14.7440    1.0000 </r>
       <r>  -11.2558    1.0000 </r>
       <r>   -4.5413    1.0000 </r>
       <r>   -3.4529    1.0000 </r>
       <r>   -3.2460    1.0000 </r>
       <r>   -1.5092    0.0000 </r>
       <r>   -0.1598    0.0000 </r>
       <r>    0.2936    0.0000 </r>
       <r>    1.3468    0.0000 </r>
       <r>    1.7703    0.0000 </r>
       <r>    2.6808    0.0000 </r>
       <r>    3.6288    0.0000 </r>
      </set>
      <set comment="kpoint 22">
       <r>  -14.4058    1.0000 </r>
       <r>  -11.4791    1.0000 </r>
       <r>   -5.2565    1.0000 </r>
       <r>   -3.6384    1.0000 </r>
       <r>   -3.6317    1.0000 </r>
       <r>   -1.7807    0.0000 </r>
       <r>    0.0936    0.0000 </r>
       <r>    0.4657    0.0000 </r>
       <r>    1.6882    0.0000 </r>
       <r>    2.0500    0.0000 </r>
       <r>    3.0240    0.0000 </r>
       <r>    3.4090    0.0000 </r>
      </set>
      <set comment="kpoint 23">
       <r>  -14.4058    1.0000 </r>
       <r>  -11.4791    1.0000 </r>
       <r>   -5.2565    1.0000 </r>
       <r>   -3.6384    1.0000 </r>
       <r>   -3.6317    1.0000 </r>
       <r>   -1.7808    0.0000 </r>
       <r>    0.0950    0.0000 </r>
       <r>    0.4657    0.0000 </r>
       <r>    1.6599    0.0000 </r>
       <r>    2.0996    0.0000 </r>
       <r>    2.9102    0.0000 </r>
       <r>    3.6381    0.0000 </r>
      </set>
      <set comment="kpoint 24">
       <r>  -13.9857    1.0000 </r>
       <r>  -11.8300    1.0000 </r>
       <r>   -5.6434    1.0000 </r>
       <r>   -4.0162    1.0000 </r>
       <r>   -3.9358    1.0000 </r>
       <r>   -1.6564    0.0000 </r>
       <r>   -0.1381    0.0000 </r>
       <r>    0.5103    0.0000 </r>
       <r>    2.1198    0.0000 </r>
       <r>    2.3251    0.0000 </r>
       <r>    3.2444    0.0000 </r>
       <r>    3.5846    0.0000 </r>
      </set>
      <set comment="kpoint 25">
       <r>  -13.9857    1.0000 </r>
       <r>  -11.8300    1.0000 </r>
       <r>   -5.6434    1.0000 </r>
       <r>   -4.0162    1.0000 </r>
       <r>   -3.9359    1.0000 </r>
       <r>   -1.6565    0.0000 </r>
       <r>   -0.1379    0.0000 </r>
       <r>    0.5103    0.0000 </r>
       <r>    2.1745    0.0000 </r>
       <r>    2.2568    0.0000 </r>
       <r>    3.1635    0.0000 </r>
       <r>    3.8589    0.0000 </r>
      </set>
      <set comment="kpoint 26">
       <r>  -13.6110    1.0000 </r>
       <r>  -12.1827    1.0000 </r>
       <r>   -5.7658    1.0000 </r>
       <r>   -4.3264    1.0000 </r>
       <r>   -4.0933    1.0000 </r>
       <r>   -1.3840    0.0000 </r>
       <r>   -0.4659    0.0000 </r>
       <r>    0.5044    0.0000 </r>
       <r>    2.1506    0.0000 </r>
       <r>    2.8869    0.0000 </r>
       <r>    3.4741    0.0000 </r>
       <r>    3.8955    0.0000 </r>
      </set>
      <set comment="kpoint 27">
       <r>  -13.6110    1.0000 </r>
       <r>  -12.1827    1.0000 </r>
       <r>   -5.7658    1.0000 </r>
       <r>   -4.3264    1.0000 </r>
       <r>   -4.0933    1.0000 </r>
       <r>   -1.3841    0.0000 </r>
       <r>   -0.4659    0.0000 </r>
       <r>    0.5044    0.0000 </r>
       <r>    2.1540    0.0000 </r>
       <r>    2.9015    0.0000 </r>
       <r>    3.3659    0.0000 </r>
       <r>    3.9044    0.0000 </r>
      </set>
      <set comment="kpoint 28">
       <r>  -14.8144    1.0000 </r>
       <r>  -11.2178    1.0000 </r>
       <r>   -4.2522    1.0000 </r>
       <r>   -3.4762    1.0000 </r>
       <r>   -3.2445    1.0000 </r>
       <r>   -0.8753    0.0000 </r>
       <r>   -0.8211    0.0000 </r>
       <r>    0.2954    0.0000 </r>
       <r>    1.3058    0.0000 </r>
       <r>    1.6323    0.0000 </r>
       <r>    2.6799    0.0000 </r>
       <r>    3.5638    0.0000 </r>
      </set>
      <set comment="kpoint 29">
       <r>  -14.5372    1.0000 </r>
       <r>  -11.3828    1.0000 </r>
       <r>   -4.9443    1.0000 </r>
       <r>   -3.9106    1.0000 </r>
       <r>   -3.4130    1.0000 </r>
       <r>   -1.2780    0.0000 </r>
       <r>   -0.2534    0.0000 </r>
       <r>    0.4233    0.0000 </r>
       <r>    1.6157    0.0000 </r>
       <r>    1.9177    0.0000 </r>
       <r>    2.9752    0.0000 </r>
       <r>    3.3090    0.0000 </r>
      </set>
      <set comment="kpoint 30">
       <r>  -14.5372    1.0000 </r>
       <r>  -11.3828    1.0000 </r>
       <r>   -4.9443    1.0000 </r>
       <r>   -3.9106    1.0000 </r>
       <r>   -3.4130    1.0000 </r>
       <r>   -1.2782    0.0000 </r>
       <r>   -0.2526    0.0000 </r>
       <r>    0.4238    0.0000 </r>
       <r>    1.5769    0.0000 </r>
       <r>    1.9881    0.0000 </r>
       <r>    2.8340    0.0000 </r>
       <r>    3.4994    0.0000 </r>
      </set>
      <set comment="kpoint 31">
       <r>  -14.1521    1.0000 </r>
       <r>  -11.6774    1.0000 </r>
       <r>   -5.4374    1.0000 </r>
       <r>   -4.3179    1.0000 </r>
       <r>   -3.6565    1.0000 </r>
       <r>   -1.4005    0.0000 </r>
       <r>    0.0856    0.0000 </r>
       <r>    0.1861    0.0000 </r>
       <r>    1.9917    0.0000 </r>
       <r>    2.3125    0.0000 </r>
       <r>    3.2215    0.0000 </r>
       <r>    3.5102    0.0000 </r>
      </set>
      <set comment="kpoint 32">
       <r>  -14.1521    1.0000 </r>
       <r>  -11.6774    1.0000 </r>
       <r>   -5.4374    1.0000 </r>
       <r>   -4.3179    1.0000 </r>
       <r>   -3.6565    1.0000 </r>
       <r>   -1.4006    0.0000 </r>
       <r>    0.0862    0.0000 </r>
       <r>    0.1862    0.0000 </r>
       <r>    1.9775    0.0000 </r>
       <r>    2.3402    0.0000 </r>
       <r>    3.0997    0.0000 </r>
       <r>    3.7154    0.0000 </r>
      </set>
      <set comment="kpoint 33">
       <r>  -13.7273    1.0000 </r>
       <r>  -12.0598    1.0000 </r>
       <r>   -5.6880    1.0000 </r>
       <r>   -4.4837    1.0000 </r>
       <r>   -4.0484    1.0000 </r>
       <r>   -1.1846    0.0000 </r>
       <r>   -0.2609    0.0000 </r>
       <r>    0.2300    0.0000 </r>
       <r>    2.3409    0.0000 </r>
       <r>    2.6390    0.0000 </r>
       <r>    3.4696    0.0000 </r>
       <r>    3.9658    0.0000 </r>
      </set>
      <set comment="kpoint 34">
       <r>  -13.7273    1.0000 </r>
       <r>  -12.0598    1.0000 </r>
       <r>   -5.6880    1.0000 </r>
       <r>   -4.4837    1.0000 </r>
       <r>   -4.0484    1.0000 </r>
       <r>   -1.1846    0.0000 </r>
       <r>   -0.2608    0.0000 </r>
       <r>    0.2301    0.0000 </r>
       <r>    2.3588    0.0000 </r>
       <r>    2.6163    0.0000 </r>
       <r>    3.4013    0.0000 </r>
       <r>    4.1411    0.0000 </r>
      </set>
      <set comment="kpoint 35">
       <r>  -13.4893    1.0000 </r>
       <r>  -12.2883    1.0000 </r>
       <r>   -5.7565    1.0000 </r>
       <r>   -4.3809    1.0000 </r>
       <r>   -4.3717    1.0000 </r>
       <r>   -0.9086    0.0000 </r>
       <r>   -0.5981    0.0000 </r>
       <r>    0.2696    0.0000 </r>
       <r>    2.2406    0.0000 </r>
       <r>    3.3651    0.0000 </r>
       <r>    3.4701    0.0000 </r>
       <r>    3.8560    0.0000 </r>
      </set>
      <set comment="kpoint 36">
       <r>  -14.2094    1.0000 </r>
       <r>  -11.6236    1.0000 </r>
       <r>   -5.1942    1.0000 </r>
       <r>   -4.6788    1.0000 </r>
       <r>   -3.5540    1.0000 </r>
       <r>   -0.9090    0.0000 </r>
       <r>   -0.4159    0.0000 </r>
       <r>    0.3811    0.0000 </r>
       <r>    1.9778    0.0000 </r>
       <r>    2.3058    0.0000 </r>
       <r>    3.1199    0.0000 </r>
       <r>    3.5531    0.0000 </r>
      </set>
      <set comment="kpoint 37">
       <r>  -13.7965    1.0000 </r>
       <r>  -11.9771    1.0000 </r>
       <r>   -5.4459    1.0000 </r>
       <r>   -5.0108    1.0000 </r>
       <r>   -3.8800    1.0000 </r>
       <r>   -0.8423    0.0000 </r>
       <r>   -0.4241    0.0000 </r>
       <r>    0.3418    0.0000 </r>
       <r>    2.4837    0.0000 </r>
       <r>    2.7308    0.0000 </r>
       <r>    3.4261    0.0000 </r>
       <r>    3.9218    0.0000 </r>
      </set>
      <set comment="kpoint 38">
       <r>  -13.7965    1.0000 </r>
       <r>  -11.9771    1.0000 </r>
       <r>   -5.4459    1.0000 </r>
       <r>   -5.0108    1.0000 </r>
       <r>   -3.8800    1.0000 </r>
       <r>   -0.8423    0.0000 </r>
       <r>   -0.4241    0.0000 </r>
       <r>    0.3420    0.0000 </r>
       <r>    2.4944    0.0000 </r>
       <r>    2.7109    0.0000 </r>
       <r>    3.4284    0.0000 </r>
       <r>    3.9210    0.0000 </r>
      </set>
      <set comment="kpoint 39">
       <r>  -13.4063    1.0000 </r>
       <r>  -12.3422    1.0000 </r>
       <r>   -5.7139    1.0000 </r>
       <r>   -4.8383    1.0000 </r>
       <r>   -4.2908    1.0000 </r>
       <r>   -0.9041    0.0000 </r>
       <r>   -0.2157    0.0000 </r>
       <r>    0.1704    0.0000 </r>
       <r>    2.6566    0.0000 </r>
       <r>    3.2577    0.0000 </r>
       <r>    3.8278    0.0000 </r>
       <r>    4.1207    0.0000 </r>
      </set>
      <set comment="kpoint 40">
       <r>  -13.4063    1.0000 </r>
       <r>  -12.3422    1.0000 </r>
       <r>   -5.7139    1.0000 </r>
       <r>   -4.8383    1.0000 </r>
       <r>   -4.2908    1.0000 </r>
       <r>   -0.9041    0.0000 </r>
       <r>   -0.2157    0.0000 </r>
       <r>    0.1704    0.0000 </r>
       <r>    2.6641    0.0000 </r>
       <r>    3.2355    0.0000 </r>
       <r>    3.8115    0.0000 </r>
       <r>    4.0834    0.0000 </r>
      </set>
      <set comment="kpoint 41">
       <r>  -13.3791    1.0000 </r>
       <r>  -12.3544    1.0000 </r>
       <r>   -5.6749    1.0000 </r>
       <r>   -5.0546    1.0000 </r>
       <r>   -4.2236    1.0000 </r>
       <r>   -1.0823    0.0000 </r>
       <r>   -0.1637    0.0000 </r>
       <r>    0.4820    0.0000 </r>
       <r>    3.0810    0.0000 </r>
       <r>    3.3122    0.0000 </r>
       <r>    3.7352    0.0000 </r>
       <r>    3.8463    0.0000 </r>
      </set>
      <set comment="kpoint 42">
       <r>  -13.0728    1.0000 </r>
       <r>  -12.6463    1.0000 </r>
       <r>   -5.8364    1.0000 </r>
       <r>   -4.8111    1.0000 </r>
       <r>   -4.5192    1.0000 </r>
       <r>   -1.2598    0.0000 </r>
       <r>    0.2041    0.0000 </r>
       <r>    0.3250    0.0000 </r>
       <r>    3.3093    0.0000 </r>
       <r>    3.5816    0.0000 </r>
       <r>    3.9450    0.0000 </r>
       <r>    4.1109    0.0000 </r>
      </set>
     </set>
    </set>
   </array>
  </eigenvalues>
  <separator name="orbital magnetization" >
   <v name="MAGDIPOLOUT">      0.00000000      0.00000000      0.00000000</v>
  </separator>
  <dos>
   <i name="efermi">     -2.63955466 </i>
   <total>
    <array>
     <dimension dim="1">gridpoints</dimension>
     <dimension dim="2">spin</dimension>
     <field>energy</field>
     <field>total</field>
     <field>integrated</field>
     <set>
      <set comment="spin 1">
       <r>   -15.9920     0.0000     0.0000 </r>
       <r>   -15.9885     0.0000     0.0000 </r>
       <r>   -15.9850     0.0000     0.0000 </r>
       <r>   -15.9814     0.0000     0.0000 </r>
       <r>   -15.9779     0.0000     0.0000 </r>
       <r>   -15.9744     0.0000     0.0000 </r>
       <r>   -15.9709     0.0000     0.0000 </r>
       <r>   -15.9673     0.0000     0.0000 </r>
       <r>   -15.9638     0.0000     0.0000 </r>
       <r>   -15.9603     0.0000     0.0000 </r>
       <r>   -15.9568     0.0000     0.0000 </r>
       <r>   -15.9532     0.0000     0.0000 </r>
       <r>   -15.9497     0.0000     0.0000 </r>
       <r>   -15.9462     0.0000     0.0000 </r>
       <r>   -15.9427     0.0000     0.0000 </r>
       <r>   -15.9391     0.0000     0.0000 </r>
       <r>   -15.9356     0.0000     0.0000 </r>
       <r>   -15.9321     0.0000     0.0000 </r>
       <r>   -15.9286     0.0000     0.0000 </r>
       <r>   -15.9250     0.0000     0.0000 </r>
       <r>   -15.9215     0.0000     0.0000 </r>
       <r>   -15.9180     0.0000     0.0000 </r>
       <r>   -15.9145     0.0000     0.0000 </r>
       <r>   -15.9109     0.0000     0.0000 </r>
       <r>   -15.9074     0.0000     0.0000 </r>
       <r>   -15.9039     0.0000     0.0000 </r>
       <r>   -15.9004     0.0000     0.0000 </r>
       <r>   -15.8968     0.0000     0.0000 </r>
       <r>   -15.8933     0.0000     0.0000 </r>
       <r>   -15.8898     0.0000     0.0000 </r>
       <r>   -15.8863     0.0000     0.0000 </r>
       <r>   -15.8827     0.0000     0.0000 </r>
       <r>   -15.8792     0.0000     0.0000 </r>
       <r>   -15.8757     0.0000     0.0000 </r>
       <r>   -15.8722     0.0000     0.0000 </r>
       <r>   -15.8686     0.0000     0.0000 </r>
       <r>   -15.8651     0.0000     0.0000 </r>
       <r>   -15.8616     0.0000     0.0000 </r>
       <r>   -15.8581     0.0000     0.0000 </r>
       <r>   -15.8545     0.0000     0.0000 </r>
       <r>   -15.8510     0.0000     0.0000 </r>
       <r>   -15.8475     0.0000     0.0000 </r>
       <r>   -15.8440     0.0000     0.0000 </r>
       <r>   -15.8404     0.0000     0.0000 </r>
       <r>   -15.8369     0.0000     0.0000 </r>
       <r>   -15.8334     0.0000     0.0000 </r>
       <r>   -15.8299     0.0000     0.0000 </r>
       <r>   -15.8263     0.0000     0.0000 </r>
       <r>   -15.8228     0.0000     0.0000 </r>
       <r>   -15.8193     0.0000     0.0000 </r>
       <r>   -15.8158     0.0000     0.0000 </r>
       <r>   -15.8122     0.0000     0.0000 </r>
       <r>   -15.8087     0.0000     0.0000 </r>
       <r>   -15.8052     0.0000     0.0000 </r>
       <r>   -15.8017     0.0000     0.0000 </r>
       <r>   -15.7981     0.0000     0.0000 </r>
       <r>   -15.7946     0.0000     0.0000 </r>
       <r>   -15.7911     0.0000     0.0000 </r>
       <r>   -15.7876     0.0000     0.0000 </r>
       <r>   -15.7840     0.0000     0.0000 </r>
       <r>   -15.7805     0.0000     0.0000 </r>
       <r>   -15.7770     0.0000     0.0000 </r>
       <r>   -15.7735     0.0000     0.0000 </r>
       <r>   -15.7699     0.0000     0.0000 </r>
       <r>   -15.7664     0.0000     0.0000 </r>
       <r>   -15.7629     0.0000     0.0000 </r>
       <r>   -15.7594     0.0000     0.0000 </r>
       <r>   -15.7558     0.0000     0.0000 </r>
       <r>   -15.7523     0.0000     0.0000 </r>
       <r>   -15.7488     0.0000     0.0000 </r>
       <r>   -15.7453     0.0000     0.0000 </r>
       <r>   -15.7417     0.0000     0.0000 </r>
       <r>   -15.7382     0.0000     0.0000 </r>
       <r>   -15.7347     0.0000     0.0000 </r>
       <r>   -15.7312     0.0000     0.0000 </r>
       <r>   -15.7276     0.0000     0.0000 </r>
       <r>   -15.7241     0.0000     0.0000 </r>
       <r>   -15.7206     0.0000     0.0000 </r>
       <r>   -15.7171     0.0000     0.0000 </r>
       <r>   -15.7135     0.0000     0.0000 </r>
       <r>   -15.7100     0.0000     0.0000 </r>
       <r>   -15.7065     0.0000     0.0000 </r>
       <r>   -15.7030     0.0000     0.0000 </r>
       <r>   -15.6994     0.0000     0.0000 </r>
       <r>   -15.6959     0.0000     0.0000 </r>
       <r>   -15.6924     0.0000     0.0000 </r>
       <r>   -15.6889     0.0000     0.0000 </r>
       <r>   -15.6853     0.0000     0.0000 </r>
       <r>   -15.6818     0.0000     0.0000 </r>
       <r>   -15.6783     0.0000     0.0000 </r>
       <r>   -15.6748     0.0000     0.0000 </r>
       <r>   -15.6712     0.0000     0.0000 </r>
       <r>   -15.6677     0.0000     0.0000 </r>
       <r>   -15.6642     0.0000     0.0000 </r>
       <r>   -15.6607     0.0000     0.0000 </r>
       <r>   -15.6571     0.0000     0.0000 </r>
       <r>   -15.6536     0.0000     0.0000 </r>
       <r>   -15.6501     0.0000     0.0000 </r>
       <r>   -15.6466     0.0000     0.0000 </r>
       <r>   -15.6430     0.0000     0.0000 </r>
       <r>   -15.6395     0.0000     0.0000 </r>
       <r>   -15.6360     0.0000     0.0000 </r>
       <r>   -15.6325     0.0000     0.0000 </r>
       <r>   -15.6289     0.0000     0.0000 </r>
       <r>   -15.6254     0.0000     0.0000 </r>
       <r>   -15.6219     0.0000     0.0000 </r>
       <r>   -15.6184     0.0000     0.0000 </r>
       <r>   -15.6148     0.0000     0.0000 </r>
       <r>   -15.6113     0.0000     0.0000 </r>
       <r>   -15.6078     0.0000     0.0000 </r>
       <r>   -15.6043     0.0000     0.0000 </r>
       <r>   -15.6007     0.0000     0.0000 </r>
       <r>   -15.5972     0.0000     0.0000 </r>
       <r>   -15.5937     0.0000     0.0000 </r>
       <r>   -15.5902     0.0000     0.0000 </r>
       <r>   -15.5867     0.0000     0.0000 </r>
       <r>   -15.5831     0.0000     0.0000 </r>
       <r>   -15.5796     0.0000     0.0000 </r>
       <r>   -15.5761     0.0000     0.0000 </r>
       <r>   -15.5726     0.0000     0.0000 </r>
       <r>   -15.5690     0.0000     0.0000 </r>
       <r>   -15.5655     0.0000     0.0000 </r>
       <r>   -15.5620     0.0000     0.0000 </r>
       <r>   -15.5585     0.0000     0.0000 </r>
       <r>   -15.5549     0.0000     0.0000 </r>
       <r>   -15.5514     0.0000     0.0000 </r>
       <r>   -15.5479     0.0000     0.0000 </r>
       <r>   -15.5444     0.0000     0.0000 </r>
       <r>   -15.5408     0.0000     0.0000 </r>
       <r>   -15.5373     0.0000     0.0000 </r>
       <r>   -15.5338     0.0000     0.0000 </r>
       <r>   -15.5303     0.0000     0.0000 </r>
       <r>   -15.5267     0.0000     0.0000 </r>
       <r>   -15.5232     0.0000     0.0000 </r>
       <r>   -15.5197     0.0000     0.0000 </r>
       <r>   -15.5162     0.0000     0.0000 </r>
       <r>   -15.5126     0.0000     0.0000 </r>
       <r>   -15.5091     0.0000     0.0000 </r>
       <r>   -15.5056     0.0000     0.0000 </r>
       <r>   -15.5021     0.0000     0.0000 </r>
       <r>   -15.4985     0.0000     0.0000 </r>
       <r>   -15.4950     0.0000     0.0000 </r>
       <r>   -15.4915     0.0000     0.0000 </r>
       <r>   -15.4880     0.0000     0.0000 </r>
       <r>   -15.4844     0.0000     0.0000 </r>
       <r>   -15.4809     0.0000     0.0000 </r>
       <r>   -15.4774     0.0000     0.0000 </r>
       <r>   -15.4739     0.0000     0.0000 </r>
       <r>   -15.4703     0.0000     0.0000 </r>
       <r>   -15.4668     0.0000     0.0000 </r>
       <r>   -15.4633     0.0000     0.0000 </r>
       <r>   -15.4598     0.0000     0.0000 </r>
       <r>   -15.4562     0.0000     0.0000 </r>
       <r>   -15.4527     0.0000     0.0000 </r>
       <r>   -15.4492     0.0000     0.0000 </r>
       <r>   -15.4457     0.0000     0.0000 </r>
       <r>   -15.4421     0.0000     0.0000 </r>
       <r>   -15.4386     0.0000     0.0000 </r>
       <r>   -15.4351     0.0000     0.0000 </r>
       <r>   -15.4316     0.0000     0.0000 </r>
       <r>   -15.4280     0.0000     0.0000 </r>
       <r>   -15.4245     0.0000     0.0000 </r>
       <r>   -15.4210     0.0000     0.0000 </r>
       <r>   -15.4175     0.0000     0.0000 </r>
       <r>   -15.4139     0.0000     0.0000 </r>
       <r>   -15.4104     0.0000     0.0000 </r>
       <r>   -15.4069     0.0000     0.0000 </r>
       <r>   -15.4034     0.0000     0.0000 </r>
       <r>   -15.3998     0.0000     0.0000 </r>
       <r>   -15.3963     0.0000     0.0000 </r>
       <r>   -15.3928     0.0000     0.0000 </r>
       <r>   -15.3893     0.0000     0.0000 </r>
       <r>   -15.3857     0.0000     0.0000 </r>
       <r>   -15.3822     0.0000     0.0000 </r>
       <r>   -15.3787     0.0000     0.0000 </r>
       <r>   -15.3752     0.0000     0.0000 </r>
       <r>   -15.3716     0.0000     0.0000 </r>
       <r>   -15.3681     0.0000     0.0000 </r>
       <r>   -15.3646     0.0000     0.0000 </r>
       <r>   -15.3611     0.0000     0.0000 </r>
       <r>   -15.3575     0.0000     0.0000 </r>
       <r>   -15.3540     0.0000     0.0000 </r>
       <r>   -15.3505     0.0000     0.0000 </r>
       <r>   -15.3470     0.0000     0.0000 </r>
       <r>   -15.3434     0.0000     0.0000 </r>
       <r>   -15.3399     0.0000     0.0000 </r>
       <r>   -15.3364     0.0000     0.0000 </r>
       <r>   -15.3329     0.0000     0.0000 </r>
       <r>   -15.3293     0.0000     0.0000 </r>
       <r>   -15.3258     0.0000     0.0000 </r>
       <r>   -15.3223     0.0000     0.0000 </r>
       <r>   -15.3188     0.0000     0.0000 </r>
       <r>   -15.3152     0.0000     0.0000 </r>
       <r>   -15.3117     0.0000     0.0000 </r>
       <r>   -15.3082     0.0000     0.0000 </r>
       <r>   -15.3047     0.0000     0.0000 </r>
       <r>   -15.3011     0.0000     0.0000 </r>
       <r>   -15.2976     0.0000     0.0000 </r>
       <r>   -15.2941     0.0000     0.0000 </r>
       <r>   -15.2906     0.0000     0.0000 </r>
       <r>   -15.2870     0.0000     0.0000 </r>
       <r>   -15.2835     0.0000     0.0000 </r>
       <r>   -15.2800     0.0000     0.0000 </r>
       <r>   -15.2765     0.0000     0.0000 </r>
       <r>   -15.2729     0.0000     0.0000 </r>
       <r>   -15.2694     0.0000     0.0000 </r>
       <r>   -15.2659     0.0000     0.0000 </r>
       <r>   -15.2624     0.0000     0.0000 </r>
       <r>   -15.2588     0.0000     0.0000 </r>
       <r>   -15.2553     0.0000     0.0000 </r>
       <r>   -15.2518     0.0000     0.0000 </r>
       <r>   -15.2483     0.0000     0.0000 </r>
       <r>   -15.2447     0.0000     0.0000 </r>
       <r>   -15.2412     0.0000     0.0000 </r>
       <r>   -15.2377     0.0000     0.0000 </r>
       <r>   -15.2342     0.0000     0.0000 </r>
       <r>   -15.2306     0.0000     0.0000 </r>
       <r>   -15.2271     0.0000     0.0000 </r>
       <r>   -15.2236     0.0000     0.0000 </r>
       <r>   -15.2201     0.0000     0.0000 </r>
       <r>   -15.2165     0.0000     0.0000 </r>
       <r>   -15.2130     0.0000     0.0000 </r>
       <r>   -15.2095     0.0000     0.0000 </r>
       <r>   -15.2060     0.0000     0.0000 </r>
       <r>   -15.2024     0.0000     0.0000 </r>
       <r>   -15.1989     0.0000     0.0000 </r>
       <r>   -15.1954     0.0000     0.0000 </r>
       <r>   -15.1919     0.0000     0.0000 </r>
       <r>   -15.1883     0.0000     0.0000 </r>
       <r>   -15.1848     0.0000     0.0000 </r>
       <r>   -15.1813     0.0000     0.0000 </r>
       <r>   -15.1778     0.0000     0.0000 </r>
       <r>   -15.1742     0.0000     0.0000 </r>
       <r>   -15.1707     0.0000     0.0000 </r>
       <r>   -15.1672     0.0000     0.0000 </r>
       <r>   -15.1637     0.0000     0.0000 </r>
       <r>   -15.1601     0.0000     0.0000 </r>
       <r>   -15.1566     0.0000     0.0000 </r>
       <r>   -15.1531     0.0000     0.0000 </r>
       <r>   -15.1496     0.0000     0.0000 </r>
       <r>   -15.1460     0.0000     0.0000 </r>
       <r>   -15.1425     0.0000     0.0000 </r>
       <r>   -15.1390     0.0000     0.0000 </r>
       <r>   -15.1355     0.0000     0.0000 </r>
       <r>   -15.1319     0.0000     0.0000 </r>
       <r>   -15.1284     0.0000     0.0000 </r>
       <r>   -15.1249     0.0000     0.0000 </r>
       <r>   -15.1214     0.0000     0.0000 </r>
       <r>   -15.1178     0.0000     0.0000 </r>
       <r>   -15.1143     0.0000     0.0000 </r>
       <r>   -15.1108     0.0000     0.0000 </r>
       <r>   -15.1073     0.0000     0.0000 </r>
       <r>   -15.1037     0.0000     0.0000 </r>
       <r>   -15.1002     0.0000     0.0000 </r>
       <r>   -15.0967     0.0000     0.0000 </r>
       <r>   -15.0932     0.0000     0.0000 </r>
       <r>   -15.0896     0.0000     0.0000 </r>
       <r>   -15.0861     0.0000     0.0000 </r>
       <r>   -15.0826     0.0000     0.0000 </r>
       <r>   -15.0791     0.0000     0.0000 </r>
       <r>   -15.0755     0.0000     0.0000 </r>
       <r>   -15.0720     0.0000     0.0000 </r>
       <r>   -15.0685     0.0000     0.0000 </r>
       <r>   -15.0650     0.0000     0.0000 </r>
       <r>   -15.0614     0.0000     0.0000 </r>
       <r>   -15.0579     0.0002     0.0000 </r>
       <r>   -15.0544     0.0016     0.0000 </r>
       <r>   -15.0509     0.0082     0.0000 </r>
       <r>   -15.0473     0.0331     0.0002 </r>
       <r>   -15.0438     0.1048     0.0005 </r>
       <r>   -15.0403     0.2598     0.0014 </r>
       <r>   -15.0368     0.5046     0.0032 </r>
       <r>   -15.0332     0.7683     0.0059 </r>
       <r>   -15.0297     0.9172     0.0092 </r>
       <r>   -15.0262     0.8583     0.0122 </r>
       <r>   -15.0227     0.6297     0.0144 </r>
       <r>   -15.0191     0.3622     0.0157 </r>
       <r>   -15.0156     0.1633     0.0163 </r>
       <r>   -15.0121     0.0577     0.0165 </r>
       <r>   -15.0086     0.0160     0.0165 </r>
       <r>   -15.0050     0.0035     0.0165 </r>
       <r>   -15.0015     0.0006     0.0165 </r>
       <r>   -14.9980     0.0001     0.0165 </r>
       <r>   -14.9945     0.0000     0.0165 </r>
       <r>   -14.9909     0.0000     0.0165 </r>
       <r>   -14.9874     0.0004     0.0165 </r>
       <r>   -14.9839     0.0028     0.0165 </r>
       <r>   -14.9804     0.0171     0.0166 </r>
       <r>   -14.9768     0.0811     0.0169 </r>
       <r>   -14.9733     0.3015     0.0179 </r>
       <r>   -14.9698     0.8780     0.0210 </r>
       <r>   -14.9663     2.0041     0.0281 </r>
       <r>   -14.9627     3.5857     0.0407 </r>
       <r>   -14.9592     5.0291     0.0585 </r>
       <r>   -14.9557     5.5297     0.0780 </r>
       <r>   -14.9522     4.7665     0.0948 </r>
       <r>   -14.9486     3.2210     0.1061 </r>
       <r>   -14.9451     1.7062     0.1121 </r>
       <r>   -14.9416     0.7084     0.1146 </r>
       <r>   -14.9381     0.2305     0.1154 </r>
       <r>   -14.9345     0.0588     0.1157 </r>
       <r>   -14.9310     0.0117     0.1157 </r>
       <r>   -14.9275     0.0018     0.1157 </r>
       <r>   -14.9240     0.0002     0.1157 </r>
       <r>   -14.9204     0.0000     0.1157 </r>
       <r>   -14.9169     0.0000     0.1157 </r>
       <r>   -14.9134     0.0000     0.1157 </r>
       <r>   -14.9099     0.0000     0.1157 </r>
       <r>   -14.9063     0.0000     0.1157 </r>
       <r>   -14.9028     0.0000     0.1157 </r>
       <r>   -14.8993     0.0000     0.1157 </r>
       <r>   -14.8958     0.0000     0.1157 </r>
       <r>   -14.8922     0.0000     0.1157 </r>
       <r>   -14.8887     0.0000     0.1157 </r>
       <r>   -14.8852     0.0000     0.1157 </r>
       <r>   -14.8817     0.0000     0.1157 </r>
       <r>   -14.8781     0.0000     0.1157 </r>
       <r>   -14.8746     0.0000     0.1157 </r>
       <r>   -14.8711     0.0000     0.1157 </r>
       <r>   -14.8676     0.0000     0.1157 </r>
       <r>   -14.8640     0.0000     0.1157 </r>
       <r>   -14.8605     0.0000     0.1157 </r>
       <r>   -14.8570     0.0000     0.1157 </r>
       <r>   -14.8535     0.0000     0.1157 </r>
       <r>   -14.8499     0.0000     0.1157 </r>
       <r>   -14.8464     0.0001     0.1157 </r>
       <r>   -14.8429     0.0007     0.1157 </r>
       <r>   -14.8394     0.0050     0.1157 </r>
       <r>   -14.8358     0.0280     0.1158 </r>
       <r>   -14.8323     0.1235     0.1163 </r>
       <r>   -14.8288     0.4264     0.1178 </r>
       <r>   -14.8253     1.1542     0.1218 </r>
       <r>   -14.8217     2.4487     0.1305 </r>
       <r>   -14.8182     4.0721     0.1448 </r>
       <r>   -14.8147     5.3086     0.1635 </r>
       <r>   -14.8112     5.4254     0.1827 </r>
       <r>   -14.8076     4.3469     0.1980 </r>
       <r>   -14.8041     2.7302     0.2076 </r>
       <r>   -14.8006     1.3442     0.2123 </r>
       <r>   -14.7971     0.5188     0.2142 </r>
       <r>   -14.7935     0.1569     0.2147 </r>
       <r>   -14.7900     0.0372     0.2148 </r>
       <r>   -14.7865     0.0069     0.2149 </r>
       <r>   -14.7830     0.0010     0.2149 </r>
       <r>   -14.7794     0.0001     0.2149 </r>
       <r>   -14.7759     0.0001     0.2149 </r>
       <r>   -14.7724     0.0007     0.2149 </r>
       <r>   -14.7689     0.0052     0.2149 </r>
       <r>   -14.7653     0.0293     0.2150 </r>
       <r>   -14.7618     0.1283     0.2155 </r>
       <r>   -14.7583     0.4400     0.2170 </r>
       <r>   -14.7548     1.1828     0.2212 </r>
       <r>   -14.7512     2.4921     0.2300 </r>
       <r>   -14.7477     4.1161     0.2445 </r>
       <r>   -14.7442     5.3295     0.2633 </r>
       <r>   -14.7407     5.4097     0.2823 </r>
       <r>   -14.7371     4.3048     0.2975 </r>
       <r>   -14.7336     2.6854     0.3070 </r>
       <r>   -14.7301     1.3131     0.3116 </r>
       <r>   -14.7266     0.5033     0.3134 </r>
       <r>   -14.7230     0.1512     0.3139 </r>
       <r>   -14.7195     0.0356     0.3140 </r>
       <r>   -14.7160     0.0066     0.3140 </r>
       <r>   -14.7125     0.0009     0.3140 </r>
       <r>   -14.7089     0.0001     0.3140 </r>
       <r>   -14.7054     0.0000     0.3140 </r>
       <r>   -14.7019     0.0000     0.3140 </r>
       <r>   -14.6984     0.0000     0.3140 </r>
       <r>   -14.6948     0.0000     0.3140 </r>
       <r>   -14.6913     0.0000     0.3140 </r>
       <r>   -14.6878     0.0000     0.3140 </r>
       <r>   -14.6843     0.0000     0.3140 </r>
       <r>   -14.6807     0.0000     0.3140 </r>
       <r>   -14.6772     0.0000     0.3140 </r>
       <r>   -14.6737     0.0000     0.3140 </r>
       <r>   -14.6702     0.0000     0.3140 </r>
       <r>   -14.6666     0.0000     0.3140 </r>
       <r>   -14.6631     0.0000     0.3140 </r>
       <r>   -14.6596     0.0000     0.3140 </r>
       <r>   -14.6561     0.0000     0.3140 </r>
       <r>   -14.6525     0.0000     0.3140 </r>
       <r>   -14.6490     0.0000     0.3140 </r>
       <r>   -14.6455     0.0000     0.3140 </r>
       <r>   -14.6420     0.0000     0.3140 </r>
       <r>   -14.6384     0.0000     0.3140 </r>
       <r>   -14.6349     0.0000     0.3140 </r>
       <r>   -14.6314     0.0000     0.3140 </r>
       <r>   -14.6279     0.0000     0.3140 </r>
       <r>   -14.6243     0.0000     0.3140 </r>
       <r>   -14.6208     0.0000     0.3140 </r>
       <r>   -14.6173     0.0000     0.3140 </r>
       <r>   -14.6138     0.0000     0.3140 </r>
       <r>   -14.6102     0.0000     0.3140 </r>
       <r>   -14.6067     0.0000     0.3140 </r>
       <r>   -14.6032     0.0000     0.3140 </r>
       <r>   -14.5997     0.0000     0.3140 </r>
       <r>   -14.5961     0.0000     0.3140 </r>
       <r>   -14.5926     0.0000     0.3140 </r>
       <r>   -14.5891     0.0000     0.3140 </r>
       <r>   -14.5856     0.0000     0.3140 </r>
       <r>   -14.5820     0.0000     0.3140 </r>
       <r>   -14.5785     0.0000     0.3140 </r>
       <r>   -14.5750     0.0000     0.3140 </r>
       <r>   -14.5715     0.0000     0.3140 </r>
       <r>   -14.5679     0.0004     0.3141 </r>
       <r>   -14.5644     0.0030     0.3141 </r>
       <r>   -14.5609     0.0194     0.3141 </r>
       <r>   -14.5574     0.0998     0.3145 </r>
       <r>   -14.5538     0.4020     0.3159 </r>
       <r>   -14.5503     1.2685     0.3204 </r>
       <r>   -14.5468     3.1374     0.3314 </r>
       <r>   -14.5433     6.0821     0.3529 </r>
       <r>   -14.5397     9.2428     0.3854 </r>
       <r>   -14.5362    11.0111     0.4243 </r>
       <r>   -14.5327    10.2838     0.4605 </r>
       <r>   -14.5292     7.5294     0.4871 </r>
       <r>   -14.5256     4.3216     0.5023 </r>
       <r>   -14.5221     1.9443     0.5091 </r>
       <r>   -14.5186     0.6856     0.5116 </r>
       <r>   -14.5151     0.1895     0.5122 </r>
       <r>   -14.5115     0.0410     0.5124 </r>
       <r>   -14.5080     0.0070     0.5124 </r>
       <r>   -14.5045     0.0009     0.5124 </r>
       <r>   -14.5010     0.0001     0.5124 </r>
       <r>   -14.4974     0.0000     0.5124 </r>
       <r>   -14.4939     0.0000     0.5124 </r>
       <r>   -14.4904     0.0000     0.5124 </r>
       <r>   -14.4869     0.0000     0.5124 </r>
       <r>   -14.4833     0.0000     0.5124 </r>
       <r>   -14.4798     0.0000     0.5124 </r>
       <r>   -14.4763     0.0000     0.5124 </r>
       <r>   -14.4728     0.0000     0.5124 </r>
       <r>   -14.4692     0.0000     0.5124 </r>
       <r>   -14.4657     0.0000     0.5124 </r>
       <r>   -14.4622     0.0000     0.5124 </r>
       <r>   -14.4587     0.0000     0.5124 </r>
       <r>   -14.4551     0.0000     0.5124 </r>
       <r>   -14.4516     0.0000     0.5124 </r>
       <r>   -14.4481     0.0000     0.5124 </r>
       <r>   -14.4446     0.0000     0.5124 </r>
       <r>   -14.4410     0.0000     0.5124 </r>
       <r>   -14.4375     0.0001     0.5124 </r>
       <r>   -14.4340     0.0008     0.5124 </r>
       <r>   -14.4305     0.0059     0.5124 </r>
       <r>   -14.4269     0.0324     0.5125 </r>
       <r>   -14.4234     0.1396     0.5130 </r>
       <r>   -14.4199     0.4717     0.5147 </r>
       <r>   -14.4164     1.2486     0.5191 </r>
       <r>   -14.4128     2.5908     0.5282 </r>
       <r>   -14.4093     4.2139     0.5431 </r>
       <r>   -14.4058     5.3730     0.5620 </r>
       <r>   -14.4023     5.3708     0.5809 </r>
       <r>   -14.3987     4.2087     0.5958 </r>
       <r>   -14.3952     2.5855     0.6049 </r>
       <r>   -14.3917     1.2450     0.6093 </r>
       <r>   -14.3882     0.4699     0.6109 </r>
       <r>   -14.3846     0.1390     0.6114 </r>
       <r>   -14.3811     0.0322     0.6115 </r>
       <r>   -14.3776     0.0059     0.6116 </r>
       <r>   -14.3741     0.0008     0.6116 </r>
       <r>   -14.3705     0.0001     0.6116 </r>
       <r>   -14.3670     0.0000     0.6116 </r>
       <r>   -14.3635     0.0000     0.6116 </r>
       <r>   -14.3600     0.0000     0.6116 </r>
       <r>   -14.3564     0.0000     0.6116 </r>
       <r>   -14.3529     0.0000     0.6116 </r>
       <r>   -14.3494     0.0000     0.6116 </r>
       <r>   -14.3459     0.0000     0.6116 </r>
       <r>   -14.3423     0.0000     0.6116 </r>
       <r>   -14.3388     0.0000     0.6116 </r>
       <r>   -14.3353     0.0000     0.6116 </r>
       <r>   -14.3318     0.0000     0.6116 </r>
       <r>   -14.3282     0.0000     0.6116 </r>
       <r>   -14.3247     0.0000     0.6116 </r>
       <r>   -14.3212     0.0000     0.6116 </r>
       <r>   -14.3177     0.0000     0.6116 </r>
       <r>   -14.3141     0.0000     0.6116 </r>
       <r>   -14.3106     0.0000     0.6116 </r>
       <r>   -14.3071     0.0000     0.6116 </r>
       <r>   -14.3036     0.0000     0.6116 </r>
       <r>   -14.3000     0.0000     0.6116 </r>
       <r>   -14.2965     0.0000     0.6116 </r>
       <r>   -14.2930     0.0000     0.6116 </r>
       <r>   -14.2895     0.0000     0.6116 </r>
       <r>   -14.2859     0.0000     0.6116 </r>
       <r>   -14.2824     0.0000     0.6116 </r>
       <r>   -14.2789     0.0000     0.6116 </r>
       <r>   -14.2754     0.0000     0.6116 </r>
       <r>   -14.2718     0.0000     0.6116 </r>
       <r>   -14.2683     0.0000     0.6116 </r>
       <r>   -14.2648     0.0000     0.6116 </r>
       <r>   -14.2613     0.0000     0.6116 </r>
       <r>   -14.2577     0.0000     0.6116 </r>
       <r>   -14.2542     0.0000     0.6116 </r>
       <r>   -14.2507     0.0000     0.6116 </r>
       <r>   -14.2472     0.0000     0.6116 </r>
       <r>   -14.2436     0.0000     0.6116 </r>
       <r>   -14.2401     0.0002     0.6116 </r>
       <r>   -14.2366     0.0015     0.6116 </r>
       <r>   -14.2331     0.0098     0.6116 </r>
       <r>   -14.2295     0.0502     0.6118 </r>
       <r>   -14.2260     0.2020     0.6125 </r>
       <r>   -14.2225     0.6367     0.6147 </r>
       <r>   -14.2190     1.5734     0.6203 </r>
       <r>   -14.2154     3.0473     0.6310 </r>
       <r>   -14.2119     4.6266     0.6473 </r>
       <r>   -14.2084     5.5067     0.6668 </r>
       <r>   -14.2049     5.1382     0.6849 </r>
       <r>   -14.2013     3.7585     0.6981 </r>
       <r>   -14.1978     2.1552     0.7057 </r>
       <r>   -14.1943     0.9687     0.7091 </r>
       <r>   -14.1908     0.3413     0.7103 </r>
       <r>   -14.1872     0.0942     0.7107 </r>
       <r>   -14.1837     0.0206     0.7107 </r>
       <r>   -14.1802     0.0052     0.7107 </r>
       <r>   -14.1767     0.0128     0.7108 </r>
       <r>   -14.1732     0.0673     0.7110 </r>
       <r>   -14.1696     0.2883     0.7120 </r>
       <r>   -14.1661     0.9681     0.7155 </r>
       <r>   -14.1626     2.5481     0.7244 </r>
       <r>   -14.1591     5.2567     0.7430 </r>
       <r>   -14.1555     8.5006     0.7729 </r>
       <r>   -14.1520    10.7763     0.8109 </r>
       <r>   -14.1485    10.7098     0.8487 </r>
       <r>   -14.1450     8.3441     0.8781 </r>
       <r>   -14.1414     5.0963     0.8960 </r>
       <r>   -14.1379     2.4399     0.9046 </r>
       <r>   -14.1344     0.9156     0.9079 </r>
       <r>   -14.1309     0.2693     0.9088 </r>
       <r>   -14.1273     0.0621     0.9090 </r>
       <r>   -14.1238     0.0112     0.9091 </r>
       <r>   -14.1203     0.0016     0.9091 </r>
       <r>   -14.1168     0.0002     0.9091 </r>
       <r>   -14.1132     0.0000     0.9091 </r>
       <r>   -14.1097     0.0000     0.9091 </r>
       <r>   -14.1062     0.0000     0.9091 </r>
       <r>   -14.1027     0.0000     0.9091 </r>
       <r>   -14.0991     0.0000     0.9091 </r>
       <r>   -14.0956     0.0000     0.9091 </r>
       <r>   -14.0921     0.0000     0.9091 </r>
       <r>   -14.0886     0.0000     0.9091 </r>
       <r>   -14.0850     0.0000     0.9091 </r>
       <r>   -14.0815     0.0000     0.9091 </r>
       <r>   -14.0780     0.0000     0.9091 </r>
       <r>   -14.0745     0.0000     0.9091 </r>
       <r>   -14.0709     0.0000     0.9091 </r>
       <r>   -14.0674     0.0000     0.9091 </r>
       <r>   -14.0639     0.0000     0.9091 </r>
       <r>   -14.0604     0.0000     0.9091 </r>
       <r>   -14.0568     0.0000     0.9091 </r>
       <r>   -14.0533     0.0000     0.9091 </r>
       <r>   -14.0498     0.0000     0.9091 </r>
       <r>   -14.0463     0.0000     0.9091 </r>
       <r>   -14.0427     0.0000     0.9091 </r>
       <r>   -14.0392     0.0000     0.9091 </r>
       <r>   -14.0357     0.0000     0.9091 </r>
       <r>   -14.0322     0.0000     0.9091 </r>
       <r>   -14.0286     0.0000     0.9091 </r>
       <r>   -14.0251     0.0000     0.9091 </r>
       <r>   -14.0216     0.0000     0.9091 </r>
       <r>   -14.0181     0.0001     0.9091 </r>
       <r>   -14.0145     0.0006     0.9091 </r>
       <r>   -14.0110     0.0042     0.9091 </r>
       <r>   -14.0075     0.0242     0.9092 </r>
       <r>   -14.0040     0.1092     0.9096 </r>
       <r>   -14.0004     0.3854     0.9109 </r>
       <r>   -13.9969     1.0662     0.9147 </r>
       <r>   -13.9934     2.3118     0.9228 </r>
       <r>   -13.9899     3.9294     0.9367 </r>
       <r>   -13.9863     5.2356     0.9551 </r>
       <r>   -13.9828     5.4689     0.9744 </r>
       <r>   -13.9793     4.4784     0.9902 </r>
       <r>   -13.9758     2.8749     1.0003 </r>
       <r>   -13.9722     1.4467     1.0054 </r>
       <r>   -13.9687     0.5706     1.0075 </r>
       <r>   -13.9652     0.1764     1.0081 </r>
       <r>   -13.9617     0.0427     1.0082 </r>
       <r>   -13.9581     0.0081     1.0083 </r>
       <r>   -13.9546     0.0012     1.0083 </r>
       <r>   -13.9511     0.0001     1.0083 </r>
       <r>   -13.9476     0.0000     1.0083 </r>
       <r>   -13.9440     0.0000     1.0083 </r>
       <r>   -13.9405     0.0000     1.0083 </r>
       <r>   -13.9370     0.0000     1.0083 </r>
       <r>   -13.9335     0.0000     1.0083 </r>
       <r>   -13.9299     0.0000     1.0083 </r>
       <r>   -13.9264     0.0000     1.0083 </r>
       <r>   -13.9229     0.0000     1.0083 </r>
       <r>   -13.9194     0.0000     1.0083 </r>
       <r>   -13.9158     0.0000     1.0083 </r>
       <r>   -13.9123     0.0000     1.0083 </r>
       <r>   -13.9088     0.0000     1.0083 </r>
       <r>   -13.9053     0.0000     1.0083 </r>
       <r>   -13.9017     0.0000     1.0083 </r>
       <r>   -13.8982     0.0000     1.0083 </r>
       <r>   -13.8947     0.0000     1.0083 </r>
       <r>   -13.8912     0.0000     1.0083 </r>
       <r>   -13.8876     0.0000     1.0083 </r>
       <r>   -13.8841     0.0000     1.0083 </r>
[...]
        <r>  0.3877  0.0142  0.0024  0.0006 </r>
       </set>
       <set comment="band 2">
        <r>  0.4416  0.0111  0.0040  0.0007 </r>
        <r>  0.4416  0.0111  0.0040  0.0007 </r>
       </set>
       <set comment="band 3">
        <r>  0.0047  0.2781  0.0084  0.0008 </r>
        <r>  0.0047  0.2781  0.0084  0.0008 </r>
       </set>
       <set comment="band 4">
        <r>  0.0117  0.3071  0.0118  0.0025 </r>
        <r>  0.0117  0.3071  0.0118  0.0025 </r>
       </set>
       <set comment="band 5">
        <r>  0.0168  0.3219  0.0049  0.0025 </r>
        <r>  0.0168  0.3219  0.0049  0.0025 </r>
       </set>
       <set comment="band 6">
        <r>  0.0201  0.2130  0.0208  0.0047 </r>
        <r>  0.0201  0.2130  0.0208  0.0047 </r>
       </set>
       <set comment="band 7">
        <r>  0.0220  0.2525  0.0193  0.0057 </r>
        <r>  0.0220  0.2525  0.0193  0.0057 </r>
       </set>
       <set comment="band 8">
        <r>  0.0048  0.2842  0.0252  0.0052 </r>
        <r>  0.0048  0.2842  0.0252  0.0052 </r>
       </set>
       <set comment="band 9">
        <r>  0.0016  0.0156  0.0161  0.0017 </r>
        <r>  0.0016  0.0156  0.0161  0.0017 </r>
       </set>
       <set comment="band 10">
        <r>  0.0013  0.0780  0.0187  0.0031 </r>
        <r>  0.0013  0.0780  0.0187  0.0031 </r>
       </set>
       <set comment="band 11">
        <r>  0.0023  0.0217  0.0522  0.0051 </r>
        <r>  0.0023  0.0217  0.0522  0.0051 </r>
       </set>
       <set comment="band 12">
        <r>  0.0019  0.0356  0.0238  0.0035 </r>
        <r>  0.0019  0.0356  0.0238  0.0035 </r>
       </set>
      </set>
      <set comment="kpoint 33">
       <set comment="band 1">
        <r>  0.3977  0.0146  0.0036  0.0006 </r>
        <r>  0.3977  0.0146  0.0036  0.0006 </r>
       </set>
       <set comment="band 2">
        <r>  0.4304  0.0146  0.0045  0.0007 </r>
        <r>  0.4304  0.0146  0.0045  0.0007 </r>
       </set>
       <set comment="band 3">
        <r>  0.0170  0.2689  0.0046  0.0004 </r>
        <r>  0.0170  0.2689  0.0046  0.0004 </r>
       </set>
       <set comment="band 4">
        <r>  0.0097  0.3044  0.0098  0.0024 </r>
        <r>  0.0097  0.3044  0.0098  0.0024 </r>
       </set>
       <set comment="band 5">
        <r>  0.0158  0.3138  0.0058  0.0024 </r>
        <r>  0.0158  0.3138  0.0058  0.0024 </r>
       </set>
       <set comment="band 6">
        <r>  0.0168  0.2198  0.0257  0.0042 </r>
        <r>  0.0168  0.2198  0.0257  0.0042 </r>
       </set>
       <set comment="band 7">
        <r>  0.0088  0.2345  0.0317  0.0036 </r>
        <r>  0.0088  0.2345  0.0317  0.0036 </r>
       </set>
       <set comment="band 8">
        <r>  0.0082  0.2791  0.0222  0.0041 </r>
        <r>  0.0082  0.2791  0.0222  0.0041 </r>
       </set>
       <set comment="band 9">
        <r>  0.0010  0.0429  0.0510  0.0026 </r>
        <r>  0.0010  0.0429  0.0510  0.0026 </r>
       </set>
       <set comment="band 10">
        <r>  0.0037  0.0115  0.0275  0.0023 </r>
        <r>  0.0037  0.0115  0.0275  0.0023 </r>
       </set>
       <set comment="band 11">
        <r>  0.0011  0.0363  0.0177  0.0020 </r>
        <r>  0.0011  0.0363  0.0177  0.0020 </r>
       </set>
       <set comment="band 12">
        <r>  0.0124  0.0243  0.0171  0.0032 </r>
        <r>  0.0124  0.0243  0.0171  0.0032 </r>
       </set>
      </set>
      <set comment="kpoint 34">
       <set comment="band 1">
        <r>  0.3977  0.0146  0.0036  0.0006 </r>
        <r>  0.3977  0.0146  0.0036  0.0006 </r>
       </set>
       <set comment="band 2">
        <r>  0.4304  0.0146  0.0045  0.0007 </r>
        <r>  0.4304  0.0146  0.0045  0.0007 </r>
       </set>
       <set comment="band 3">
        <r>  0.0170  0.2689  0.0046  0.0004 </r>
        <r>  0.0170  0.2689  0.0046  0.0004 </r>
       </set>
       <set comment="band 4">
        <r>  0.0097  0.3044  0.0098  0.0024 </r>
        <r>  0.0097  0.3044  0.0098  0.0024 </r>
       </set>
       <set comment="band 5">
        <r>  0.0158  0.3138  0.0058  0.0024 </r>
        <r>  0.0158  0.3138  0.0058  0.0024 </r>
       </set>
       <set comment="band 6">
        <r>  0.0168  0.2198  0.0257  0.0042 </r>
        <r>  0.0168  0.2198  0.0257  0.0042 </r>
       </set>
       <set comment="band 7">
        <r>  0.0088  0.2345  0.0317  0.0036 </r>
        <r>  0.0088  0.2345  0.0317  0.0036 </r>
       </set>
       <set comment="band 8">
        <r>  0.0082  0.2791  0.0223  0.0041 </r>
        <r>  0.0082  0.2791  0.0223  0.0041 </r>
       </set>
       <set comment="band 9">
        <r>  0.0006  0.0428  0.0585  0.0028 </r>
        <r>  0.0006  0.0428  0.0585  0.0028 </r>
       </set>
       <set comment="band 10">
        <r>  0.0041  0.0134  0.0147  0.0019 </r>
        <r>  0.0041  0.0134  0.0147  0.0019 </r>
       </set>
       <set comment="band 11">
        <r>  0.0039  0.0301  0.0290  0.0017 </r>
        <r>  0.0039  0.0301  0.0290  0.0017 </r>
       </set>
       <set comment="band 12">
        <r>  0.0044  0.0309  0.0173  0.0046 </r>
        <r>  0.0044  0.0309  0.0173  0.0046 </r>
       </set>
      </set>
      <set comment="kpoint 35">
       <set comment="band 1">
        <r>  0.4052  0.0137  0.0043  0.0007 </r>
        <r>  0.4052  0.0137  0.0043  0.0007 </r>
       </set>
       <set comment="band 2">
        <r>  0.4212  0.0173  0.0044  0.0006 </r>
        <r>  0.4212  0.0173  0.0044  0.0006 </r>
       </set>
       <set comment="band 3">
        <r>  0.0243  0.2648  0.0031  0.0003 </r>
        <r>  0.0243  0.2648  0.0031  0.0003 </r>
       </set>
       <set comment="band 4">
        <r>  0.0003  0.3254  0.0127  0.0028 </r>
        <r>  0.0003  0.3254  0.0127  0.0028 </r>
       </set>
       <set comment="band 5">
        <r>  0.0217  0.2882  0.0027  0.0019 </r>
        <r>  0.0217  0.2882  0.0027  0.0019 </r>
       </set>
       <set comment="band 6">
        <r>  0.0226  0.2271  0.0311  0.0054 </r>
        <r>  0.0226  0.2271  0.0311  0.0054 </r>
       </set>
       <set comment="band 7">
        <r>  0.0012  0.2279  0.0291  0.0015 </r>
        <r>  0.0012  0.2279  0.0291  0.0015 </r>
       </set>
       <set comment="band 8">
        <r>  0.0063  0.2824  0.0225  0.0037 </r>
        <r>  0.0063  0.2824  0.0225  0.0037 </r>
       </set>
       <set comment="band 9">
        <r>  0.0004  0.0116  0.0727  0.0026 </r>
        <r>  0.0004  0.0116  0.0727  0.0026 </r>
       </set>
       <set comment="band 10">
        <r>  0.0114  0.0256  0.0099  0.0033 </r>
        <r>  0.0114  0.0256  0.0099  0.0033 </r>
       </set>
       <set comment="band 11">
        <r>  0.0033  0.0067  0.0205  0.0022 </r>
        <r>  0.0033  0.0067  0.0205  0.0022 </r>
       </set>
       <set comment="band 12">
        <r>  0.0022  0.0553  0.0120  0.0033 </r>
        <r>  0.0022  0.0553  0.0120  0.0033 </r>
       </set>
      </set>
      <set comment="kpoint 36">
       <set comment="band 1">
        <r>  0.3864  0.0142  0.0022  0.0006 </r>
        <r>  0.3864  0.0142  0.0022  0.0006 </r>
       </set>
       <set comment="band 2">
        <r>  0.4436  0.0103  0.0039  0.0007 </r>
        <r>  0.4436  0.0103  0.0039  0.0007 </r>
       </set>
       <set comment="band 3">
        <r>  0.0003  0.2852  0.0101  0.0011 </r>
        <r>  0.0003  0.2852  0.0101  0.0011 </r>
       </set>
       <set comment="band 4">
        <r>  0.0129  0.2929  0.0126  0.0018 </r>
        <r>  0.0129  0.2929  0.0126  0.0018 </r>
       </set>
       <set comment="band 5">
        <r>  0.0167  0.3211  0.0042  0.0023 </r>
        <r>  0.0167  0.3211  0.0042  0.0023 </r>
       </set>
       <set comment="band 6">
        <r>  0.0192  0.2176  0.0177  0.0043 </r>
        <r>  0.0192  0.2176  0.0177  0.0043 </r>
       </set>
       <set comment="band 7">
        <r>  0.0149  0.2750  0.0194  0.0057 </r>
        <r>  0.0149  0.2750  0.0194  0.0057 </r>
       </set>
       <set comment="band 8">
        <r>  0.0228  0.2755  0.0137  0.0077 </r>
        <r>  0.0228  0.2755  0.0137  0.0077 </r>
       </set>
       <set comment="band 9">
        <r>  0.0001  0.0341  0.0105  0.0025 </r>
        <r>  0.0001  0.0341  0.0105  0.0025 </r>
       </set>
       <set comment="band 10">
        <r>  0.0003  0.0598  0.0246  0.0055 </r>
        <r>  0.0003  0.0598  0.0246  0.0055 </r>
       </set>
       <set comment="band 11">
        <r>  0.0006  0.0234  0.0584  0.0106 </r>
        <r>  0.0006  0.0234  0.0584  0.0106 </r>
       </set>
       <set comment="band 12">
        <r>  0.0022  0.0276  0.0328  0.0061 </r>
        <r>  0.0022  0.0276  0.0328  0.0061 </r>
       </set>
      </set>
      <set comment="kpoint 37">
       <set comment="band 1">
        <r>  0.3949  0.0151  0.0033  0.0006 </r>
        <r>  0.3949  0.0151  0.0033  0.0006 </r>
       </set>
       <set comment="band 2">
        <r>  0.4365  0.0124  0.0047  0.0007 </r>
        <r>  0.4365  0.0124  0.0047  0.0007 </r>
       </set>
       <set comment="band 3">
        <r>  0.0102  0.2765  0.0078  0.0007 </r>
        <r>  0.0102  0.2765  0.0078  0.0007 </r>
       </set>
       <set comment="band 4">
        <r>  0.0066  0.2892  0.0104  0.0013 </r>
        <r>  0.0066  0.2892  0.0104  0.0013 </r>
       </set>
       <set comment="band 5">
        <r>  0.0208  0.3151  0.0042  0.0018 </r>
        <r>  0.0208  0.3151  0.0042  0.0018 </r>
       </set>
       <set comment="band 6">
        <r>  0.0100  0.2278  0.0227  0.0038 </r>
        <r>  0.0100  0.2278  0.0227  0.0038 </r>
       </set>
       <set comment="band 7">
        <r>  0.0084  0.2420  0.0230  0.0039 </r>
        <r>  0.0084  0.2420  0.0230  0.0039 </r>
       </set>
       <set comment="band 8">
        <r>  0.0257  0.2718  0.0156  0.0075 </r>
        <r>  0.0257  0.2718  0.0156  0.0075 </r>
       </set>
       <set comment="band 9">
        <r>  0.0016  0.0294  0.0079  0.0022 </r>
        <r>  0.0016  0.0294  0.0079  0.0022 </r>
       </set>
       <set comment="band 10">
        <r>  0.0003  0.0585  0.0471  0.0078 </r>
        <r>  0.0003  0.0585  0.0471  0.0078 </r>
       </set>
       <set comment="band 11">
        <r>  0.0010  0.0313  0.0444  0.0055 </r>
        <r>  0.0010  0.0313  0.0444  0.0055 </r>
       </set>
       <set comment="band 12">
        <r>  0.0045  0.0351  0.0386  0.0054 </r>
        <r>  0.0045  0.0351  0.0386  0.0054 </r>
       </set>
      </set>
      <set comment="kpoint 38">
       <set comment="band 1">
        <r>  0.3949  0.0151  0.0033  0.0006 </r>
        <r>  0.3949  0.0151  0.0033  0.0006 </r>
       </set>
       <set comment="band 2">
        <r>  0.4365  0.0124  0.0047  0.0007 </r>
        <r>  0.4365  0.0124  0.0047  0.0007 </r>
       </set>
       <set comment="band 3">
        <r>  0.0102  0.2765  0.0078  0.0007 </r>
        <r>  0.0102  0.2765  0.0078  0.0007 </r>
       </set>
       <set comment="band 4">
        <r>  0.0066  0.2892  0.0104  0.0013 </r>
        <r>  0.0066  0.2892  0.0104  0.0013 </r>
       </set>
       <set comment="band 5">
        <r>  0.0208  0.3151  0.0042  0.0018 </r>
        <r>  0.0208  0.3151  0.0042  0.0018 </r>
       </set>
       <set comment="band 6">
        <r>  0.0100  0.2278  0.0227  0.0038 </r>
        <r>  0.0100  0.2278  0.0227  0.0038 </r>
       </set>
       <set comment="band 7">
        <r>  0.0084  0.2420  0.0230  0.0039 </r>
        <r>  0.0084  0.2420  0.0230  0.0039 </r>
       </set>
       <set comment="band 8">
        <r>  0.0257  0.2719  0.0156  0.0075 </r>
        <r>  0.0257  0.2719  0.0156  0.0075 </r>
       </set>
       <set comment="band 9">
        <r>  0.0017  0.0223  0.0100  0.0024 </r>
        <r>  0.0017  0.0223  0.0100  0.0024 </r>
       </set>
       <set comment="band 10">
        <r>  0.0002  0.0680  0.0403  0.0070 </r>
        <r>  0.0002  0.0680  0.0403  0.0070 </r>
       </set>
       <set comment="band 11">
        <r>  0.0011  0.0256  0.0575  0.0068 </r>
        <r>  0.0011  0.0256  0.0575  0.0068 </r>
       </set>
       <set comment="band 12">
        <r>  0.0038  0.0400  0.0389  0.0071 </r>
        <r>  0.0038  0.0400  0.0389  0.0071 </r>
       </set>
      </set>
      <set comment="kpoint 39">
       <set comment="band 1">
        <r>  0.4052  0.0146  0.0043  0.0006 </r>
        <r>  0.4052  0.0146  0.0043  0.0006 </r>
       </set>
       <set comment="band 2">
        <r>  0.4251  0.0153  0.0048  0.0007 </r>
        <r>  0.4251  0.0153  0.0048  0.0007 </r>
       </set>
       <set comment="band 3">
        <r>  0.0148  0.2690  0.0068  0.0005 </r>
        <r>  0.0148  0.2690  0.0068  0.0005 </r>
       </set>
       <set comment="band 4">
        <r>  0.0068  0.2982  0.0093  0.0012 </r>
        <r>  0.0068  0.2982  0.0093  0.0012 </r>
       </set>
       <set comment="band 5">
        <r>  0.0217  0.2995  0.0040  0.0015 </r>
        <r>  0.0217  0.2995  0.0040  0.0015 </r>
       </set>
       <set comment="band 6">
        <r>  0.0010  0.2328  0.0274  0.0029 </r>
        <r>  0.0010  0.2328  0.0274  0.0029 </r>
       </set>
       <set comment="band 7">
        <r>  0.0176  0.2483  0.0211  0.0053 </r>
        <r>  0.0176  0.2483  0.0211  0.0053 </r>
       </set>
       <set comment="band 8">
        <r>  0.0169  0.2498  0.0200  0.0049 </r>
        <r>  0.0169  0.2498  0.0200  0.0049 </r>
       </set>
       <set comment="band 9">
        <r>  0.0019  0.0260  0.0650  0.0070 </r>
        <r>  0.0019  0.0260  0.0650  0.0070 </r>
       </set>
       <set comment="band 10">
        <r>  0.0030  0.0157  0.0215  0.0039 </r>
        <r>  0.0030  0.0157  0.0215  0.0039 </r>
       </set>
       <set comment="band 11">
        <r>  0.0003  0.0531  0.0228  0.0027 </r>
        <r>  0.0003  0.0531  0.0228  0.0027 </r>
       </set>
       <set comment="band 12">
        <r>  0.0023  0.0428  0.0399  0.0033 </r>
        <r>  0.0023  0.0429  0.0399  0.0033 </r>
       </set>
      </set>
      <set comment="kpoint 40">
       <set comment="band 1">
        <r>  0.4052  0.0146  0.0043  0.0006 </r>
        <r>  0.4052  0.0146  0.0043  0.0006 </r>
       </set>
       <set comment="band 2">
        <r>  0.4251  0.0153  0.0048  0.0007 </r>
        <r>  0.4251  0.0153  0.0048  0.0007 </r>
       </set>
       <set comment="band 3">
        <r>  0.0148  0.2690  0.0068  0.0005 </r>
        <r>  0.0148  0.2690  0.0068  0.0005 </r>
       </set>
       <set comment="band 4">
        <r>  0.0068  0.2982  0.0093  0.0012 </r>
        <r>  0.0068  0.2982  0.0093  0.0012 </r>
       </set>
       <set comment="band 5">
        <r>  0.0217  0.2995  0.0040  0.0015 </r>
        <r>  0.0217  0.2995  0.0040  0.0015 </r>
       </set>
       <set comment="band 6">
        <r>  0.0010  0.2328  0.0274  0.0029 </r>
        <r>  0.0010  0.2328  0.0274  0.0029 </r>
       </set>
       <set comment="band 7">
        <r>  0.0176  0.2483  0.0211  0.0053 </r>
        <r>  0.0176  0.2483  0.0211  0.0053 </r>
       </set>
       <set comment="band 8">
        <r>  0.0169  0.2499  0.0200  0.0049 </r>
        <r>  0.0169  0.2499  0.0200  0.0049 </r>
       </set>
       <set comment="band 9">
        <r>  0.0019  0.0261  0.0673  0.0072 </r>
        <r>  0.0019  0.0261  0.0673  0.0072 </r>
       </set>
       <set comment="band 10">
        <r>  0.0030  0.0169  0.0135  0.0033 </r>
        <r>  0.0030  0.0169  0.0135  0.0033 </r>
       </set>
       <set comment="band 11">
        <r>  0.0009  0.0477  0.0344  0.0027 </r>
        <r>  0.0009  0.0477  0.0344  0.0027 </r>
       </set>
       <set comment="band 12">
        <r>  0.0032  0.0335  0.0282  0.0034 </r>
        <r>  0.0032  0.0335  0.0282  0.0034 </r>
       </set>
      </set>
      <set comment="kpoint 41">
       <set comment="band 1">
        <r>  0.4043  0.0153  0.0042  0.0006 </r>
        <r>  0.4043  0.0153  0.0042  0.0006 </r>
       </set>
       <set comment="band 2">
        <r>  0.4281  0.0139  0.0050  0.0007 </r>
        <r>  0.4281  0.0139  0.0050  0.0007 </r>
       </set>
       <set comment="band 3">
        <r>  0.0051  0.2736  0.0105  0.0006 </r>
        <r>  0.0051  0.2736  0.0105  0.0006 </r>
       </set>
       <set comment="band 4">
        <r>  0.0134  0.2873  0.0057  0.0006 </r>
        <r>  0.0134  0.2873  0.0057  0.0006 </r>
       </set>
       <set comment="band 5">
        <r>  0.0231  0.3056  0.0042  0.0012 </r>
        <r>  0.0231  0.3056  0.0042  0.0012 </r>
       </set>
       <set comment="band 6">
        <r>  0.0008  0.2263  0.0264  0.0036 </r>
        <r>  0.0008  0.2263  0.0264  0.0036 </r>
       </set>
       <set comment="band 7">
        <r>  0.0136  0.2235  0.0207  0.0033 </r>
        <r>  0.0136  0.2235  0.0207  0.0033 </r>
       </set>
       <set comment="band 8">
        <r>  0.0227  0.2854  0.0119  0.0068 </r>
        <r>  0.0227  0.2854  0.0119  0.0068 </r>
       </set>
       <set comment="band 9">
        <r>  0.0042  0.0223  0.0101  0.0031 </r>
        <r>  0.0042  0.0223  0.0101  0.0031 </r>
       </set>
       <set comment="band 10">
        <r>  0.0011  0.0640  0.0292  0.0096 </r>
        <r>  0.0011  0.0640  0.0292  0.0096 </r>
       </set>
       <set comment="band 11">
        <r>  0.0010  0.0514  0.0816  0.0074 </r>
        <r>  0.0010  0.0514  0.0816  0.0074 </r>
       </set>
       <set comment="band 12">
        <r>  0.0027  0.0398  0.0695  0.0136 </r>
        <r>  0.0027  0.0398  0.0695  0.0136 </r>
       </set>
      </set>
      <set comment="kpoint 42">
       <set comment="band 1">
        <r>  0.4123  0.0149  0.0047  0.0007 </r>
        <r>  0.4123  0.0149  0.0047  0.0007 </r>
       </set>
       <set comment="band 2">
        <r>  0.4204  0.0151  0.0049  0.0007 </r>
        <r>  0.4204  0.0151  0.0049  0.0007 </r>
       </set>
       <set comment="band 3">
        <r>  0.0024  0.2717  0.0103  0.0004 </r>
        <r>  0.0024  0.2717  0.0103  0.0004 </r>
       </set>
       <set comment="band 4">
        <r>  0.0176  0.2939  0.0055  0.0007 </r>
        <r>  0.0176  0.2939  0.0055  0.0007 </r>
       </set>
       <set comment="band 5">
        <r>  0.0232  0.2961  0.0040  0.0009 </r>
        <r>  0.0232  0.2961  0.0040  0.0009 </r>
       </set>
       <set comment="band 6">
        <r>  0.0001  0.2182  0.0265  0.0036 </r>
        <r>  0.0001  0.2182  0.0265  0.0036 </r>
       </set>
       <set comment="band 7">
        <r>  0.0140  0.2405  0.0192  0.0038 </r>
        <r>  0.0140  0.2405  0.0192  0.0038 </r>
       </set>
       <set comment="band 8">
        <r>  0.0188  0.2670  0.0152  0.0055 </r>
        <r>  0.0188  0.2670  0.0152  0.0055 </r>
       </set>
       <set comment="band 9">
        <r>  0.0044  0.0310  0.0392  0.0088 </r>
        <r>  0.0044  0.0310  0.0392  0.0088 </r>
       </set>
       <set comment="band 10">
        <r>  0.0028  0.0325  0.0547  0.0042 </r>
        <r>  0.0028  0.0325  0.0547  0.0042 </r>
       </set>
       <set comment="band 11">
        <r>  0.0055  0.0371  0.0082  0.0054 </r>
        <r>  0.0055  0.0371  0.0082  0.0054 </r>
       </set>
       <set comment="band 12">
        <r>  0.0006  0.0233  0.0411  0.0081 </r>
        <r>  0.0006  0.0233  0.0411  0.0081 </r>
       </set>
      </set>
     </set>
    </set>
   </array>
  </projected>
 </calculation>
 <structure name="finalpos" >
  <crystal>
   <varray name="basis" >
    <v>       4.33242938       0.00000000       0.00000000 </v>
    <v>      -2.16621469       3.75199391       0.00000000 </v>
    <v>       0.00000000       0.00000000      16.00000000 </v>
   </varray>
   <i name="volume">    260.08397844 </i>
   <varray name="rec_basis" >
    <v>       0.23081738       0.13326248       0.00000000 </v>
    <v>       0.00000000       0.26652495       0.00000000 </v>
    <v>       0.00000000       0.00000000       0.06250000 </v>
   </varray>
  </crystal>
  <varray name="positions" >
   <v>       0.66666667       0.33333333       0.44570588 </v>
   <v>       0.33333333       0.66666667       0.55429412 </v>
  </varray>
 </structure>
</modeling>
