unknown system                          
           1
     4.332429    0.000000    0.000000
    -2.166215    3.751994    0.000000
     0.000000    0.000000   16.000000
   Bi
     2
Direct configuration=     1
   0.66666667  0.33333333  0.44570588
   0.33333333  0.66666667  0.55429412
