nqpoint: 300    
npath: 3      
segment_nqpoint:
- 100
- 100
- 100
reciprocal_lattice:
- [   0.24310987,   0.14035955,   0.00000000 ] # a*
- [   0.00000000,   0.28071910,   0.00000000 ] # b*
- [   0.00000000,   0.00000000,   0.06250000 ] # c*
natom: 2      
lattice:
- [     4.113366549671167,     0.000000000000000,     0.000000000000000 ] # a
- [    -2.056683274835584,     3.562279927092375,     0.000000000000000 ] # b
- [     0.000000000000000,     0.000000000000000,    16.000000000000000 ] # c
points:
- symbol: H  # 1
  coordinates: [  0.666666666666664,  0.333333333333336,  0.448625398373856 ]
  mass: 1.007940
- symbol: H  # 2
  coordinates: [  0.333333333333336,  0.666666666666664,  0.551374601626144 ]
  mass: 1.007940

phonon:
- q-position: [    0.0000000,    0.0000000,    0.0000000 ]
  distance:    0.0000000
  band:
  - # 1
    frequency:   -0.0016274027
    eigenvector:
    - # atom 1
      - [  0.00000000000000,  0.00000000000000 ]
      - [ -0.69434802007480,  0.00000000000000 ]
      - [ -0.13371920960805,  0.00000000000000 ]
    - # atom 2
      - [  0.00000000000000,  0.00000000000000 ]
      - [ -0.69434802007480,  0.00000000000000 ]
      - [ -0.13371920960805,  0.00000000000000 ]
  - # 2
    frequency:   -0.0010990490
    eigenvector:
    - # atom 1
      - [ -0.70710678118655,  0.00000000000000 ]
      - [  0.00000000000000,  0.00000000000000 ]
      - [  0.00000000000000,  0.00000000000000 ]
    - # atom 2
      - [ -0.70710678118655,  0.00000000000000 ]
      - [  0.00000000000000,  0.00000000000000 ]
      - [  0.00000000000000,  0.00000000000000 ]
  - # 3
    frequency:    0.0019637594
    eigenvector:
    - # atom 1
      - [  0.00000000000000,  0.00000000000000 ]
      - [  0.13371920960805,  0.00000000000000 ]
      - [ -0.69434802007480,  0.00000000000000 ]
    - # atom 2
      - [  0.00000000000000,  0.00000000000000 ]
      - [  0.13371920960805,  0.00000000000000 ]
      - [ -0.69434802007480,  0.00000000000000 ]
  - # 4
    frequency:   52.5543715896
    eigenvector:
    - # atom 1
      - [ -0.70710678118655,  0.00000000000000 ]
      - [  0.00000000000000,  0.00000000000000 ]
      - [  0.00000000000000,  0.00000000000000 ]
    - # atom 2
      - [  0.70710678118655,  0.00000000000000 ]
      - [  0.00000000000000,  0.00000000000000 ]
      - [  0.00000000000000,  0.00000000000000 ]
  - # 5
    frequency:   52.5543716011
    eigenvector:
    - # atom 1
      - [  0.00000000000000,  0.00000000000000 ]
      - [ -0.70710678118655,  0.00000000000000 ]
      - [  0.00000000051926,  0.00000000000000 ]
    - # atom 2
      - [  0.00000000000000,  0.00000000000000 ]
      - [  0.70710678118655,  0.00000000000000 ]
      - [ -0.00000000051926,  0.00000000000000 ]
  - # 6
    frequency:   66.3840076972
    eigenvector:
    - # atom 1
      - [  0.00000000000000,  0.00000000000000 ]
      - [  0.00000000051926,  0.00000000000000 ]
      - [  0.70710678118655,  0.00000000000000 ]
    - # atom 2
      - [  0.00000000000000,  0.00000000000000 ]
      - [ -0.00000000051926,  0.00000000000000 ]
      - [ -0.70710678118655,  0.00000000000000 ]

- q-position: [    0.0067340,   -0.0033670,    0.0000000 ]
  distance:    0.0016371
  band:
  - # 1
    frequency:    0.1132066259
    eigenvector:
    - # atom 1
      - [  0.00648806862917,  0.00000000000000 ]
      - [  0.00000000000399, -0.02488601094628 ]
      - [  0.00000000003849, -0.70663893992947 ]
    - # atom 2
      - [ -0.00648806862920, -0.00000000000072 ]
      - [  0.00000000000290, -0.02488601094628 ]
      - [  0.00000000003846, -0.70663893992947 ]
  - # 2
    frequency:    0.3289056106
    eigenvector:
    - # atom 1
      - [  0.00284342800858,  0.00000000000000 ]
      - [ -0.00000001520423, -0.70666205553009 ]
      - [  0.00000000053808,  0.02491293220702 ]
    - # atom 2
      - [ -0.00284342800859,  0.00000000012231 ]
      - [ -0.00000001520313, -0.70666205553009 ]
      - [  0.00000000053808,  0.02491293220702 ]
  - # 3
    frequency:    0.5334073236
    eigenvector:
    - # atom 1
      - [  0.70709021074323,  0.00000000000000 ]
      - [  0.00000000006111,  0.00307065081514 ]
      - [ -0.00000000000252,  0.00374232209480 ]
    - # atom 2
      - [  0.70709021074323, -0.00000000000102 ]
      - [  0.00000000006110, -0.00307065081515 ]
      - [ -0.00000000000252, -0.00374232209482 ]
  - # 4
    frequency:   52.5530927381
    eigenvector:
    - # atom 1
      - [ -0.00307098101188,  0.00000000000000 ]
      - [  0.00000001428209,  0.70710011040222 ]
      - [  0.00000000000110,  0.00005426590508 ]
    - # atom 2
      - [ -0.00307098101191,  0.00000000012405 ]
      - [ -0.00000001428102, -0.70710011040222 ]
      - [ -0.00000000000109, -0.00005426590508 ]
  - # 5
    frequency:   52.5546132278
    eigenvector:
    - # atom 1
      - [ -0.70707129759496,  0.00000000000000 ]
      - [ -0.00000000006203, -0.00307013569296 ]
      - [ -0.00000000000002, -0.00638391605551 ]
    - # atom 2
      - [  0.70707129759496, -0.00000000000107 ]
      - [  0.00000000006202, -0.00307013569299 ]
      - [  0.00000000000001, -0.00638391605551 ]
  - # 6
    frequency:   66.3798801307
    eigenvector:
    - # atom 1
      - [ -0.00374205113733,  0.00000000000000 ]
      - [ -0.00000000000032, -0.00007051762433 ]
      - [  0.00000000000230,  0.70709687602234 ]
    - # atom 2
      - [ -0.00374205113733,  0.00000000000002 ]
      - [ -0.00000000000032,  0.00007051762433 ]
      - [ -0.00000000000230, -0.70709687602234 ]

- q-position: [    0.0134680,   -0.0067340,    0.0000000 ]
  distance:    0.0032742
  band:
  - # 1
    frequency:    0.2263950090
    eigenvector:
    - # atom 1
      - [  0.01297421979678,  0.00000000000000 ]
      - [  0.00000000000141, -0.02481026076963 ]
      - [  0.00000000000597, -0.70655227731655 ]
    - # atom 2
      - [ -0.01297421979678, -0.00000000000022 ]
      - [ -0.00000000000076, -0.02481026076963 ]
      - [  0.00000000000592, -0.70655227731655 ]
  - # 2
    frequency:    0.6576856882
    eigenvector:
    - # atom 1
      - [  0.00568750345541,  0.00000000000000 ]
      - [ -0.00000000758409, -0.70664471153661 ]
      - [  0.00000000026751,  0.02491794457375 ]
    - # atom 2
      - [ -0.00568750345544,  0.00000000012206 ]
      - [ -0.00000000758189, -0.70664471153661 ]
      - [  0.00000000026751,  0.02491794457375 ]
  - # 3
    frequency:    1.0663894078
    eigenvector:
    - # atom 1
      - [  0.70704043309294,  0.00000000000000 ]
      - [  0.00000000006099,  0.00614436652555 ]
      - [ -0.00000000000227,  0.00748817279132 ]
    - # atom 2
      - [  0.70704043309294, -0.00000000000204 ]
      - [  0.00000000006098, -0.00614436652558 ]
      - [ -0.00000000000229, -0.00748817279132 ]
  - # 4
    frequency:   52.5492570834
    eigenvector:
    - # atom 1
      - [ -0.00614700909799,  0.00000000000000 ]
      - [  0.00000000703712,  0.70708002883665 ]
      - [  0.00000000000216,  0.00021702421287 ]
    - # atom 2
      - [ -0.00614700909804,  0.00000000012234 ]
      - [ -0.00000000703499, -0.70708002883665 ]
      - [ -0.00000000000216, -0.00021702421287 ]
  - # 5
    frequency:   52.5553375704
    eigenvector:
    - # atom 1
      - [ -0.70696486611791,  0.00000000000000 ]
      - [ -0.00000000006117, -0.00614024575066 ]
      - [ -0.00000000000008, -0.01276618412102 ]
    - # atom 2
      - [  0.70696486611791, -0.00000000000213 ]
      - [  0.00000000006115, -0.00614024575071 ]
      - [  0.00000000000004, -0.01276618412102 ]
  - # 6
    frequency:   66.3675051174
    eigenvector:
    - # atom 1
      - [ -0.00748600366699,  0.00000000000000 ]
      - [ -0.00000000000065, -0.00028209991057 ]
      - [  0.00000000000462,  0.70706709735975 ]
    - # atom 2
      - [ -0.00748600366699,  0.00000000000010 ]
      - [ -0.00000000000065,  0.00028209991057 ]
      - [ -0.00000000000462, -0.70706709735975 ]

- q-position: [    0.0202020,   -0.0101010,    0.0000000 ]
  distance:    0.0049113
  band:
  - # 1
    frequency:    0.3395998415
    eigenvector:
    - # atom 1
      - [  0.01945667328379,  0.00000000000000 ]
      - [  0.00000000000177, -0.02469533681454 ]
      - [  0.00000000000290, -0.70640751567657 ]
    - # atom 2
      - [ -0.01945667328380, -0.00000000000016 ]
      - [ -0.00000000000149, -0.02469533681454 ]
      - [  0.00000000000283, -0.70640751567657 ]
  - # 2
    frequency:    0.9862032218
    eigenvector:
    - # atom 1
      - [  0.00853256087681,  0.00000000000000 ]
      - [ -0.00000000507867, -0.70661539089191 ]
      - [  0.00000000017921,  0.02493761735929 ]
    - # atom 2
      - [ -0.00853256087682,  0.00000000012261 ]
      - [ -0.00000000507535, -0.70661539089191 ]
      - [  0.00000000017921,  0.02493761735929 ]
  - # 3
    frequency:    1.5985173542
    eigenvector:
    - # atom 1
      - [  0.70695724911516,  0.00000000000000 ]
      - [  0.00000000006128,  0.00922421019071 ]
      - [ -0.00000000000226,  0.01124107956901 ]
    - # atom 2
      - [  0.70695724911516, -0.00000000000307 ]
      - [  0.00000000006124, -0.00922421019072 ]
      - [ -0.00000000000231, -0.01124107956902 ]
  - # 4
    frequency:   52.5428674479
    eigenvector:
    - # atom 1
      - [ -0.00923313439171,  0.00000000000000 ]
      - [  0.00000000469058,  0.70704632870718 ]
      - [  0.00000000000324,  0.00048815059790 ]
    - # atom 2
      - [ -0.00923313439172,  0.00000000012246 ]
      - [ -0.00000000468739, -0.70704632870718 ]
      - [ -0.00000000000324, -0.00048815059790 ]
  - # 5
    frequency:   52.5565428963
    eigenvector:
    - # atom 1
      - [ -0.70678754464804,  0.00000000000000 ]
      - [ -0.00000000006123, -0.00921030370244 ]
      - [ -0.00000000000017, -0.01914515698807 ]
    - # atom 2
      - [  0.70678754464804, -0.00000000000320 ]
      - [  0.00000000006119, -0.00921030370245 ]
      - [  0.00000000000008, -0.01914515698807 ]
  - # 6
    frequency:   66.3469057026
    eigenvector:
    - # atom 1
      - [ -0.01123375061250,  0.00000000000000 ]
      - [ -0.00000000000098, -0.00063482915757 ]
      - [  0.00000000000694,  0.70701725568696 ]
    - # atom 2
      - [ -0.01123375061250,  0.00000000000022 ]
      - [ -0.00000000000097,  0.00063482915757 ]
      - [ -0.00000000000693, -0.70701725568696 ]

- q-position: [    0.0269360,   -0.0134680,    0.0000000 ]
  distance:    0.0065484
  band:
  - # 1
    frequency:    0.4528252020
    eigenvector:
    - # atom 1
      - [  0.02593355364889,  0.00000000000000 ]
      - [  0.00000000000223, -0.02453525549215 ]
      - [  0.00000000000117, -0.70620497876543 ]
    - # atom 2
      - [ -0.02593355364889, -0.00000000000008 ]
      - [ -0.00000000000212, -0.02453525549215 ]
      - [  0.00000000000108, -0.70620497876543 ]
  - # 2
    frequency:    1.3143291447
    eigenvector:
    - # atom 1
      - [  0.01137915273850,  0.00000000000000 ]
      - [ -0.00000000381768, -0.70657428195898 ]
      - [  0.00000000013483,  0.02496595596209 ]
    - # atom 2
      - [ -0.01137915273849,  0.00000000012289 ]
      - [ -0.00000000381326, -0.70657428195898 ]
      - [  0.00000000013484,  0.02496595596209 ]
  - # 3
    frequency:    2.1293648535
    eigenvector:
    - # atom 1
      - [  0.70684032641366,  0.00000000000000 ]
      - [  0.00000000006143,  0.01231324111946 ]
      - [ -0.00000000000225,  0.01500456759025 ]
    - # atom 2
      - [  0.70684032641366, -0.00000000000410 ]
      - [  0.00000000006136, -0.01231324111945 ]
      - [ -0.00000000000233, -0.01500456759025 ]
  - # 4
    frequency:   52.5339285415
    eigenvector:
    - # atom 1
      - [ -0.01233441299684,  0.00000000000000 ]
      - [  0.00000000350502,  0.70699866323167 ]
      - [  0.00000000000429,  0.00086743568132 ]
    - # atom 2
      - [ -0.01233441299686,  0.00000000012222 ]
      - [ -0.00000000350077, -0.70699866323167 ]
      - [ -0.00000000000430, -0.00086743568131 ]
  - # 5
    frequency:   52.5582263205
    eigenvector:
    - # atom 1
      - [ -0.70653942966978,  0.00000000000000 ]
      - [ -0.00000000006111, -0.01228028143333 ]
      - [ -0.00000000000030, -0.02551918905106 ]
    - # atom 2
      - [  0.70653942966978, -0.00000000000427 ]
      - [  0.00000000006103, -0.01228028143335 ]
      - [  0.00000000000015, -0.02551918905106 ]
  - # 6
    frequency:   66.3181202516
    eigenvector:
    - # atom 1
      - [ -0.01498716822683,  0.00000000000000 ]
      - [ -0.00000000000131, -0.00112884089767 ]
      - [  0.00000000000927,  0.70694703514957 ]
    - # atom 2
      - [ -0.01498716822683,  0.00000000000039 ]
      - [ -0.00000000000128,  0.00112884089767 ]
      - [ -0.00000000000925, -0.70694703514957 ]

- q-position: [    0.0336700,   -0.0168350,    0.0000000 ]
  distance:    0.0081855
  band:
  - # 1
    frequency:    0.5660810791
    eigenvector:
    - # atom 1
      - [  0.03240298323758,  0.00000000000000 ]
      - [  0.00000000000272, -0.02432862540652 ]
      - [  0.00000000000003, -0.70594487367155 ]
    - # atom 2
      - [ -0.03240298323759,  0.00000000000000 ]
      - [ -0.00000000000271, -0.02432862540652 ]
      - [ -0.00000000000009, -0.70594487367155 ]
  - # 2
    frequency:    1.6419345626
    eigenvector:
    - # atom 1
      - [  0.01422783773082,  0.00000000000000 ]
      - [ -0.00000000306702, -0.70652140160724 ]
      - [  0.00000000010843,  0.02500155404075 ]
    - # atom 2
      - [ -0.01422783773082,  0.00000000012341 ]
      - [ -0.00000000306147, -0.70652140160724 ]
      - [  0.00000000010845,  0.02500155404075 ]
  - # 3
    frequency:    2.6585057175
    eigenvector:
    - # atom 1
      - [  0.70668919853255,  0.00000000000000 ]
      - [  0.00000000006171,  0.01541451279723 ]
      - [ -0.00000000000223,  0.01878215835970 ]
    - # atom 2
      - [  0.70668919853255, -0.00000000000513 ]
      - [  0.00000000006159, -0.01541451279724 ]
      - [ -0.00000000000237, -0.01878215835971 ]
  - # 4
    frequency:   52.5224470118
    eigenvector:
    - # atom 1
      - [ -0.01545590960218,  0.00000000000000 ]
      - [  0.00000000278729,  0.70693654593005 ]
      - [  0.00000000000532,  0.00135457995822 ]
    - # atom 2
      - [ -0.01545590960218,  0.00000000012176 ]
      - [ -0.00000000278198, -0.70693654593005 ]
      - [ -0.00000000000535, -0.00135457995822 ]
  - # 5
    frequency:   52.5603837690
    eigenvector:
    - # atom 1
      - [ -0.70622065624761,  0.00000000000000 ]
      - [ -0.00000000006088, -0.01535014842849 ]
      - [ -0.00000000000047, -0.03188663720766 ]
    - # atom 2
      - [  0.70622065624761, -0.00000000000533 ]
      - [  0.00000000006076, -0.01535014842848 ]
      - [  0.00000000000023, -0.03188663720766 ]
  - # 6
    frequency:   66.2812023847
    eigenvector:
    - # atom 1
      - [ -0.01874810752567,  0.00000000000000 ]
      - [ -0.00000000000165, -0.00176431961898 ]
      - [  0.00000000001161,  0.70685599356622 ]
    - # atom 2
      - [ -0.01874810752567,  0.00000000000061 ]
      - [ -0.00000000000159,  0.00176431961898 ]
      - [ -0.00000000001157, -0.70685599356622 ]

- q-position: [    0.0404040,   -0.0202020,    0.0000000 ]
  distance:    0.0098226
  band:
  - # 1
    frequency:    0.6793816514
    eigenvector:
    - # atom 1
      - [  0.03886307179061,  0.00000000000000 ]
      - [  0.00000000000319, -0.02407436021347 ]
      - [ -0.00000000000099, -0.70562744194887 ]
    - # atom 2
      - [ -0.03886307179061,  0.00000000000012 ]
      - [ -0.00000000000332, -0.02407436021347 ]
      - [ -0.00000000000113, -0.70562744194887 ]
  - # 2
    frequency:    1.9688916318
    eigenvector:
    - # atom 1
      - [  0.01707920527470,  0.00000000000000 ]
      - [ -0.00000000256334, -0.70645674568874 ]
      - [  0.00000000009070,  0.02504330685164 ]
    - # atom 2
      - [ -0.01707920527470,  0.00000000012378 ]
      - [ -0.00000000255665, -0.70645674568874 ]
      - [  0.00000000009074,  0.02504330685164 ]
  - # 3
    frequency:    3.1855141885
    eigenvector:
    - # atom 1
      - [  0.70650326387789,  0.00000000000000 ]
      - [  0.00000000006191,  0.01853107057515 ]
      - [ -0.00000000000221,  0.02257736816424 ]
    - # atom 2
      - [  0.70650326387789, -0.00000000000617 ]
      - [  0.00000000006175, -0.01853107057516 ]
      - [ -0.00000000000241, -0.02257736816424 ]
  - # 4
    frequency:   52.5084314978
    eigenvector:
    - # atom 1
      - [ -0.01860269964728,  0.00000000000000 ]
      - [  0.00000000230973,  0.70685934968297 ]
      - [  0.00000000000633,  0.00194918742253 ]
    - # atom 2
      - [ -0.01860269964728,  0.00000000012140 ]
      - [ -0.00000000230336, -0.70685934968297 ]
      - [ -0.00000000000639, -0.00194918742253 ]
  - # 5
    frequency:   52.5630099447
    eigenvector:
    - # atom 1
      - [ -0.70583139799685,  0.00000000000000 ]
      - [ -0.00000000006069, -0.01841987109599 ]
      - [ -0.00000000000068, -0.03824586187582 ]
    - # atom 2
      - [  0.70583139799685, -0.00000000000640 ]
      - [  0.00000000006053, -0.01841987109599 ]
      - [  0.00000000000034, -0.03824586187582 ]
  - # 6
    frequency:   66.2362208844
    eigenvector:
    - # atom 1
      - [ -0.02251838572629,  0.00000000000000 ]
      - [ -0.00000000000200, -0.00254149348093 ]
      - [  0.00000000001397,  0.70674356248583 ]
    - # atom 2
      - [ -0.02251838572630,  0.00000000000089 ]
      - [ -0.00000000000190,  0.00254149348093 ]
      - [ -0.00000000001390, -0.70674356248583 ]

- q-position: [    0.0471380,   -0.0235690,    0.0000000 ]
  distance:    0.0114597
  band:
  - # 1
    frequency:    0.7927457511
    eigenvector:
    - # atom 1
      - [  0.04531191226172,  0.00000000000000 ]
      - [  0.00000000000372, -0.02377128215772 ]
      - [ -0.00000000000176, -0.70525297358591 ]
    - # atom 2
      - [ -0.04531191226173,  0.00000000000024 ]
      - [ -0.00000000000387, -0.02377128215772 ]
      - [ -0.00000000000191, -0.70525297358591 ]
  - # 2
    frequency:    2.2950739303
    eigenvector:
    - # atom 1
      - [  0.01993388618747,  0.00000000000000 ]
      - [ -0.00000000220485, -0.70638030218017 ]
      - [  0.00000000007813,  0.02509001541074 ]
    - # atom 2
      - [ -0.01993388618747,  0.00000000012422 ]
      - [ -0.00000000219702, -0.70638030218017 ]
      - [  0.00000000007820,  0.02509001541074 ]
  - # 3
    frequency:    3.7099650900
    eigenvector:
    - # atom 1
      - [  0.70628178436389,  0.00000000000000 ]
      - [  0.00000000006215,  0.02166594904025 ]
      - [ -0.00000000000219,  0.02639370621830 ]
    - # atom 2
      - [  0.70628178436389, -0.00000000000722 ]
      - [  0.00000000006193, -0.02166594904026 ]
      - [ -0.00000000000246, -0.02639370621831 ]
  - # 4
    frequency:   52.4918926989
    eigenvector:
    - # atom 1
      - [ -0.02177987088445,  0.00000000000000 ]
      - [  0.00000000196749,  0.70676630558454 ]
      - [  0.00000000000732,  0.00265075737161 ]
    - # atom 2
      - [ -0.02177987088445,  0.00000000012103 ]
      - [ -0.00000000196007, -0.70676630558454 ]
      - [ -0.00000000000741, -0.00265075737161 ]
  - # 5
    frequency:   52.5660982853
    eigenvector:
    - # atom 1
      - [ -0.70537186702381,  0.00000000000000 ]
      - [ -0.00000000006050, -0.02148941219355 ]
      - [ -0.00000000000093, -0.04459522816317 ]
    - # atom 2
      - [  0.70537186702381, -0.00000000000748 ]
      - [  0.00000000006028, -0.02148941219355 ]
      - [  0.00000000000046, -0.04459522816317 ]
  - # 6
    frequency:   66.1832595756
    eigenvector:
    - # atom 1
      - [ -0.02629977756578,  0.00000000000000 ]
      - [ -0.00000000000236, -0.00346062748235 ]
      - [  0.00000000001635,  0.70660904732208 ]
    - # atom 2
      - [ -0.02629977756578,  0.00000000000121 ]
      - [ -0.00000000000220,  0.00346062748235 ]
      - [ -0.00000000001624, -0.70660904732208 ]

- q-position: [    0.0538721,   -0.0269360,    0.0000000 ]
  distance:    0.0130968
  band:
  - # 1
    frequency:    0.9061975500
    eigenvector:
    - # atom 1
      - [  0.05174757759805,  0.00000000000000 ]
      - [  0.00000000000424, -0.02341804813339 ]
      - [ -0.00000000000247, -0.70482180956207 ]
    - # atom 2
      - [ -0.05174757759805,  0.00000000000038 ]
      - [ -0.00000000000443, -0.02341804813339 ]
      - [ -0.00000000000264, -0.70482180956207 ]
  - # 2
    frequency:    2.6203567627
    eigenvector:
    - # atom 1
      - [  0.02279256154922,  0.00000000000000 ]
      - [ -0.00000000193525, -0.70629205275412 ]
      - [  0.00000000006867,  0.02514031333120 ]
    - # atom 2
      - [ -0.02279256154922,  0.00000000012461 ]
      - [ -0.00000000192626, -0.70629205275412 ]
      - [  0.00000000006877,  0.02514031333120 ]
  - # 3
    frequency:    4.2314339625
    eigenvector:
    - # atom 1
      - [  0.70602388380949,  0.00000000000000 ]
      - [  0.00000000006237,  0.02482216898494 ]
      - [ -0.00000000000216,  0.03023467243832 ]
    - # atom 2
      - [  0.70602388380949, -0.00000000000826 ]
      - [  0.00000000006208, -0.02482216898494 ]
      - [ -0.00000000000252, -0.03023467243832 ]
  - # 4
    frequency:   52.4728434597
    eigenvector:
    - # atom 1
      - [ -0.02499252417661,  0.00000000000000 ]
      - [  0.00000000170969,  0.70665650163761 ]
      - [  0.00000000000828,  0.00345867439534 ]
    - # atom 2
      - [ -0.02499252417660,  0.00000000012063 ]
      - [ -0.00000000170121, -0.70665650163761 ]
      - [ -0.00000000000841, -0.00345867439534 ]
  - # 5
    frequency:   52.5696409125
    eigenvector:
    - # atom 1
      - [ -0.70484231381974,  0.00000000000000 ]
      - [ -0.00000000006030, -0.02455873038226 ]
      - [ -0.00000000000122, -0.05093310722166 ]
    - # atom 2
      - [  0.70484231381974, -0.00000000000856 ]
      - [  0.00000000006000, -0.02455873038225 ]
      - [  0.00000000000060, -0.05093310722166 ]
  - # 6
    frequency:   66.1224171769
    eigenvector:
    - # atom 1
      - [ -0.03009400647722,  0.00000000000000 ]
      - [ -0.00000000000273, -0.00452201505684 ]
      - [  0.00000000001875,  0.70645162761082 ]
    - # atom 2
      - [ -0.03009400647722,  0.00000000000159 ]
      - [ -0.00000000000249,  0.00452201505684 ]
      - [ -0.00000000001860, -0.70645162761082 ]

- q-position: [    0.0606061,   -0.0303030,    0.0000000 ]
  distance:    0.0147339
  band:
  - # 1
    frequency:    1.0197672423
    eigenvector:
    - # atom 1
      - [  0.05816811792760,  0.00000000000000 ]
      - [  0.00000000000476, -0.02301313147394 ]
      - [ -0.00000000000315, -0.70433434236627 ]
    - # atom 2
      - [ -0.05816811792760,  0.00000000000054 ]
      - [ -0.00000000000498, -0.02301313147394 ]
      - [ -0.00000000000334, -0.70433434236627 ]
  - # 2
    frequency:    2.9446174465
    eigenvector:
    - # atom 1
      - [  0.02565597109291,  0.00000000000000 ]
      - [ -0.00000000172734, -0.70619197216898 ]
      - [  0.00000000006136,  0.02519264955026 ]
    - # atom 2
      - [ -0.02565597109291,  0.00000000012514 ]
      - [ -0.00000000171717, -0.70619197216898 ]
      - [  0.00000000006150,  0.02519264955026 ]
  - # 3
    frequency:    4.7494972010
    eigenvector:
    - # atom 1
      - [  0.70572854611761,  0.00000000000000 ]
      - [  0.00000000006267,  0.02800273389234 ]
      - [ -0.00000000000213,  0.03410375476807 ]
    - # atom 2
      - [  0.70572854611761, -0.00000000000932 ]
      - [  0.00000000006230, -0.02800273389234 ]
      - [ -0.00000000000258, -0.03410375476807 ]
  - # 4
    frequency:   52.4512988709
    eigenvector:
    - # atom 1
      - [ -0.02824577336524,  0.00000000000000 ]
      - [  0.00000000150786,  0.70652888135181 ]
      - [  0.00000000000921,  0.00437219655969 ]
    - # atom 2
      - [ -0.02824577336524,  0.00000000012018 ]
      - [ -0.00000000149833, -0.70652888135181 ]
      - [ -0.00000000000939, -0.00437219655969 ]
  - # 5
    frequency:   52.5736285753
    eigenvector:
    - # atom 1
      - [ -0.70424302708940,  0.00000000000000 ]
      - [ -0.00000000006006, -0.02762777992972 ]
      - [ -0.00000000000155, -0.05725787781706 ]
    - # atom 2
      - [  0.70424302708940, -0.00000000000965 ]
      - [  0.00000000005969, -0.02762777992973 ]
      - [  0.00000000000076, -0.05725787781706 ]
  - # 6
    frequency:   66.0538071219
    eigenvector:
    - # atom 1
      - [ -0.03390273560828,  0.00000000000000 ]
      - [ -0.00000000000311, -0.00572596806765 ]
      - [  0.00000000002118,  0.70627035744675 ]
    - # atom 2
      - [ -0.03390273560828,  0.00000000000202 ]
      - [ -0.00000000000277,  0.00572596806765 ]
      - [ -0.00000000002096, -0.70627035744675 ]

- q-position: [    0.0673401,   -0.0336700,    0.0000000 ]
  distance:    0.0163710
  band:
  - # 1
    frequency:    1.1334916675
    eigenvector:
    - # atom 1
      - [  0.06457155806298,  0.00000000000000 ]
      - [  0.00000000000528, -0.02255481776394 ]
      - [ -0.00000000000376, -0.70379101591662 ]
    - # atom 2
      - [ -0.06457155806299,  0.00000000000071 ]
      - [ -0.00000000000553, -0.02255481776394 ]
      - [ -0.00000000000397, -0.70379101591662 ]
  - # 2
    frequency:    3.2677355905
    eigenvector:
    - # atom 1
      - [  0.02852492137006,  0.00000000000000 ]
      - [ -0.00000000156174, -0.70608002693296 ]
      - [  0.00000000005554,  0.02524528524648 ]
    - # atom 2
      - [ -0.02852492137006,  0.00000000012573 ]
      - [ -0.00000000155038, -0.70608002693296 ]
      - [  0.00000000005572,  0.02524528524648 ]
  - # 3
    frequency:    5.2637321988
    eigenvector:
    - # atom 1
      - [  0.70539461327697,  0.00000000000000 ]
      - [  0.00000000006299,  0.03121062585302 ]
      - [ -0.00000000000210,  0.03800442597506 ]
    - # atom 2
      - [  0.70539461327697, -0.00000000001038 ]
      - [  0.00000000006253, -0.03121062585302 ]
      - [ -0.00000000000266, -0.03800442597506 ]
  - # 4
    frequency:   52.4272763850
    eigenvector:
    - # atom 1
      - [ -0.03154474403661,  0.00000000000000 ]
      - [  0.00000000134520,  0.70638224231703 ]
      - [  0.00000000001010,  0.00539044180249 ]
    - # atom 2
      - [ -0.03154474403662,  0.00000000011967 ]
      - [ -0.00000000133463, -0.70638224231703 ]
      - [ -0.00000000001035, -0.00539044180249 ]
  - # 5
    frequency:   52.5780505868
    eigenvector:
    - # atom 1
      - [ -0.70357433349302,  0.00000000000000 ]
      - [ -0.00000000005980, -0.03069651058311 ]
      - [ -0.00000000000192, -0.06356792813888 ]
    - # atom 2
      - [  0.70357433349302, -0.00000000001075 ]
      - [  0.00000000005933, -0.03069651058312 ]
      - [  0.00000000000095, -0.06356792813888 ]
  - # 6
    frequency:   65.9775573496
    eigenvector:
    - # atom 1
      - [ -0.03772755867394,  0.00000000000000 ]
      - [ -0.00000000000350, -0.00707280517365 ]
      - [  0.00000000002364,  0.70606416616585 ]
    - # atom 2
      - [ -0.03772755867394,  0.00000000000251 ]
      - [ -0.00000000000303,  0.00707280517365 ]
      - [ -0.00000000002334, -0.70606416616585 ]

- q-position: [    0.0740741,   -0.0370370,    0.0000000 ]
  distance:    0.0180081
  band:
  - # 1
    frequency:    1.2474148537
    eigenvector:
    - # atom 1
      - [  0.07095589530984,  0.00000000000000 ]
      - [  0.00000000000579, -0.02204120520727 ]
      - [ -0.00000000000436, -0.70319232518123 ]
    - # atom 2
      - [ -0.07095589530984,  0.00000000000090 ]
      - [ -0.00000000000608, -0.02204120520727 ]
      - [ -0.00000000000457, -0.70319232518123 ]
  - # 2
    frequency:    3.5895933658
    eigenvector:
    - # atom 1
      - [  0.03140029374885,  0.00000000000000 ]
      - [ -0.00000000142713, -0.70595617355961 ]
      - [  0.00000000005078,  0.02529629549089 ]
    - # atom 2
      - [ -0.03140029374885,  0.00000000012640 ]
      - [ -0.00000000141456, -0.70595617355961 ]
      - [  0.00000000005103,  0.02529629549089 ]
  - # 3
    frequency:    5.7737174996
    eigenvector:
    - # atom 1
      - [  0.70502078323415,  0.00000000000000 ]
      - [  0.00000000006337,  0.03444880082732 ]
      - [ -0.00000000000206,  0.04194013983607 ]
    - # atom 2
      - [  0.70502078323415, -0.00000000001146 ]
      - [  0.00000000006281, -0.03444880082731 ]
      - [ -0.00000000000274, -0.04194013983607 ]
  - # 4
    frequency:   52.4007959488
    eigenvector:
    - # atom 1
      - [ -0.03489457100764,  0.00000000000000 ]
      - [  0.00000000121065,  0.70621523483829 ]
      - [  0.00000000001095,  0.00651237257047 ]
    - # atom 2
      - [ -0.03489457100765,  0.00000000011906 ]
      - [ -0.00000000119903, -0.70621523483829 ]
      - [ -0.00000000001127, -0.00651237257047 ]
  - # 5
    frequency:   52.5828947578
    eigenvector:
    - # atom 1
      - [ -0.70283659727796,  0.00000000000000 ]
      - [ -0.00000000005948, -0.03376486763023 ]
      - [ -0.00000000000233, -0.06986165787217 ]
    - # atom 2
      - [  0.70283659727796, -0.00000000001185 ]
      - [  0.00000000005892, -0.03376486763023 ]
      - [  0.00000000000115, -0.06986165787217 ]
  - # 6
    frequency:   65.8938100617
    eigenvector:
    - # atom 1
      - [ -0.04156999064351,  0.00000000000000 ]
      - [ -0.00000000000391, -0.00856283854012 ]
      - [  0.00000000002614,  0.70583185935039 ]
    - # atom 2
      - [ -0.04156999064351,  0.00000000000305 ]
      - [ -0.00000000000328,  0.00856283854012 ]
      - [ -0.00000000002573, -0.70583185935039 ]

- q-position: [    0.0808081,   -0.0404040,    0.0000000 ]
  distance:    0.0196452
  band:
  - # 1
    frequency:    1.3615884643
    eigenvector:
    - # atom 1
      - [  0.07731909758322,  0.00000000000000 ]
      - [  0.00000000000630, -0.02147020682074 ]
      - [ -0.00000000000493, -0.70253881555968 ]
    - # atom 2
      - [ -0.07731909758322,  0.00000000000111 ]
      - [ -0.00000000000664, -0.02147020682074 ]
      - [ -0.00000000000515, -0.70253881555968 ]
  - # 2
    frequency:    3.9100757716
    eigenvector:
    - # atom 1
      - [  0.03428305225214,  0.00000000000000 ]
      - [ -0.00000000131575, -0.70582035649335 ]
      - [  0.00000000004682,  0.02534357291070 ]
    - # atom 2
      - [ -0.03428305225215,  0.00000000012715 ]