mesh: [    48,    48,     1 ]
nqpoint: 217    
reciprocal_lattice:
- [   0.24310987,   0.14035955,   0.00000000 ] # a*
- [   0.00000000,   0.28071910,   0.00000000 ] # b*
- [   0.00000000,   0.00000000,   0.06250000 ] # c*
natom:   2      
lattice:
- [     4.113366549671167,     0.000000000000000,     0.000000000000000 ] # a
- [    -2.056683274835584,     3.562279927092375,     0.000000000000000 ] # b
- [     0.000000000000000,     0.000000000000000,    16.000000000000000 ] # c
points:
- symbol: H  # 1
  coordinates: [  0.666666666666664,  0.333333333333336,  0.448625398373856 ]
  mass: 1.007940
- symbol: H  # 2
  coordinates: [  0.333333333333336,  0.666666666666664,  0.551374601626144 ]
  mass: 1.007940

phonon:
- q-position: [    0.0000000,    0.0000000,    0.0000000 ]
  distance_from_gamma:  0.000000000
  weight: 1    
  band:
  - # 1
    frequency:    -0.0016274026
  - # 2
    frequency:    -0.0010990490
  - # 3
    frequency:     0.0019637594
  - # 4
    frequency:    52.5543715896
  - # 5
    frequency:    52.5543716011
  - # 6
    frequency:    66.3840076972

- q-position: [    0.0208333,    0.0000000,    0.0000000 ]
  distance_from_gamma:  0.005848314
  weight: 6    
  band:
  - # 1
    frequency:     0.4056121644
  - # 2
    frequency:     1.1723563557
  - # 3
    frequency:     1.9033287175
  - # 4
    frequency:    52.5380814525
  - # 5
    frequency:    52.5574294564
  - # 6
    frequency:    66.3314290346

- q-position: [    0.0416667,    0.0000000,    0.0000000 ]
  distance_from_gamma:  0.011696629
  weight: 6    
  band:
  - # 1
    frequency:     0.8115264244
  - # 2
    frequency:     2.3323962221
  - # 3
    frequency:     3.7911355440
  - # 4
    frequency:    52.4895862722
  - # 5
    frequency:    52.5662844739
  - # 6
    frequency:    66.1749458923

- q-position: [    0.0625000,    0.0000000,    0.0000000 ]
  distance_from_gamma:  0.017544943
  weight: 6    
  band:
  - # 1
    frequency:     1.2183353765
  - # 2
    frequency:     3.4679661346
  - # 3
    frequency:     5.6479299251
  - # 4
    frequency:    52.4100058088
  - # 5
    frequency:    52.5799733486
  - # 6
    frequency:    65.9183209409

- q-position: [    0.0833333,    0.0000000,    0.0000000 ]
  distance_from_gamma:  0.023393258
  weight: 6    
  band:
  - # 1
    frequency:     1.6271509936
  - # 2
    frequency:     4.5672509763
  - # 3
    frequency:     7.4582871101
  - # 4
    frequency:    52.3011854657
  - # 5
    frequency:    52.5968661953
  - # 6
    frequency:    65.5678376340

- q-position: [    0.1041667,    0.0000000,    0.0000000 ]
  distance_from_gamma:  0.029241572
  weight: 6    
  band:
  - # 1
    frequency:     2.0398214250
  - # 2
    frequency:     5.6189511084
  - # 3
    frequency:     9.2068801541
  - # 4
    frequency:    52.1656623973
  - # 5
    frequency:    52.6146334936
  - # 6
    frequency:    65.1323128501

- q-position: [    0.1250000,    0.0000000,    0.0000000 ]
  distance_from_gamma:  0.035089887
  weight: 6    
  band:
  - # 1
    frequency:     2.4590660810
  - # 2
    frequency:     6.6124744313
  - # 3
    frequency:    10.8785167135
  - # 4
    frequency:    52.0066132348
  - # 5
    frequency:    52.6302091039
  - # 6
    frequency:    64.6230998200

- q-position: [    0.1458333,    0.0000000,    0.0000000 ]
  distance_from_gamma:  0.040938201
  weight: 6    
  band:
  - # 1
    frequency:     2.8885169548
  - # 2
    frequency:     7.5381442616
  - # 3
    frequency:    12.4581868243
  - # 4
    frequency:    51.8277796903
  - # 5
    frequency:    52.6397644083
  - # 6
    frequency:    64.0540588153

- q-position: [    0.1666667,    0.0000000,    0.0000000 ]
  distance_from_gamma:  0.046786516
  weight: 6    
  band:
  - # 1
    frequency:     3.3326467680
  - # 2
    frequency:     8.3874248627
  - # 3
    frequency:    13.9311345382
  - # 4
    frequency:    51.6333687787
  - # 5
    frequency:    52.6387226396
  - # 6
    frequency:    63.4414542697

- q-position: [    0.1875000,    0.0000000,    0.0000000 ]
  distance_from_gamma:  0.052634830
  weight: 6    
  band:
  - # 1
    frequency:     3.7965749323
  - # 2
    frequency:     9.1531638445
  - # 3
    frequency:    15.2829735280
  - # 4
    frequency:    51.4279260497
  - # 5
    frequency:    52.6218648582
  - # 6
    frequency:    62.8037082661

- q-position: [    0.2083333,    0.0000000,    0.0000000 ]
  distance_from_gamma:  0.058483145
  weight: 6    
  band:
  - # 1
    frequency:     4.2857570467
  - # 2
    frequency:     9.8298468801
  - # 3
    frequency:    16.4998750272
  - # 4
    frequency:    51.2161831457
  - # 5
    frequency:    52.5836084218
  - # 6
    frequency:    62.1609037929

- q-position: [    0.2291667,    0.0000000,    0.0000000 ]
  distance_from_gamma:  0.064331459
  weight: 6    
  band:
  - # 1
    frequency:     4.8055800411
  - # 2
    frequency:    10.4138551820
  - # 3
    frequency:    17.5688637708
  - # 4
    frequency:    51.0028850426
  - # 5
    frequency:    52.5185618098
  - # 6
    frequency:    61.5339022762

- q-position: [    0.2500000,    0.0000000,    0.0000000 ]
  distance_from_gamma:  0.070179774
  weight: 6    
  band:
  - # 1
    frequency:     5.3608978683
  - # 2
    frequency:    10.9037102794
  - # 3
    frequency:    18.4782601702
  - # 4
    frequency:    50.7926069521
  - # 5
    frequency:    52.4224392805
  - # 6
    frequency:    60.9429597804

- q-position: [    0.2708333,    0.0000000,    0.0000000 ]
  distance_from_gamma:  0.076028088
  weight: 6    
  band:
  - # 1
    frequency:     5.9555461550
  - # 2
    frequency:    11.3002845251
  - # 3
    frequency:    19.2182991826
  - # 4
    frequency:    50.5895751406
  - # 5
    frequency:    52.2932954408
  - # 6
    frequency:    60.4058607150

- q-position: [    0.2916667,    0.0000000,    0.0000000 ]
  distance_from_gamma:  0.081876403
  weight: 6    
  band:
  - # 1
    frequency:     6.5918647724
  - # 2
    frequency:    11.6069504074
  - # 3
    frequency:    19.7819327135
  - # 4
    frequency:    50.3975086336
  - # 5
    frequency:    52.1327841864
  - # 6
    frequency:    59.9358727183

- q-position: [    0.3125000,    0.0000000,    0.0000000 ]
  distance_from_gamma:  0.087724717
  weight: 6    
  band:
  - # 1
    frequency:     7.2702343247
  - # 2
    frequency:    11.8296381415
  - # 3
    frequency:    20.1657825510
  - # 4
    frequency:    50.2194988006
  - # 5
    frequency:    51.9468738857
  - # 6
    frequency:    59.5401487484

- q-position: [    0.3333333,    0.0000000,    0.0000000 ]
  distance_from_gamma:  0.093573032
  weight: 6    
  band:
  - # 1
    frequency:     7.9885967884
  - # 2
    frequency:    11.9767698743
  - # 3
    frequency:    20.3711675018
  - # 4
    frequency:    50.0579405300
  - # 5
    frequency:    51.7454523294
  - # 6
    frequency:    59.2192625176

- q-position: [    0.3541667,    0.0000000,    0.0000000 ]
  distance_from_gamma:  0.099421346
  weight: 6    
  band:
  - # 1
    frequency:     8.7418790798
  - # 2
    frequency:    12.0590405500
  - # 3
    frequency:    20.4051140116
  - # 4
    frequency:    49.9145223953
  - # 5
    frequency:    51.5407263545
  - # 6
    frequency:    58.9681418885

- q-position: [    0.3750000,    0.0000000,    0.0000000 ]
  distance_from_gamma:  0.105269661
  weight: 6    
  band:
  - # 1
    frequency:     9.5211569539
  - # 2
    frequency:    12.0890204231
  - # 3
    frequency:    20.2813250211
  - # 4
    frequency:    49.7902751271
  - # 5
    frequency:    51.3449936090
  - # 6
    frequency:    58.7779975728

- q-position: [    0.3958333,    0.0000000,    0.0000000 ]
  distance_from_gamma:  0.111117975
  weight: 6    
  band:
  - # 1
    frequency:    10.3122488081
  - # 2
    frequency:    12.0805634473
  - # 3
    frequency:    20.0212861394
  - # 4
    frequency:    49.6856696742
  - # 5
    frequency:    51.1686772353
  - # 6
    frequency:    58.6384704819

- q-position: [    0.4166667,    0.0000000,    0.0000000 ]
  distance_from_gamma:  0.116966290
  weight: 6    
  band:
  - # 1
    frequency:    11.0931467264
  - # 2
    frequency:    12.0480216650
  - # 3
    frequency:    19.6560863265
  - # 4
    frequency:    49.6007499734
  - # 5
    frequency:    51.0192520243
  - # 6
    frequency:    58.5393685138

- q-position: [    0.4375000,    0.0000000,    0.0000000 ]
  distance_from_gamma:  0.122814604
  weight: 6    
  band:
  - # 1
    frequency:    11.8292363772
  - # 2
    frequency:    12.0052913202
  - # 3
    frequency:    19.2301129253
  - # 4
    frequency:    49.5352823592
  - # 5
    frequency:    50.9011644381
  - # 6
    frequency:    58.4717668430

- q-position: [    0.4583333,    0.0000000,    0.0000000 ]
  distance_from_gamma:  0.128662919
  weight: 6    
  band:
  - # 1
    frequency:    11.9647529619
  - # 2
    frequency:    12.4651947704
  - # 3
    frequency:    18.8079267983
  - # 4
    frequency:    49.4889034838
  - # 5
    frequency:    50.8164573400
  - # 6
    frequency:    58.4285589141

- q-position: [    0.4791667,    0.0000000,    0.0000000 ]
  distance_from_gamma:  0.134511233
  weight: 6    
  band:
  - # 1
    frequency:    11.9362106182
  - # 2
    frequency:    12.9167458423
  - # 3
    frequency:    18.4813461790
  - # 4
    frequency:    49.4612509832
  - # 5
    frequency:    50.7656883421
  - # 6
    frequency:    58.4046576720

- q-position: [    0.5000000,    0.0000000,    0.0000000 ]
  distance_from_gamma:  0.140359548
  weight: 3    
  band:
  - # 1
    frequency:    11.9259707476
  - # 2
    frequency:    13.0840633856
  - # 3
    frequency:    18.3551165142
  - # 4
    frequency:    49.4520647962
  - # 5
    frequency:    50.7487953431
  - # 6
    frequency:    58.3970265146

- q-position: [    0.0208333,    0.0208333,    0.0000000 ]
  distance_from_gamma:  0.010129578
  weight: 6    
  band:
  - # 1
    frequency:     0.7006319536
  - # 2
    frequency:     2.0301138180
  - # 3
    frequency:     3.2840562290
  - # 4
    frequency:    52.5055223102
  - # 5
    frequency:    52.5635540325
  - # 6
    frequency:    66.2268957019

- q-position: [    0.0416667,    0.0208333,    0.0000000 ]
  distance_from_gamma:  0.015473186
  weight: 12   
  band:
  - # 1
    frequency:     1.0719579592
  - # 2
    frequency:     3.0844086801
  - # 3
    frequency:     4.9858670260
  - # 4
    frequency:    52.4410165752
  - # 5
    frequency:    52.5753072851
  - # 6
    frequency:    66.0203221732

- q-position: [    0.0625000,    0.0208333,    0.0000000 ]
  distance_from_gamma:  0.021086398
  weight: 12   
  band:
  - # 1
    frequency:     1.4641181867
  - # 2
    frequency:     4.1617304542
  - # 3
    frequency:     6.7371177198
  - # 4
    frequency:    52.3461067035
  - # 5
    frequency:    52.5913535571
  - # 6
    frequency:    65.7167021304

- q-position: [    0.0833333,    0.0208333,    0.0000000 ]
  distance_from_gamma:  0.026800344
  weight: 12   
  band:
  - # 1
    frequency:     1.8663982263
  - # 2
    frequency:     5.2168958776
  - # 3
    frequency:     8.4674323435
  - # 4
    frequency:    52.2230193141
  - # 5
    frequency:    52.6097102788
  - # 6
    frequency:    65.3235416225

- q-position: [    0.1041667,    0.0208333,    0.0000000 ]
  distance_from_gamma:  0.032562037
  weight: 12   
  band:
  - # 1
    frequency:     2.2773827989
  - # 2
    frequency:     6.2284332761
  - # 3
    frequency:    10.1442709903
  - # 4
    frequency:    52.0746484589
  - # 5
    frequency:    52.6276869888
  - # 6
    frequency:    64.8508677303

- q-position: [    0.1250000,    0.0208333,    0.0000000 ]
  distance_from_gamma:  0.038349963
  weight: 12   
  band:
  - # 1
    frequency:     2.6987610771
  - # 2
    frequency:     7.1819062615
  - # 3
    frequency:    11.7455451268
  - # 4
    frequency:    51.9044995023
  - # 5
    frequency:    52.6418451338
  - # 6
    frequency:    64.3112183781

- q-position: [    0.1458333,    0.0208333,    0.0000000 ]
  distance_from_gamma:  0.044153806
  weight: 12   
  band:
  - # 1
    frequency:     3.1338463161
  - # 2
    frequency:     8.0661120502
  - # 3
    frequency:    13.2530588323
  - # 4
    frequency:    51.7166039355
  - # 5
    frequency:    52.6479847120
  - # 6
    frequency:    63.7195833955

- q-position: [    0.1666667,    0.0208333,    0.0000000 ]
  distance_from_gamma:  0.049968021
  weight: 12   
  band:
  - # 1
    frequency:     3.5869911197
  - # 2
    frequency:     8.8720450127
  - # 3
    frequency:    14.6504978324
  - # 4
    frequency:    51.5154062137
  - # 5
    frequency:    52.6411917032
  - # 6
    frequency:    63.0932438516

- q-position: [    0.1875000,    0.0208333,    0.0000000 ]
  distance_from_gamma:  0.055789365
  weight: 12   
  band:
  - # 1
    frequency:     4.0631681258
  - # 2
    frequency:     9.5926608456
  - # 3
    frequency:    15.9227721617
  - # 4
    frequency:    51.3056226689
  - # 5
    frequency:    52.6160098347
  - # 6
    frequency:    62.4514237456

- q-position: [    0.2083333,    0.0208333,    0.0000000 ]
  distance_from_gamma:  0.061615817
  weight: 12   
  band:
  - # 1
    frequency:     4.5675444112
  - # 2
    frequency:    10.2229234101
  - # 3
    frequency:    17.0559001674
  - # 4
    frequency:    51.0920754801
  - # 5
    frequency:    52.5668303975
  - # 6
    frequency:    61.8146320909

- q-position: [    0.2291667,    0.0208333,    0.0000000 ]
  distance_from_gamma:  0.067446053
  weight: 12   
  band:
  - # 1
    frequency:     5.1050192186
  - # 2
    frequency:    10.7599585658
  - # 3
    frequency:    18.0371999653
  - # 4
    frequency:    50.8795089965
  - # 5
    frequency:    52.4886039870
  - # 6
    frequency:    61.2035600494

- q-position: [    0.2500000,    0.0208333,    0.0000000 ]
  distance_from_gamma:  0.073279171
  weight: 12   
  band:
  - # 1
    frequency:     5.6797391321
  - # 2
    frequency:    11.2032360133
  - # 3
    frequency:    18.8557223606
  - # 4
    frequency:    50.6724003805
  - # 5
    frequency:    52.3779187582
  - # 6
    frequency:    60.6374618422

- q-position: [    0.2708333,    0.0208333,    0.0000000 ]
  distance_from_gamma:  0.079114532
  weight: 12   
  band:
  - # 1
    frequency:     6.2946139689
  - # 2
    frequency:    11.5547299036
  - # 3
    frequency:    19.5029029389
  - # 4
    frequency:    50.4747804867
  - # 5
    frequency:    52.2343037408
  - # 6
    frequency:    60.1321534117

- q-position: [    0.2916667,    0.0208333,    0.0000000 ]
  distance_from_gamma:  0.084951675
  weight: 12   
  band:
  - # 1
    frequency:     6.9508448333
  - # 2
    frequency:    11.8190187525
  - # 3
    frequency:    19.9734024629
  - # 4
    frequency:    50.2900829932
  - # 5
    frequency:    52.0613246740
  - # 6
    frequency:    59.6980922660

- q-position: [    0.3125000,    0.0208333,    0.0000000 ]
  distance_from_gamma:  0.090790256
  weight: 12   
  band:
  - # 1
    frequency:     7.6474474626
  - # 2
    frequency:    12.0032905282
  - # 3
    frequency:    20.2660720133
  - # 4
    frequency:    50.1210392098
  - # 5
    frequency:    51.8668513917
  - # 6
    frequency:    59.3392453646

- q-position: [    0.3333333,    0.0208333,    0.0000000 ]
  distance_from_gamma:  0.096630014
  weight: 12   
  band:
  - # 1
    frequency:     8.3807076287
  - # 2
    frequency:    12.1172275054
  - # 3
    frequency:    20.3849519443
  - # 4
    frequency:    49.9696323670
  - # 5
    frequency:    51.6620908991
  - # 6
    frequency:    59.0532927258

- q-position: [    0.3541667,    0.0208333,    0.0000000 ]
  distance_from_gamma:  0.102470748
  weight: 12   
  band:
  - # 1
    frequency:     9.1434242574
  - # 2
    frequency:    12.1727694065
  - # 3
    frequency:    20.3402357064
  - # 4
    frequency:    49.8371186751
  - # 5
    frequency:    51.4596068282
  - # 6
    frequency:    58.8331166042

- q-position: [    0.3750000,    0.0208333,    0.0000000 ]
  distance_from_gamma:  0.108312300
  weight: 12   
  band:
  - # 1
    frequency:     9.9236110679
  - # 2
    frequency:    12.1838399417
  - # 3
    frequency:    20.1492563601
  - # 4
    frequency:    49.7241133865
  - # 5
    frequency:    51.2711133834
  - # 6
    frequency:    58.6689328033

- q-position: [    0.3958333,    0.0208333,    0.0000000 ]
  distance_from_gamma:  0.114154545
  weight: 12   
  band:
  - # 1
    frequency:    10.7016843848
  - # 2
    frequency:    12.1665784163
  - # 3
    frequency:    19.8378410538
  - # 4
    frequency:    49.6307292462
  - # 5
    frequency:    51.1058687879
  - # 6
    frequency:    58.5502984000

- q-position: [    0.4166667,    0.0208333,    0.0000000 ]
  distance_from_gamma:  0.119997381
  weight: 12   
  band:
  - # 1
    frequency:    11.4403795922
  - # 2
    frequency:    12.1450669627
  - # 3
    frequency:    19.4428603476
  - # 4
    frequency:    49.5567443435
  - # 5
    frequency:    50.9700577705
  - # 6
    frequency:    58.4675495735

- q-position: [    0.4375000,    0.0208333,    0.0000000 ]
  distance_from_gamma:  0.125840726
  weight: 12   
  band:
  - # 1
    frequency:    11.9553866542
  - # 2
    frequency:    12.2734506471
  - # 3
    frequency:    19.0172835222
  - # 4
    frequency:    49.5017707774
  - # 5
    frequency:    50.8670603856
  - # 6
    frequency:    58.4126166551

- q-position: [    0.4583333,    0.0208333,    0.0000000 ]
  distance_from_gamma:  0.131684512
  weight: 12   
  band:
  - # 1
    frequency:    11.9985324472
  - # 2
    frequency:    12.7428425566
  - # 3
    frequency:    18.6378083651
  - # 4
    frequency:    49.4653987415
  - # 5
    frequency:    50.7982412875
  - # 6
    frequency:    58.3793809695

- q-position: [    0.4791667,    0.0208333,    0.0000000 ]
  distance_from_gamma:  0.137528683
  weight: 12   
  band:
  - # 1
    frequency:    11.9884535022
  - # 2
    frequency:    13.0484209566
  - # 3
    frequency:    18.4050288447
  - # 4
    frequency:    49.4473018097
  - # 5
    frequency:    50.7638686173
  - # 6
    frequency:    58.3637745662

- q-position: [    0.0416667,    0.0416667,    0.0000000 ]
  distance_from_gamma:  0.020259156
  weight: 6    
  band:
  - # 1
    frequency:     1.4044799575
  - # 2
    frequency:     4.0298792623
  - # 3
    frequency:     6.4672367683
  - # 4
    frequency:    52.3604139406
  - # 5
    frequency:    52.5902192484
  - # 6
    frequency:    65.7667047685

- q-position: [    0.0625000,    0.0416667,    0.0000000 ]
  distance_from_gamma:  0.025492212
  weight: 12   
  band:
  - # 1
    frequency:     1.7726413597
  - # 2
    frequency:     5.0312777385
  - # 3
    frequency:     8.0456960420
  - # 4
    frequency:    52.2498507528
  - # 5
    frequency:    52.6092361456
  - # 6
    frequency:    65.4202364300

- q-position: [    0.0833333,    0.0416667,    0.0000000 ]
  distance_from_gamma:  0.030946371
  weight: 12   
  band:
  - # 1
    frequency:     2.1619941371
  - # 2
    frequency:     6.0286267678
  - # 3
    frequency:     9.6351653907
  - # 4
    frequency:    52.1120749239
  - # 5
    frequency:    52.6299269090
  - # 6
    frequency:    64.9895308749

- q-position: [    0.1041667,    0.0416667,    0.0000000 ]
  distance_from_gamma:  0.036522712
  weight: 12   
  band:
  - # 1
    frequency:     2.5680253195
  - # 2
    frequency:     6.9909614633
  - # 3
    frequency:    11.1890257973
  - # 4
    frequency:    51.9504375000
  - # 5
    frequency:    52.6492007056
  - # 6
    frequency:    64.4856716323

- q-position: [    0.1250000,    0.0416667,    0.0000000 ]
  distance_from_gamma:  0.042172796
  weight: 12   
  band:
  - # 1
    frequency:     2.9907255926
  - # 2
    frequency:     7.8988958209
  - # 3
    frequency:    12.6768255340
  - # 4
    frequency:    51.7688569589
  - # 5
    frequency:    52.6632418005
  - # 6
    frequency:    63.9221814087

- q-position: [    0.1458333,    0.0416667,    0.0000000 ]
  distance_from_gamma:  0.047870517
  weight: 12   
  band:
  - # 1
    frequency:     3.4323933098
  - # 2
    frequency:     8.7387049769
  - # 3
    frequency:    14.0755939427
  - # 4
    frequency:    51.5717358631
  - # 5
    frequency:    52.6674971923
  - # 6
    frequency:    63.3149251571

- q-position: [    0.1666667,    0.0416667,    0.0000000 ]
  distance_from_gamma:  0.053600688
  weight: 12   
  band:
  - # 1
    frequency:     3.8965938831
  - # 2
    frequency:     9.5001876129
  - # 3
    frequency:    15.3663411224
  - # 4
    frequency:    51.3638372265
  - # 5
    frequency:    52.6567528187
  - # 6
    frequency:    62.6818835763

- q-position: [    0.1875000,    0.0416667,    0.0000000 ]
  distance_from_gamma:  0.059353910
  weight: 12   
  band:
  - # 1
    frequency:     4.3875005387
  - # 2
    frequency:    10.1758938487
  - # 3
    frequency:    16.5326041604
  - # 4
    frequency:    51.1501267209
  - # 5
    frequency:    52.6253675920
  - # 6
    frequency:    62.0426986180

- q-position: [    0.2083333,    0.0416667,    0.0000000 ]
  distance_from_gamma:  0.065124074
  weight: 12   
  band:
  - # 1
    frequency:     4.9093527421
  - # 2
    frequency:    10.7609014699
  - # 3
    frequency:    17.5599298534
  - # 4
    frequency:    50.9355870390
  - # 5
    frequency:    52.5677660302
  - # 6
    frequency:    61.4178609163

- q-position: [    0.2291667,    0.0416667,    0.0000000 ]
  distance_from_gamma:  0.070907045
  weight: 12   
  band:
  - # 1
    frequency:     5.4659502389
  - # 2
    frequency:    11.2528238075
  - # 3
    frequency:    18.4358756562
  - # 4
    frequency:    50.7250142850
  - # 5
    frequency:    52.4792848315
  - # 6
    frequency:    60.8274170466

- q-position: [    0.2500000,    0.0416667,    0.0000000 ]
  distance_from_gamma:  0.076699926
  weight: 12   
  band:
  - # 1
    frequency:     6.0601643554
  - # 2
    frequency:    11.6519037852
  - # 3
    frequency:    19.1503595986
  - # 4
    frequency:    50.5228110151
  - # 5
    frequency:    52.3573688142
  - # 6
    frequency:    60.2891862162

- q-position: [    0.2708333,    0.0416667,    0.0000000 ]
  distance_from_gamma:  0.082500629
  weight: 12   
  band:
  - # 1
    frequency:     6.6934627242
  - # 2
    frequency:    11.9611124654
  - # 3
    frequency:    19.6962725172
  - # 4
    frequency:    50.3327949287
  - # 5
    frequency:    52.2028741243
  - # 6
    frequency:    59.8167398926

- q-position: [    0.2916667,    0.0416667,    0.0000000 ]
  distance_from_gamma:  0.088307612
  weight: 12   
  band:
  - # 1
    frequency:     7.3654311428
  - # 2
    frequency:    12.1861982346
  - # 3
    frequency:    20.0702772882
  - # 4
    frequency:    50.1580450415
  - # 5
    frequency:    52.0209452613
  - # 6
    frequency:    59.4177312194

- q-position: [    0.3125000,    0.0416667,    0.0000000 ]
  distance_from_gamma:  0.094119714
  weight: 12   
  band:
  - # 1
    frequency:     8.0732418111
  - # 2
    frequency:    12.3356524727
  - # 3
    frequency:    20.2737064342
  - # 4
    frequency:    50.0008074982
  - # 5
    frequency:    51.8208636228
  - # 6
    frequency:    59.0932793928

- q-position: [    0.3333333,    0.0416667,    0.0000000 ]
  distance_from_gamma:  0.099936042
  weight: 12   
  band:
  - # 1
    frequency:     8.8109498574
  - # 2
    frequency:    12.4205887467
  - # 3
    frequency:    20.3134736978
  - # 4
    frequency:    49.8624799440
  - # 5
    frequency:    51.6146631495
  - # 6
    frequency:    58.8387538234

- q-position: [    0.3541667,    0.0416667,    0.0000000 ]
  distance_from_gamma:  0.105755897
  weight: 12   
  band:
  - # 1
    frequency:     9.5683498872
  - # 2
    frequency:    12.4546171412
  - # 3
    frequency:    20.2029859073
  - # 4
    frequency:    49.7436849603
  - # 5
    frequency:    51.4149821615
  - # 6
    frequency:    58.6456309053

- q-position: [    0.3750000,    0.0416667,    0.0000000 ]
  distance_from_gamma:  0.111578729
  weight: 12   
  band:
  - # 1
    frequency:    10.3286883140
  - # 2
    frequency:    12.4541090348
  - # 3
    frequency:    19.9632293920
  - # 4
    frequency:    49.6444277544
  - # 5
    frequency:    51.2330126120
  - # 6
    frequency:    58.5036564727

- q-position: [    0.3958333,    0.0416667,    0.0000000 ]
  distance_from_gamma:  0.117404094
  weight: 12   
  band:
  - # 1
    frequency:    11.0627259681
  - # 2
    frequency:    12.4408265770
  - # 3
    frequency:    19.6245470201
  - # 4
    frequency:    49.5643119021
  - # 5
    frequency:    51.0772285577
  - # 6
    frequency:    58.4026414311

- q-position: [    0.4166667,    0.0416667,    0.0000000 ]
  distance_from_gamma:  0.123231633
  weight: 12   
  band:
  - # 1
    frequency:    11.7053750066
  - # 2
    frequency:    12.4598652232
  - # 3
    frequency:    19.2300560702
  - # 4
    frequency:    49.5027668341
  - # 5
    frequency:    50.9530837126
  - # 6
    frequency:    58.3336197046

- q-position: [    0.4375000,    0.0416667,    0.0000000 ]
  distance_from_gamma:  0.129061052
  weight: 12   
  band:
  - # 1
    frequency:    12.0760355700
  - # 2
    frequency:    12.6512567463
  - # 3
    frequency:    18.8414692167
  - # 4
    frequency:    49.4592353805
  - # 5
    frequency:    50.8634644058
  - # 6
    frequency:    58.2894361997

- q-position: [    0.4583333,    0.0416667,    0.0000000 ]
  distance_from_gamma:  0.134892106
  weight: 12   
  band:
  - # 1
    frequency:    12.1531827548
  - # 2
    frequency:    12.9685890950
  - # 3
    frequency:    18.5437070823
  - # 4
    frequency:    49.4332882919
  - # 5
    frequency:    50.8095233047
  - # 6
    frequency:    58.2649652175

- q-position: [   -0.5208333,    0.0416667,    0.0000000 ]
  distance_from_gamma:  0.140724593
  weight: 6    
  band:
  - # 1
    frequency:    12.1614677342
  - # 2
    frequency:    13.1054348528
  - # 3
    frequency:    18.4295461878
  - # 4
    frequency:    49.4246674796
  - # 5
    frequency:    50.7915369498
  - # 6
    frequency:    58.2571467223

- q-position: [    0.0625000,    0.0625000,    0.0000000 ]
  distance_from_gamma:  0.030388734
  weight: 6    
  band:
  - # 1
    frequency:     2.1221001732
  - # 2
    frequency:     5.9715369922
  - # 3
    frequency:     9.4498207031
  - # 4
    frequency:    52.1237984726
  - # 5
    frequency:    52.6314855622
  - # 6
    frequency:    65.0360860776

- q-position: [    0.0833333,    0.0625000,    0.0000000 ]
  distance_from_gamma:  0.035573908
  weight: 12   
  band:
  - # 1
    frequency:     2.5008887219
  - # 2
    frequency:     6.9204148555
  - # 3
    frequency:    10.8764829152
  - # 4
    frequency:    51.9713603785
  - # 5
    frequency:    52.6551531577
  - # 6
    frequency:    64.5738048064

- q-position: [    0.1041667,    0.0625000,    0.0000000 ]
  distance_from_gamma:  0.040938201
  weight: 12   
  band:
  - # 1
    frequency:     2.9040681064
  - # 2
    frequency:     7.8413385672
  - # 3
    frequency:    12.2788631853
  - # 4
    frequency:    51.7965072335
  - # 5
    frequency:    52.6766750150
  - # 6
    frequency:    64.0453212594

- q-position: [    0.1250000,    0.0625000,    0.0000000 ]
  distance_from_gamma:  0.046419557
  weight: 12   
  band:
  - # 1
    frequency:     3.3306296565
  - # 2
    frequency:     8.7109776873
  - # 3
    frequency:    13.6239282665
  - # 4
    frequency:    51.6037095956
  - # 5
    frequency:    52.6918250318
  - # 6
    frequency:    63.4648827154

- q-position: [    0.1458333,    0.0625000,    0.0000000 ]
  distance_from_gamma:  0.051980956
  weight: 12   
  band:
  - # 1
    frequency:     3.7817964195
  - # 2
    frequency:     9.5132976908
  - # 3
    frequency:    14.8863917753
  - # 4
    frequency:    51.3978560458
  - # 5
    frequency:    52.6956974139
  - # 6
    frequency:    62.8489170898

- q-position: [    0.1666667,    0.0625000,    0.0000000 ]
  distance_from_gamma:  0.057599218
  weight: 12   
  band:
  - # 1
    frequency:     4.2599851898
  - # 2
    frequency:    10.2368960612
  - # 3
    frequency:    16.0457378813
  - # 4
    frequency:    51.1841198422
  - # 5
    frequency:    52.6827987137
  - # 6
    frequency:    62.2157425045

- q-position: [    0.1875000,    0.0625000,    0.0000000 ]
  distance_from_gamma:  0.063259193
  weight: 12   
  band:
  - # 1
    frequency:     4.7680928256
  - # 2
    frequency:    10.8738562289
  - # 3
    frequency:    17.0847857353
  - # 4
    frequency:    50.9677796458
  - # 5
    frequency:    52.6473295400
  - # 6
    frequency:    61.5850180218

- q-position: [    0.2083333,    0.0625000,    0.0000000 ]
  distance_from_gamma:  0.068950611
  weight: 12   
  band:
  - # 1
    frequency:     5.3089298210
  - # 2
    frequency:    11.4193037467
  - # 3
    frequency:    17.9891008999
  - # 4
    frequency:    50.7540052375
  - # 5
    frequency:    52.5837610367
  - # 6
    frequency:    60.9768038535

- q-position: [    0.2291667,    0.0625000,    0.0000000 ]
  distance_from_gamma:  0.074666281
  weight: 12   
  band:
  - # 1
    frequency:     5.8847223532
  - # 2
    frequency:    11.8712866196
  - # 3
    frequency:    18.7469293301
  - # 4
    frequency:    50.5476235134
  - # 5
    frequency:    52.4877890673
  - # 6
    frequency:    60.4101298399

- q-position: [    0.2500000,    0.0625000,    0.0000000 ]
  distance_from_gamma:  0.080401032
  weight: 12   
  band:
  - # 1
    frequency:     6.4966474825
  - # 2
    frequency:    12.2307886639
  - # 3
    frequency:    19.3494890961
  - # 4
    frequency:    50.3528857828
  - # 5
    frequency:    52.3576113948
  - # 6
    frequency:    59.9011261554

- q-position: [    0.2708333,    0.0625000,    0.0000000 ]
  distance_from_gamma:  0.086151052
  weight: 12   
  band:
  - # 1
    frequency:     7.1443756500
  - # 2
    frequency:    12.5017659252
  - # 3
    frequency:    19.7915147291
  - # 4
    frequency:    50.1732629546
  - # 5
    frequency:    52.1951969564
  - # 6
    frequency:    59.4610752885

- q-position: [    0.2916667,    0.0625000,    0.0000000 ]
  distance_from_gamma:  0.091913477
  weight: 12   