phonopy:
  version: "2.20.0"
  frequency_unit_conversion_factor: 15.633302
  symmetry_tolerance: 1.00000e-05
  configuration:
    atom_name: "Sb"
    dim: "3 3 1"
    cell_filename: "POSCAR"
    tprop: ".TRUE."
    tmin: "0"
    tmax: "3000"
    mp: "48 48 1"
    gamma_center: ".TRUE."
    read_force_constants: ".true."

physical_unit:
  atomic_mass: "AMU"
  length: "angstrom"
  force_constants: "eV/angstrom^2"

space_group:
  type: "P-3m1"
  number: 164
  Hall_symbol: "-P 3 2\""

supercell_matrix:
- [   3,   0,   0 ]
- [   0,   3,   0 ]
- [   0,   0,   1 ]

primitive_cell:
  lattice:
  - [     4.113366549671167,     0.000000000000000,     0.000000000000000 ] # a
  - [    -2.056683274835584,     3.562279927092375,     0.000000000000000 ] # b
  - [     0.000000000000000,     0.000000000000000,    16.000000000000000 ] # c
  points:
  - symbol: H  # 1
    coordinates: [  0.666666666666664,  0.333333333333336,  0.448625398373856 ]
    mass: 1.007940
  - symbol: H  # 2
    coordinates: [  0.333333333333336,  0.666666666666664,  0.551374601626144 ]
    mass: 1.007940
  reciprocal_lattice: # without 2pi
  - [     0.243109868261058,     0.140359547883176,     0.000000000000000 ] # a*
  - [     0.000000000000000,     0.280719095766353,     0.000000000000000 ] # b*
  - [     0.000000000000000,     0.000000000000000,     0.062500000000000 ] # c*

unit_cell:
  lattice:
  - [     4.113366549671167,     0.000000000000000,     0.000000000000000 ] # a
  - [    -2.056683274835584,     3.562279927092375,     0.000000000000000 ] # b
  - [     0.000000000000000,     0.000000000000000,    16.000000000000000 ] # c
  points:
  - symbol: H  # 1
    coordinates: [  0.666666666666664,  0.333333333333336,  0.448625398373856 ]
    mass: 1.007940
    reduced_to: 1
  - symbol: H  # 2
    coordinates: [  0.333333333333336,  0.666666666666664,  0.551374601626144 ]
    mass: 1.007940
    reduced_to: 2

supercell:
  lattice:
  - [    12.340099649013503,     0.000000000000000,     0.000000000000000 ] # a
  - [    -6.170049824506751,    10.686839781277126,     0.000000000000000 ] # b
  - [     0.000000000000000,     0.000000000000000,    16.000000000000000 ] # c
  points:
  - symbol: H  # 1
    coordinates: [  0.222222222222221,  0.111111111111112,  0.448625398373856 ]
    mass: 1.007940
    reduced_to: 1
  - symbol: H  # 2
    coordinates: [  0.555555555555555,  0.111111111111112,  0.448625398373856 ]
    mass: 1.007940
    reduced_to: 1
  - symbol: H  # 3
    coordinates: [  0.888888888888888,  0.111111111111112,  0.448625398373856 ]
    mass: 1.007940
    reduced_to: 1
  - symbol: H  # 4
    coordinates: [  0.222222222222221,  0.444444444444445,  0.448625398373856 ]
    mass: 1.007940
    reduced_to: 1
  - symbol: H  # 5
    coordinates: [  0.555555555555555,  0.444444444444445,  0.448625398373856 ]
    mass: 1.007940
    reduced_to: 1
  - symbol: H  # 6
    coordinates: [  0.888888888888888,  0.444444444444445,  0.448625398373856 ]
    mass: 1.007940
    reduced_to: 1
  - symbol: H  # 7
    coordinates: [  0.222222222222221,  0.777777777777779,  0.448625398373856 ]
    mass: 1.007940
    reduced_to: 1
  - symbol: H  # 8
    coordinates: [  0.555555555555555,  0.777777777777779,  0.448625398373856 ]
    mass: 1.007940
    reduced_to: 1
  - symbol: H  # 9
    coordinates: [  0.888888888888888,  0.777777777777779,  0.448625398373856 ]
    mass: 1.007940
    reduced_to: 1
  - symbol: H  # 10
    coordinates: [  0.111111111111112,  0.222222222222221,  0.551374601626144 ]
    mass: 1.007940
    reduced_to: 10
  - symbol: H  # 11
    coordinates: [  0.444444444444445,  0.222222222222221,  0.551374601626144 ]
    mass: 1.007940
    reduced_to: 10
  - symbol: H  # 12
    coordinates: [  0.777777777777779,  0.222222222222221,  0.551374601626144 ]
    mass: 1.007940
    reduced_to: 10
  - symbol: H  # 13
    coordinates: [  0.111111111111112,  0.555555555555555,  0.551374601626144 ]
    mass: 1.007940
    reduced_to: 10
  - symbol: H  # 14
    coordinates: [  0.444444444444445,  0.555555555555555,  0.551374601626144 ]
    mass: 1.007940
    reduced_to: 10
  - symbol: H  # 15
    coordinates: [  0.777777777777779,  0.555555555555555,  0.551374601626144 ]
    mass: 1.007940
    reduced_to: 10
  - symbol: H  # 16
    coordinates: [  0.111111111111112,  0.888888888888888,  0.551374601626144 ]
    mass: 1.007940
    reduced_to: 10
  - symbol: H  # 17
    coordinates: [  0.444444444444445,  0.888888888888888,  0.551374601626144 ]
    mass: 1.007940
    reduced_to: 10
  - symbol: H  # 18
    coordinates: [  0.777777777777779,  0.888888888888888,  0.551374601626144 ]
    mass: 1.007940
    reduced_to: 10
