# Thermal properties / unit cell (natom)

unit:
  temperature:   K
  free_energy:   kJ/mol
  entropy:       J/K/mol
  heat_capacity: J/K/mol

natom: 2    
cutoff_frequency: 0.00000
num_modes: 13824
num_integrated_modes: 13822

zero_point_energy:      40.0271932

thermal_properties:
- temperature:         0.0000000
  free_energy:        40.0271932
  entropy:             0.0000000
  heat_capacity:       0.0000000
  energy:             40.0271932

- temperature:        10.0000000
  free_energy:        40.0269743
  entropy:             0.0396999
  heat_capacity:       0.0526304
  energy:             40.0273713

- temperature:        20.0000000
  free_energy:        40.0262170
  entropy:             0.1213519
  heat_capacity:       0.2199312
  energy:             40.0286441

- temperature:        30.0000000
  free_energy:        40.0243662
  entropy:             0.2572262
  heat_capacity:       0.4813412
  energy:             40.0320830

- temperature:        40.0000000
  free_energy:        40.0209172
  entropy:             0.4397555
  heat_capacity:       0.8141204
  energy:             40.0385074

- temperature:        50.0000000
  free_energy:        40.0154371
  entropy:             0.6625815
  heat_capacity:       1.2075773
  energy:             40.0485662

- temperature:        60.0000000
  free_energy:        40.0075437
  entropy:             0.9220351
  heat_capacity:       1.6632837
  energy:             40.0628658

- temperature:        70.0000000
  free_energy:        39.9968784
  entropy:             1.2169128
  heat_capacity:       2.1880128
  energy:             40.0820623

- temperature:        80.0000000
  free_energy:        39.9830872
  entropy:             1.5472748
  heat_capacity:       2.7854183
  energy:             40.1068692

- temperature:        90.0000000
  free_energy:        39.9658143
  entropy:             1.9132076
  heat_capacity:       3.4522926
  energy:             40.1380030

- temperature:       100.0000000
  free_energy:        39.9447064
  entropy:             2.3140908
  heat_capacity:       4.1791832
  energy:             40.1761155

- temperature:       110.0000000
  free_energy:        39.9194210
  entropy:             2.7483774
  heat_capacity:       4.9528014
  energy:             40.2217425

- temperature:       120.0000000
  free_energy:        39.8896354
  entropy:             3.2136903
  heat_capacity:       5.7584435
  energy:             40.2752782

- temperature:       130.0000000
  free_energy:        39.8550537
  entropy:             3.7070500
  heat_capacity:       6.5817696
  energy:             40.3369702

- temperature:       140.0000000
  free_energy:        39.8154120
  entropy:             4.2251241
  heat_capacity:       7.4098887
  energy:             40.4069294

- temperature:       150.0000000
  free_energy:        39.7704804
  entropy:             4.7644465
  heat_capacity:       8.2319021
  energy:             40.4851474

- temperature:       160.0000000
  free_energy:        39.7200637
  entropy:             5.3215877
  heat_capacity:       9.0390791
  energy:             40.5715177

- temperature:       170.0000000
  free_energy:        39.6640002
  entropy:             5.8932769
  heat_capacity:       9.8248066
  energy:             40.6658572

- temperature:       180.0000000
  free_energy:        39.6021598
  entropy:             6.4764821
  heat_capacity:      10.5844096
  energy:             40.7679266

- temperature:       190.0000000
  free_energy:        39.5344413
  entropy:             7.0684575
  heat_capacity:      11.3149079
  energy:             40.8774483

- temperature:       200.0000000
  free_energy:        39.4607696
  entropy:             7.6667642
  heat_capacity:      12.0147496
  energy:             40.9941224

- temperature:       210.0000000
  free_energy:        39.3810921
  entropy:             8.2692743
  heat_capacity:      12.6835472
  energy:             41.1176397

- temperature:       220.0000000
  free_energy:        39.2953762
  entropy:             8.8741608
  heat_capacity:      13.3218288
  energy:             41.2476916

- temperature:       230.0000000
  free_energy:        39.2036061
  entropy:             9.4798801
  heat_capacity:      13.9308139
  energy:             41.3839785

- temperature:       240.0000000
  free_energy:        39.1057801
  entropy:            10.0851490
  heat_capacity:      14.5122179
  energy:             41.5262159

- temperature:       250.0000000
  free_energy:        39.0019082
  entropy:            10.6889184
  heat_capacity:      15.0680841
  energy:             41.6741377

- temperature:       260.0000000
  free_energy:        38.8920096
  entropy:            11.2903473
  heat_capacity:      15.6006456
  energy:             41.8274999

- temperature:       270.0000000
  free_energy:        38.7761112
  entropy:            11.8887758
  heat_capacity:      16.1122128
  energy:             41.9860807

- temperature:       280.0000000
  free_energy:        38.6542458
  entropy:            12.4837002
  heat_capacity:      16.6050854
  energy:             42.1496818

- temperature:       290.0000000
  free_energy:        38.5264501
  entropy:            13.0747495
  heat_capacity:      17.0814853
  energy:             42.3181275

- temperature:       300.0000000
  free_energy:        38.3927646
  entropy:            13.6616635
  heat_capacity:      17.5435083
  energy:             42.4912636

- temperature:       310.0000000
  free_energy:        38.2532312
  entropy:            14.2442741
  heat_capacity:      17.9930911
  energy:             42.6689562

- temperature:       320.0000000
  free_energy:        38.1078937
  entropy:            14.8224878
  heat_capacity:      18.4319908
  energy:             42.8510898

- temperature:       330.0000000
  free_energy:        37.9567962
  entropy:            15.3962710
  heat_capacity:      18.8617751
  energy:             43.0375657

- temperature:       340.0000000
  free_energy:        37.7999830
  entropy:            15.9656368
  heat_capacity:      19.2838199
  energy:             43.2282996

- temperature:       350.0000000
  free_energy:        37.6374981
  entropy:            16.5306348
  heat_capacity:      19.6993136
  energy:             43.4232202

- temperature:       360.0000000
  free_energy:        37.4693847
  entropy:            17.0913409
  heat_capacity:      20.1092654
  energy:             43.6222674

- temperature:       370.0000000
  free_energy:        37.2956852
  entropy:            17.6478504
  heat_capacity:      20.5145173
  energy:             43.8253899

- temperature:       380.0000000
  free_energy:        37.1164413
  entropy:            18.2002713
  heat_capacity:      20.9157570
  energy:             44.0325444

- temperature:       390.0000000
  free_energy:        36.9316931
  entropy:            18.7487191
  heat_capacity:      21.3135328
  energy:             44.2436935

- temperature:       400.0000000
  free_energy:        36.7414797
  entropy:            19.2933129
  heat_capacity:      21.7082690
  energy:             44.4588049

- temperature:       410.0000000
  free_energy:        36.5458393
  entropy:            19.8341721
  heat_capacity:      22.1002800
  energy:             44.6778498

- temperature:       420.0000000
  free_energy:        36.3448084
  entropy:            20.3714138
  heat_capacity:      22.4897856
  energy:             44.9008022

- temperature:       430.0000000
  free_energy:        36.1384227
  entropy:            20.9051511
  heat_capacity:      22.8769239
  energy:             45.1276376

- temperature:       440.0000000
  free_energy:        35.9267167
  entropy:            21.4354917
  heat_capacity:      23.2617640
  energy:             45.3583330

- temperature:       450.0000000
  free_energy:        35.7097238
  entropy:            21.9625367
  heat_capacity:      23.6443181
  energy:             45.5928653

- temperature:       460.0000000
  free_energy:        35.4874766
  entropy:            22.4863805
  heat_capacity:      24.0245514
  energy:             45.8312116

- temperature:       470.0000000
  free_energy:        35.2600066
  entropy:            23.0071102
  heat_capacity:      24.4023916
  energy:             46.0733484

- temperature:       480.0000000
  free_energy:        35.0273445
  entropy:            23.5248055
  heat_capacity:      24.7777375
  energy:             46.3192511

- temperature:       490.0000000
  free_energy:        34.7895203
  entropy:            24.0395389
  heat_capacity:      25.1504656
  energy:             46.5688944

- temperature:       500.0000000
  free_energy:        34.5465634
  entropy:            24.5513758
  heat_capacity:      25.5204371
  energy:             46.8222513

- temperature:       510.0000000
  free_energy:        34.2985023
  entropy:            25.0603748
  heat_capacity:      25.8875027
  energy:             47.0792934

- temperature:       520.0000000
  free_energy:        34.0453652
  entropy:            25.5665884
  heat_capacity:      26.2515074
  energy:             47.3399911

- temperature:       530.0000000
  free_energy:        33.7871797
  entropy:            26.0700627
  heat_capacity:      26.6122943
  energy:             47.6043129

- temperature:       540.0000000
  free_energy:        33.5239729
  entropy:            26.5708386
  heat_capacity:      26.9697077
  energy:             47.8722258

- temperature:       550.0000000
  free_energy:        33.2557718
  entropy:            27.0689518
  heat_capacity:      27.3235958
  energy:             48.1436953

- temperature:       560.0000000
  free_energy:        32.9826026
  entropy:            27.5644335
  heat_capacity:      27.6738126
  energy:             48.4186854

- temperature:       570.0000000
  free_energy:        32.7044918
  entropy:            28.0573106
  heat_capacity:      28.0202197
  energy:             48.6971588

- temperature:       580.0000000
  free_energy:        32.4214650
  entropy:            28.5476063
  heat_capacity:      28.3626871
  energy:             48.9790767

- temperature:       590.0000000
  free_energy:        32.1335482
  entropy:            29.0353404
  heat_capacity:      28.7010949
  energy:             49.2643990

- temperature:       600.0000000
  free_energy:        31.8407667
  entropy:            29.5205300
  heat_capacity:      29.0353330
  energy:             49.5530847

- temperature:       610.0000000
  free_energy:        31.5431460
  entropy:            30.0031893
  heat_capacity:      29.3653021
  energy:             49.8450915

- temperature:       620.0000000
  free_energy:        31.2407113
  entropy:            30.4833305
  heat_capacity:      29.6909136
  energy:             50.1403762

- temperature:       630.0000000
  free_energy:        30.9334878
  entropy:            30.9609638
  heat_capacity:      30.0120897
  energy:             50.4388949

- temperature:       640.0000000
  free_energy:        30.6215004
  entropy:            31.4360978
  heat_capacity:      30.3287633
  energy:             50.7406030

- temperature:       650.0000000
  free_energy:        30.3047741
  entropy:            31.9087399
  heat_capacity:      30.6408777
  energy:             51.0454550

- temperature:       660.0000000
  free_energy:        29.9833339
  entropy:            32.3788959
  heat_capacity:      30.9483862
  energy:             51.3534052

- temperature:       670.0000000
  free_energy:        29.6572045
  entropy:            32.8465713
  heat_capacity:      31.2512519
  energy:             51.6644073

- temperature:       680.0000000
  free_energy:        29.3264107
  entropy:            33.3117705
  heat_capacity:      31.5494473
  energy:             51.9784147

- temperature:       690.0000000
  free_energy:        28.9909773
  entropy:            33.7744975
  heat_capacity:      31.8429536
  energy:             52.2953806

- temperature:       700.0000000
  free_energy:        28.6509290
  entropy:            34.2347559
  heat_capacity:      32.1317603
  energy:             52.6152581

- temperature:       710.0000000
  free_energy:        28.3062904
  entropy:            34.6925489
  heat_capacity:      32.4158649
  energy:             52.9380001

- temperature:       720.0000000
  free_energy:        27.9570862
  entropy:            35.1478799
  heat_capacity:      32.6952719
  energy:             53.2635597

- temperature:       730.0000000
  free_energy:        27.6033410
  entropy:            35.6007520
  heat_capacity:      32.9699929
  energy:             53.5918899

- temperature:       740.0000000
  free_energy:        27.2450793
  entropy:            36.0511685
  heat_capacity:      33.2400456
  energy:             53.9229440

- temperature:       750.0000000
  free_energy:        26.8823258
  entropy:            36.4991327
  heat_capacity:      33.5054537
  energy:             54.2566754

- temperature:       760.0000000
  free_energy:        26.5151049
  entropy:            36.9446485
  heat_capacity:      33.7662460
  energy:             54.5930377

- temperature:       770.0000000
  free_energy:        26.1434410
  entropy:            37.3877195
  heat_capacity:      34.0224563
  energy:             54.9319850

- temperature:       780.0000000
  free_energy:        25.7673586
  entropy:            37.8283501
  heat_capacity:      34.2741229
  energy:             55.2734717

- temperature:       790.0000000
  free_energy:        25.3868821
  entropy:            38.2665448
  heat_capacity:      34.5212879
  energy:             55.6174525

- temperature:       800.0000000
  free_energy:        25.0020358
  entropy:            38.7023085
  heat_capacity:      34.7639971
  energy:             55.9638826

- temperature:       810.0000000
  free_energy:        24.6128440
  entropy:            39.1356465
  heat_capacity:      35.0022996
  energy:             56.3127177

- temperature:       820.0000000
  free_energy:        24.2193309
  entropy:            39.5665648
  heat_capacity:      35.2362473
  energy:             56.6639140

- temperature:       830.0000000
  free_energy:        23.8215208
  entropy:            39.9950693
  heat_capacity:      35.4658944
  energy:             57.0174283

- temperature:       840.0000000
  free_energy:        23.4194376
  entropy:            40.4211669
  heat_capacity:      35.6912977
  energy:             57.3732178

- temperature:       850.0000000
  free_energy:        23.0131054
  entropy:            40.8448646
  heat_capacity:      35.9125157
  energy:             57.7312403

- temperature:       860.0000000
  free_energy:        22.6025483
  entropy:            41.2661699
  heat_capacity:      36.1296086
  energy:             58.0914544

- temperature:       870.0000000
  free_energy:        22.1877900
  entropy:            41.6850908
  heat_capacity:      36.3426378
  energy:             58.4538189

- temperature:       880.0000000
  free_energy:        21.7688544
  entropy:            42.1016357
  heat_capacity:      36.5516662
  energy:             58.8182938

- temperature:       890.0000000
  free_energy:        21.3457651
  entropy:            42.5158135
  heat_capacity:      36.7567574
  energy:             59.1848391

- temperature:       900.0000000
  free_energy:        20.9185460
  entropy:            42.9276334
  heat_capacity:      36.9579757
  energy:             59.5534160

- temperature:       910.0000000
  free_energy:        20.4872203
  entropy:            43.3371051
  heat_capacity:      37.1553860
  energy:             59.9239860

- temperature:       920.0000000
  free_energy:        20.0518116
  entropy:            43.7442387
  heat_capacity:      37.3490536
  energy:             60.2965113

- temperature:       930.0000000
  free_energy:        19.6123433
  entropy:            44.1490446
  heat_capacity:      37.5390441
  energy:             60.6709548

- temperature:       940.0000000
  free_energy:        19.1688385
  entropy:            44.5515336
  heat_capacity:      37.7254231
  energy:             61.0472801

- temperature:       950.0000000
  free_energy:        18.7213203
  entropy:            44.9517170
  heat_capacity:      37.9082560
  energy:             61.4254514

- temperature:       960.0000000
  free_energy:        18.2698118
  entropy:            45.3496061
  heat_capacity:      38.0876083
  energy:             61.8054336

- temperature:       970.0000000
  free_energy:        17.8143358
  entropy:            45.7452128
  heat_capacity:      38.2635451
  energy:             62.1871922

- temperature:       980.0000000
  free_energy:        17.3549151
  entropy:            46.1385492
  heat_capacity:      38.4361310
  energy:             62.5706933

- temperature:       990.0000000
  free_energy:        16.8915723
  entropy:            46.5296278
  heat_capacity:      38.6054304
  energy:             62.9559039

- temperature:      1000.0000000
  free_energy:        16.4243300
  entropy:            46.9184612
  heat_capacity:      38.7715071
  energy:             63.3427912

- temperature:      1010.0000000
  free_energy:        15.9532105
  entropy:            47.3050623
  heat_capacity:      38.9344241
  energy:             63.7313235

- temperature:      1020.0000000
  free_energy:        15.4782362
  entropy:            47.6894443
  heat_capacity:      39.0942439
  energy:             64.1214694

- temperature:      1030.0000000
  free_energy:        14.9994290
  entropy:            48.0716206
  heat_capacity:      39.2510284
  energy:             64.5131982

- temperature:      1040.0000000
  free_energy:        14.5168111
  entropy:            48.4516048
  heat_capacity:      39.4048385
  energy:             64.9064800

- temperature:      1050.0000000
  free_energy:        14.0304042
  entropy:            48.8294106
  heat_capacity:      39.5557345
  energy:             65.3012853

- temperature:      1060.0000000
  free_energy:        13.5402301
  entropy:            49.2050520
  heat_capacity:      39.7037757
  energy:             65.6975852

- temperature:      1070.0000000
  free_energy:        13.0463103
  entropy:            49.5785432
  heat_capacity:      39.8490206
  energy:             66.0953515

- temperature:      1080.0000000
  free_energy:        12.5486663
  entropy:            49.9498983
  heat_capacity:      39.9915268
  energy:             66.4945565

- temperature:      1090.0000000
  free_energy:        12.0473194
  entropy:            50.3191318
  heat_capacity:      40.1313510
  energy:             66.8951731

- temperature:      1100.0000000
  free_energy:        11.5422907
  entropy:            50.6862582
  heat_capacity:      40.2685489
  energy:             67.2971747

- temperature:      1110.0000000
  free_energy:        11.0336012
  entropy:            51.0512921
  heat_capacity:      40.4031754
  energy:             67.7005355

- temperature:      1120.0000000
  free_energy:        10.5212718
  entropy:            51.4142483
  heat_capacity:      40.5352843
  energy:             68.1052299

- temperature:      1130.0000000
  free_energy:        10.0053231
  entropy:            51.7751414
  heat_capacity:      40.6649285
  energy:             68.5112330

- temperature:      1140.0000000
  free_energy:         9.4857758
  entropy:            52.1339865
  heat_capacity:      40.7921599
  energy:             68.9185204

- temperature:      1150.0000000
  free_energy:         8.9626502
  entropy:            52.4907983
  heat_capacity:      40.9170294
  energy:             69.3270683

- temperature:      1160.0000000
  free_energy:         8.4359666
  entropy:            52.8455920
  heat_capacity:      41.0395870
  energy:             69.7368533

- temperature:      1170.0000000
  free_energy:         7.9057450
  entropy:            53.1983824
  heat_capacity:      41.1598816
  energy:             70.1478525

- temperature:      1180.0000000
  free_energy:         7.3720055
  entropy:            53.5491847
  heat_capacity:      41.2779614
  energy:             70.5600435

- temperature:      1190.0000000
  free_energy:         6.8347679
  entropy:            53.8980139
  heat_capacity:      41.3938733
  energy:             70.9734045

- temperature:      1200.0000000
  free_energy:         6.2940518
  entropy:            54.2448851
  heat_capacity:      41.5076635
  energy:             71.3879139

- temperature:      1210.0000000
  free_energy:         5.7498767
  entropy:            54.5898133
  heat_capacity:      41.6193770
  energy:             71.8035508

- temperature:      1220.0000000
  free_energy:         5.2022619
  entropy:            54.9328137
  heat_capacity:      41.7290582
  energy:             72.2202947

- temperature:      1230.0000000
  free_energy:         4.6512268
  entropy:            55.2739013
  heat_capacity:      41.8367502
  energy:             72.6381254

- temperature:      1240.0000000
  free_energy:         4.0967902
  entropy:            55.6130911
  heat_capacity:      41.9424955
  energy:             73.0570232

- temperature:      1250.0000000
  free_energy:         3.5389712
  entropy:            55.9503982
  heat_capacity:      42.0463355
  energy:             73.4769689

- temperature:      1260.0000000
  free_energy:         2.9777885
  entropy:            56.2858374
  heat_capacity:      42.1483107
  energy:             73.8979437

- temperature:      1270.0000000
  free_energy:         2.4132607
  entropy:            56.6194239
  heat_capacity:      42.2484609
  energy:             74.3199291

- temperature:      1280.0000000
  free_energy:         1.8454062
  entropy:            56.9511725
  heat_capacity:      42.3468248
  energy:             74.7429070

- temperature:      1290.0000000
  free_energy:         1.2742433
  entropy:            57.2810980
  heat_capacity:      42.4434404
  energy:             75.1668597

- temperature:      1300.0000000
  free_energy:         0.6997902
  entropy:            57.6092153
  heat_capacity:      42.5383447
  energy:             75.5917701

- temperature:      1310.0000000
  free_energy:         0.1220650
  entropy:            57.9355390
  heat_capacity:      42.6315742
  energy:             76.0176210

- temperature:      1320.0000000
  free_energy:        -0.4589146
  entropy:            58.2600839
  heat_capacity:      42.7231641
  energy:             76.4443961

- temperature:      1330.0000000
  free_energy:        -1.0431308
  entropy:            58.5828645
  heat_capacity:      42.8131493
  energy:             76.8720790

- temperature:      1340.0000000
  free_energy:        -1.6305661
  entropy:            58.9038955
  heat_capacity:      42.9015636
  energy:             77.3006538

- temperature:      1350.0000000
  free_energy:        -2.2212030
  entropy:            59.2231912
  heat_capacity:      42.9884401
  energy:             77.7301051

- temperature:      1360.0000000
  free_energy:        -2.8150242
  entropy:            59.5407660
  heat_capacity:      43.0738112
  energy:             78.1604176

- temperature:      1370.0000000
  free_energy:        -3.4120126
  entropy:            59.8566343
  heat_capacity:      43.1577086
  energy:             78.5915764

- temperature:      1380.0000000
  free_energy:        -4.0121512
  entropy:            60.1708103
  heat_capacity:      43.2401630
  energy:             79.0235670

- temperature:      1390.0000000
  free_energy:        -4.6154232
  entropy:            60.4833080
  heat_capacity:      43.3212049
  energy:             79.4563750

- temperature:      1400.0000000
  free_energy:        -5.2218118
  entropy:            60.7941416
  heat_capacity:      43.4008636
  energy:             79.8899865

- temperature:      1410.0000000
  free_energy:        -5.8313005
  entropy:            61.1033250
  heat_capacity:      43.4791680
  energy:             80.3243877

- temperature:      1420.0000000
  free_energy:        -6.4438729
  entropy:            61.4108720
  heat_capacity:      43.5561462
  energy:             80.7595654

- temperature:      1430.0000000
  free_energy:        -7.0595126
  entropy:            61.7167964
  heat_capacity:      43.6318259
  energy:             81.1955063

- temperature:      1440.0000000
  free_energy:        -7.6782034
  entropy:            62.0211119
  heat_capacity:      43.7062339
  energy:             81.6321977

- temperature:      1450.0000000
  free_energy:        -8.2999295
  entropy:            62.3238320
  heat_capacity:      43.7793964
  energy:             82.0696269

- temperature:      1460.0000000
  free_energy:        -8.9246748
  entropy:            62.6249701
  heat_capacity:      43.8513391
  energy:             82.5077815

- temperature:      1470.0000000
  free_energy:        -9.5524237
  entropy:            62.9245397
  heat_capacity:      43.9220872
  energy:             82.9466497

- temperature:      1480.0000000
  free_energy:       -10.1831604
  entropy:            63.2225539
  heat_capacity:      43.9916650
  energy:             83.3862194

- temperature:      1490.0000000
  free_energy:       -10.8168696
  entropy:            63.5190260
  heat_capacity:      44.0600966
  energy:             83.8264791

- temperature:      1500.0000000
  free_energy:       -11.4535358
  entropy:            63.8139689
  heat_capacity:      44.1274053
  energy:             84.2674176

- temperature:      1510.0000000
  free_energy:       -12.0931439
  entropy:            64.1073957
  heat_capacity:      44.1936139
  energy:             84.7090236

- temperature:      1520.0000000
  free_energy:       -12.7356787
  entropy:            64.3993191
  heat_capacity:      44.2587448
  energy:             85.1512863

- temperature:      1530.0000000
  free_energy:       -13.3811253
  entropy:            64.6897518
  heat_capacity:      44.3228198
  energy:             85.5941950

- temperature:      1540.0000000
  free_energy:       -14.0294689
  entropy:            64.9787065
  heat_capacity:      44.3858601
  energy:             86.0377392

- temperature:      1550.0000000
  free_energy:       -14.6806946
  entropy:            65.2661957
  heat_capacity:      44.4478866
  energy:             86.4819088

- temperature:      1560.0000000
  free_energy:       -15.3347879
  entropy:            65.5522318
  heat_capacity:      44.5089196
  energy:             86.9266936

- temperature:      1570.0000000
  free_energy:       -15.9917344
  entropy:            65.8368270
  heat_capacity:      44.5689789
  energy:             87.3720839

- temperature:      1580.0000000
  free_energy:       -16.6515197
  entropy:            66.1199935
  heat_capacity:      44.6280840
  energy:             87.8180700

- temperature:      1590.0000000
  free_energy:       -17.3141296
  entropy:            66.4017434
  heat_capacity:      44.6862539
  energy:             88.2646425

- temperature:      1600.0000000
  free_energy:       -17.9795499
  entropy:            66.6820887
  heat_capacity:      44.7435070
  energy:             88.7117920

- temperature:      1610.0000000
  free_energy:       -18.6477667
  entropy:            66.9610412
  heat_capacity:      44.7998614
  energy:             89.1595096

- temperature:      1620.0000000
  free_energy:       -19.3187661
  entropy:            67.2386126
  heat_capacity:      44.8553350
  energy:             89.6077863

- temperature:      1630.0000000
  free_energy:       -19.9925344
  entropy:            67.5148146
  heat_capacity:      44.9099449
  energy:             90.0566135

- temperature:      1640.0000000
  free_energy:       -20.6690579
  entropy:            67.7896587
  heat_capacity:      44.9637080
  energy:             90.5059824

- temperature:      1650.0000000
  free_energy:       -21.3483231
  entropy:            68.0631563
  heat_capacity:      45.0166409
  energy:             90.9558848

- temperature:      1660.0000000
  free_energy:       -22.0303166
  entropy:            68.3353187
  heat_capacity:      45.0687597
  energy:             91.4063125

- temperature:      1670.0000000
  free_energy:       -22.7150250
  entropy:            68.6061571
  heat_capacity:      45.1200802
  energy:             91.8572574

- temperature:      1680.0000000
  free_energy:       -23.4024353
  entropy:            68.8756826
  heat_capacity:      45.1706178
  energy:             92.3087115

- temperature:      1690.0000000
  free_energy:       -24.0925343
  entropy:            69.1439062
  heat_capacity:      45.2203876
  energy:             92.7606672

- temperature:      1700.0000000
  free_energy:       -24.7853091
  entropy:            69.4108388
  heat_capacity:      45.2694043
  energy:             93.2131168

- temperature:      1710.0000000
  free_energy:       -25.4807468
  entropy:            69.6764910
  heat_capacity:      45.3176822
  energy:             93.6660528

- temperature:      1720.0000000
  free_energy:       -26.1788347
  entropy:            69.9408737
  heat_capacity:      45.3652356
  energy:             94.1194680

- temperature:      1730.0000000
  free_energy:       -26.8795601
  entropy:            70.2039973
  heat_capacity:      45.4120782
  energy:             94.5733551

- temperature:      1740.0000000
  free_energy:       -27.5829105
  entropy:            70.4658723
  heat_capacity:      45.4582233
  energy:             95.0277072

- temperature:      1750.0000000
  free_energy:       -28.2888734
  entropy:            70.7265090
  heat_capacity:      45.5036843
  energy:             95.4825173

- temperature:      1760.0000000
  free_energy:       -28.9974366
  entropy:            70.9859178
  heat_capacity:      45.5484739
  energy:             95.9377787

- temperature:      1770.0000000
  free_energy:       -29.7085877
  entropy:            71.2441087
  heat_capacity:      45.5926047
  energy:             96.3934846

- temperature:      1780.0000000
  free_energy:       -30.4223147
  entropy:            71.5010918
  heat_capacity:      45.6360891
  energy:             96.8496286
