   2   2   1   0
  0.9013366E+02  0.3606893E-09  0.3606893E-09  0.1600000E-08  0.5000000E-15
  1.000000000000000E-004
  CAR 
 unknown system                          
      7.31119161    -17.60653987 6001     -2.97152457      1.00000000
    -17.607  0.0000E+00  0.0000E+00
    -17.602  0.0000E+00  0.0000E+00
    -17.598  0.0000E+00  0.0000E+00
    -17.594  0.0000E+00  0.0000E+00
    -17.590  0.0000E+00  0.0000E+00
    -17.586  0.0000E+00  0.0000E+00
    -17.582  0.0000E+00  0.0000E+00
    -17.577  0.0000E+00  0.0000E+00
    -17.573  0.0000E+00  0.0000E+00
    -17.569  0.0000E+00  0.0000E+00
    -17.565  0.0000E+00  0.0000E+00
    -17.561  0.0000E+00  0.0000E+00
    -17.557  0.0000E+00  0.0000E+00
    -17.553  0.0000E+00  0.0000E+00
    -17.548  0.0000E+00  0.0000E+00
    -17.544  0.0000E+00  0.0000E+00
    -17.540  0.0000E+00  0.0000E+00
    -17.536  0.0000E+00  0.0000E+00
    -17.532  0.0000E+00  0.0000E+00
    -17.528  0.0000E+00  0.0000E+00
    -17.523  0.0000E+00  0.0000E+00
    -17.519  0.0000E+00  0.0000E+00
    -17.515  0.0000E+00  0.0000E+00
    -17.511  0.0000E+00  0.0000E+00
    -17.507  0.0000E+00  0.0000E+00
    -17.503  0.0000E+00  0.0000E+00
    -17.499  0.0000E+00  0.0000E+00
    -17.494  0.0000E+00  0.0000E+00
    -17.490  0.0000E+00  0.0000E+00
    -17.486  0.0000E+00  0.0000E+00
    -17.482  0.0000E+00  0.0000E+00
    -17.478  0.0000E+00  0.0000E+00
    -17.474  0.0000E+00  0.0000E+00
    -17.469  0.0000E+00  0.0000E+00
    -17.465  0.0000E+00  0.0000E+00
    -17.461  0.0000E+00  0.0000E+00
    -17.457  0.0000E+00  0.0000E+00
    -17.453  0.0000E+00  0.0000E+00
    -17.449  0.0000E+00  0.0000E+00
    -17.445  0.0000E+00  0.0000E+00
    -17.440  0.0000E+00  0.0000E+00
    -17.436  0.0000E+00  0.0000E+00
    -17.432  0.0000E+00  0.0000E+00
    -17.428  0.0000E+00  0.0000E+00
    -17.424  0.0000E+00  0.0000E+00
    -17.420  0.0000E+00  0.0000E+00
    -17.416  0.0000E+00  0.0000E+00
    -17.411  0.0000E+00  0.0000E+00
    -17.407  0.0000E+00  0.0000E+00
    -17.403  0.0000E+00  0.0000E+00
    -17.399  0.0000E+00  0.0000E+00
    -17.395  0.0000E+00  0.0000E+00
    -17.391  0.0000E+00  0.0000E+00
    -17.386  0.0000E+00  0.0000E+00
    -17.382  0.0000E+00  0.0000E+00
    -17.378  0.0000E+00  0.0000E+00
    -17.374  0.0000E+00  0.0000E+00
    -17.370  0.0000E+00  0.0000E+00
    -17.366  0.0000E+00  0.0000E+00
    -17.362  0.0000E+00  0.0000E+00
    -17.357  0.0000E+00  0.0000E+00
    -17.353  0.0000E+00  0.0000E+00
    -17.349  0.0000E+00  0.0000E+00
    -17.345  0.0000E+00  0.0000E+00
    -17.341  0.0000E+00  0.0000E+00
    -17.337  0.0000E+00  0.0000E+00
    -17.332  0.0000E+00  0.0000E+00
    -17.328  0.0000E+00  0.0000E+00
    -17.324  0.0000E+00  0.0000E+00
    -17.320  0.0000E+00  0.0000E+00
    -17.316  0.0000E+00  0.0000E+00
    -17.312  0.0000E+00  0.0000E+00
    -17.308  0.0000E+00  0.0000E+00
    -17.303  0.0000E+00  0.0000E+00
    -17.299  0.0000E+00  0.0000E+00
    -17.295  0.0000E+00  0.0000E+00
    -17.291  0.0000E+00  0.0000E+00
    -17.287  0.0000E+00  0.0000E+00
    -17.283  0.0000E+00  0.0000E+00
    -17.278  0.0000E+00  0.0000E+00
    -17.274  0.0000E+00  0.0000E+00
    -17.270  0.0000E+00  0.0000E+00
    -17.266  0.0000E+00  0.0000E+00
    -17.262  0.0000E+00  0.0000E+00
    -17.258  0.0000E+00  0.0000E+00
    -17.254  0.0000E+00  0.0000E+00
    -17.249  0.0000E+00  0.0000E+00
    -17.245  0.0000E+00  0.0000E+00
    -17.241  0.0000E+00  0.0000E+00
    -17.237  0.0000E+00  0.0000E+00
    -17.233  0.0000E+00  0.0000E+00
    -17.229  0.0000E+00  0.0000E+00
    -17.224  0.0000E+00  0.0000E+00
    -17.220  0.0000E+00  0.0000E+00
    -17.216  0.0000E+00  0.0000E+00
    -17.212  0.0000E+00  0.0000E+00
    -17.208  0.0000E+00  0.0000E+00
    -17.204  0.0000E+00  0.0000E+00
    -17.200  0.0000E+00  0.0000E+00
    -17.195  0.0000E+00  0.0000E+00
    -17.191  0.0000E+00  0.0000E+00
    -17.187  0.0000E+00  0.0000E+00
    -17.183  0.0000E+00  0.0000E+00
    -17.179  0.0000E+00  0.0000E+00
    -17.175  0.0000E+00  0.0000E+00
    -17.170  0.0000E+00  0.0000E+00
    -17.166  0.0000E+00  0.0000E+00
    -17.162  0.0000E+00  0.0000E+00
    -17.158  0.0000E+00  0.0000E+00
    -17.154  0.0000E+00  0.0000E+00
    -17.150  0.0000E+00  0.0000E+00
    -17.146  0.0000E+00  0.0000E+00
    -17.141  0.0000E+00  0.0000E+00
    -17.137  0.0000E+00  0.0000E+00
    -17.133  0.0000E+00  0.0000E+00
    -17.129  0.0000E+00  0.0000E+00
    -17.125  0.0000E+00  0.0000E+00
    -17.121  0.0000E+00  0.0000E+00
    -17.116  0.0000E+00  0.0000E+00
    -17.112  0.0000E+00  0.0000E+00
    -17.108  0.0000E+00  0.0000E+00
    -17.104  0.0000E+00  0.0000E+00
    -17.100  0.0000E+00  0.0000E+00
    -17.096  0.0000E+00  0.0000E+00
    -17.092  0.0000E+00  0.0000E+00
    -17.087  0.0000E+00  0.0000E+00
    -17.083  0.0000E+00  0.0000E+00
    -17.079  0.0000E+00  0.0000E+00
    -17.075  0.0000E+00  0.0000E+00
    -17.071  0.0000E+00  0.0000E+00
    -17.067  0.0000E+00  0.0000E+00
    -17.063  0.0000E+00  0.0000E+00
    -17.058  0.0000E+00  0.0000E+00
    -17.054  0.0000E+00  0.0000E+00
    -17.050  0.0000E+00  0.0000E+00
    -17.046  0.0000E+00  0.0000E+00
    -17.042  0.0000E+00  0.0000E+00
    -17.038  0.0000E+00  0.0000E+00
    -17.033  0.0000E+00  0.0000E+00
    -17.029  0.0000E+00  0.0000E+00
    -17.025  0.0000E+00  0.0000E+00
    -17.021  0.0000E+00  0.0000E+00
    -17.017  0.0000E+00  0.0000E+00
    -17.013  0.0000E+00  0.0000E+00
    -17.009  0.0000E+00  0.0000E+00
    -17.004  0.0000E+00  0.0000E+00
    -17.000  0.0000E+00  0.0000E+00
    -16.996  0.0000E+00  0.0000E+00
    -16.992  0.0000E+00  0.0000E+00
    -16.988  0.0000E+00  0.0000E+00
    -16.984  0.0000E+00  0.0000E+00
    -16.979  0.0000E+00  0.0000E+00
    -16.975  0.0000E+00  0.0000E+00
    -16.971  0.0000E+00  0.0000E+00
    -16.967  0.0000E+00  0.0000E+00
    -16.963  0.0000E+00  0.0000E+00
    -16.959  0.0000E+00  0.0000E+00
    -16.955  0.0000E+00  0.0000E+00
    -16.950  0.0000E+00  0.0000E+00
    -16.946  0.0000E+00  0.0000E+00
    -16.942  0.0000E+00  0.0000E+00
    -16.938  0.0000E+00  0.0000E+00
    -16.934  0.0000E+00  0.0000E+00
    -16.930  0.0000E+00  0.0000E+00
    -16.925  0.0000E+00  0.0000E+00
    -16.921  0.0000E+00  0.0000E+00
    -16.917  0.0000E+00  0.0000E+00
    -16.913  0.0000E+00  0.0000E+00
    -16.909  0.0000E+00  0.0000E+00
    -16.905  0.0000E+00  0.0000E+00
    -16.901  0.0000E+00  0.0000E+00
    -16.896  0.0000E+00  0.0000E+00
    -16.892  0.0000E+00  0.0000E+00
    -16.888  0.0000E+00  0.0000E+00
    -16.884  0.0000E+00  0.0000E+00
    -16.880  0.0000E+00  0.0000E+00
    -16.876  0.0000E+00  0.0000E+00
    -16.871  0.0000E+00  0.0000E+00
    -16.867  0.0000E+00  0.0000E+00
    -16.863  0.0000E+00  0.0000E+00
    -16.859  0.0000E+00  0.0000E+00
    -16.855  0.0000E+00  0.0000E+00
    -16.851  0.0000E+00  0.0000E+00
    -16.847  0.0000E+00  0.0000E+00
    -16.842  0.0000E+00  0.0000E+00
    -16.838  0.0000E+00  0.0000E+00
    -16.834  0.0000E+00  0.0000E+00
    -16.830  0.0000E+00  0.0000E+00
    -16.826  0.0000E+00  0.0000E+00
    -16.822  0.0000E+00  0.0000E+00
    -16.817  0.0000E+00  0.0000E+00
    -16.813  0.0000E+00  0.0000E+00
    -16.809  0.0000E+00  0.0000E+00
    -16.805  0.0000E+00  0.0000E+00
    -16.801  0.0000E+00  0.0000E+00
    -16.797  0.0000E+00  0.0000E+00
    -16.793  0.0000E+00  0.0000E+00
    -16.788  0.0000E+00  0.0000E+00
    -16.784  0.0000E+00  0.0000E+00
    -16.780  0.0000E+00  0.0000E+00
    -16.776  0.0000E+00  0.0000E+00
    -16.772  0.0000E+00  0.0000E+00
    -16.768  0.0000E+00  0.0000E+00
    -16.763  0.0000E+00  0.0000E+00
    -16.759  0.0000E+00  0.0000E+00
    -16.755  0.0000E+00  0.0000E+00
    -16.751  0.0000E+00  0.0000E+00
    -16.747  0.0000E+00  0.0000E+00
    -16.743  0.0000E+00  0.0000E+00
    -16.739  0.0000E+00  0.0000E+00
    -16.734  0.0000E+00  0.0000E+00
    -16.730  0.0000E+00  0.0000E+00
    -16.726  0.0000E+00  0.0000E+00
    -16.722  0.0000E+00  0.0000E+00
    -16.718  0.0000E+00  0.0000E+00
    -16.714  0.0000E+00  0.0000E+00
    -16.710  0.0000E+00  0.0000E+00
    -16.705  0.0000E+00  0.0000E+00
    -16.701  0.0000E+00  0.0000E+00
    -16.697  0.0000E+00  0.0000E+00
    -16.693  0.0000E+00  0.0000E+00
    -16.689  0.0000E+00  0.0000E+00
    -16.685  0.0000E+00  0.0000E+00
    -16.680  0.0000E+00  0.0000E+00
    -16.676  0.0000E+00  0.0000E+00
    -16.672  0.0000E+00  0.0000E+00
    -16.668  0.0000E+00  0.0000E+00
    -16.664  0.0000E+00  0.0000E+00
    -16.660  0.0000E+00  0.0000E+00
    -16.656  0.0000E+00  0.0000E+00
    -16.651  0.0000E+00  0.0000E+00
    -16.647  0.0000E+00  0.0000E+00
    -16.643  0.0000E+00  0.0000E+00
    -16.639  0.0000E+00  0.0000E+00
    -16.635  0.0000E+00  0.0000E+00
    -16.631  0.0000E+00  0.0000E+00
    -16.626  0.0000E+00  0.0000E+00
    -16.622  0.0000E+00  0.0000E+00
    -16.618  0.0000E+00  0.0000E+00
    -16.614  0.0000E+00  0.0000E+00
    -16.610  0.0000E+00  0.0000E+00
    -16.606  0.0000E+00  0.0000E+00
    -16.602  0.0000E+00  0.0000E+00
    -16.597  0.0000E+00  0.0000E+00
    -16.593  0.0000E+00  0.0000E+00
    -16.589  0.0000E+00  0.0000E+00
    -16.585  0.0000E+00  0.0000E+00
    -16.581  0.0000E+00  0.0000E+00
    -16.577  0.0000E+00  0.0000E+00
    -16.572  0.0000E+00  0.0000E+00
    -16.568  0.0000E+00  0.0000E+00
    -16.564  0.0000E+00  0.0000E+00
    -16.560  0.0000E+00  0.0000E+00
    -16.556  0.0000E+00  0.0000E+00
    -16.552  0.0000E+00  0.0000E+00
    -16.548  0.0000E+00  0.0000E+00
    -16.543  0.0000E+00  0.0000E+00
    -16.539  0.0000E+00  0.0000E+00
    -16.535  0.0000E+00  0.0000E+00
    -16.531  0.3691E-16  0.1533E-18
    -16.527  0.3631E-14  0.1523E-16
    -16.523  0.2656E-12  0.1118E-14
    -16.518  0.1383E-10  0.5857E-13
    -16.514  0.5129E-09  0.2189E-11
    -16.510  0.1355E-07  0.5846E-10
    -16.506  0.2551E-06  0.1118E-08
    -16.502  0.3425E-05  0.1534E-07
    -16.498  0.3282E-04  0.1516E-06
    -16.494  0.2245E-03  0.1084E-05
    -16.489  0.1097E-02  0.5638E-05
    -16.485  0.3828E-02  0.2154E-04
    -16.481  0.9553E-02  0.6121E-04
    -16.477  0.1705E-01  0.1320E-03
    -16.473  0.2175E-01  0.2223E-03
    -16.469  0.1985E-01  0.3048E-03
    -16.464  0.1296E-01  0.3586E-03
    -16.460  0.6049E-02  0.3837E-03
    -16.456  0.2019E-02  0.3921E-03
    -16.452  0.4815E-03  0.3941E-03
    -16.448  0.8204E-04  0.3944E-03
    -16.444  0.9981E-05  0.3945E-03
    -16.440  0.8669E-06  0.3945E-03
    -16.435  0.5836E-07  0.3945E-03
    -16.431  0.1208E-06  0.3945E-03
    -16.427  0.2139E-05  0.3945E-03
    -16.423  0.2756E-04  0.3946E-03
    -16.419  0.2535E-03  0.3957E-03
    -16.415  0.1664E-02  0.4026E-03
    -16.410  0.7802E-02  0.4350E-03
    -16.406  0.2614E-01  0.5435E-03
    -16.402  0.6262E-01  0.8036E-03
    -16.398  0.1073E+00  0.1249E-02
    -16.394  0.1314E+00  0.1795E-02
    -16.390  0.1151E+00  0.2273E-02
    -16.386  0.7214E-01  0.2572E-02
    -16.381  0.3232E-01  0.2707E-02
    -16.377  0.1035E-01  0.2750E-02
    -16.373  0.2371E-02  0.2760E-02
    -16.369  0.3877E-03  0.2761E-02
    -16.365  0.4527E-04  0.2761E-02
    -16.361  0.3772E-05  0.2761E-02
    -16.357  0.2242E-06  0.2761E-02
    -16.352  0.9502E-08  0.2761E-02
    -16.348  0.2869E-09  0.2761E-02
    -16.344  0.6170E-11  0.2761E-02
    -16.340  0.9445E-13  0.2761E-02
    -16.336  0.1012E-14  0.2761E-02
    -16.332  0.0000E+00  0.2761E-02
    -16.327  0.0000E+00  0.2761E-02
    -16.323  0.0000E+00  0.2761E-02
    -16.319  0.0000E+00  0.2761E-02
    -16.315  0.0000E+00  0.2761E-02
    -16.311  0.0000E+00  0.2761E-02
    -16.307  0.0000E+00  0.2761E-02
    -16.303  0.0000E+00  0.2761E-02
    -16.298  0.3164E-16  0.2761E-02
    -16.294  0.3427E-14  0.2761E-02
    -16.290  0.2889E-12  0.2761E-02
    -16.286  0.1728E-10  0.2761E-02
    -16.282  0.7357E-09  0.2761E-02
    -16.278  0.2231E-07  0.2761E-02
    -16.273  0.4822E-06  0.2761E-02
    -16.269  0.7430E-05  0.2761E-02
    -16.265  0.8168E-04  0.2762E-02
    -16.261  0.6409E-03  0.2764E-02
    -16.257  0.3591E-02  0.2779E-02
    -16.253  0.1437E-01  0.2839E-02
    -16.249  0.4112E-01  0.3010E-02
    -16.244  0.8412E-01  0.3359E-02
    -16.240  0.1230E+00  0.3870E-02
    -16.236  0.1287E+00  0.4405E-02
    -16.232  0.9633E-01  0.4805E-02
    -16.228  0.5155E-01  0.5019E-02
    -16.224  0.1972E-01  0.5101E-02
    -16.219  0.5394E-02  0.5123E-02
    -16.215  0.1054E-02  0.5128E-02
    -16.211  0.1471E-03  0.5128E-02
    -16.207  0.1466E-04  0.5128E-02
    -16.203  0.1045E-05  0.5128E-02
    -16.199  0.1246E-06  0.5128E-02
    -16.195  0.1373E-05  0.5128E-02
    -16.190  0.1865E-04  0.5128E-02
    -16.186  0.1811E-03  0.5129E-02
    -16.182  0.1256E-02  0.5134E-02
    -16.178  0.6217E-02  0.5160E-02
    -16.174  0.2199E-01  0.5251E-02
    -16.170  0.5562E-01  0.5482E-02
    -16.165  0.1006E+00  0.5900E-02
    -16.161  0.1301E+00  0.6440E-02
    -16.157  0.1203E+00  0.6940E-02
    -16.153  0.7959E-01  0.7271E-02
    -16.149  0.3765E-01  0.7427E-02
    -16.145  0.1273E-01  0.7480E-02
    -16.141  0.3078E-02  0.7493E-02
    -16.136  0.5316E-03  0.7495E-02
    -16.132  0.6555E-04  0.7495E-02
    -16.128  0.5769E-05  0.7495E-02
    -16.124  0.3622E-06  0.7495E-02
    -16.120  0.1621E-07  0.7495E-02
    -16.116  0.5171E-09  0.7495E-02
    -16.111  0.1175E-10  0.7495E-02
    -16.107  0.1900E-12  0.7495E-02
    -16.103  0.2215E-14  0.7495E-02
    -16.099  0.0000E+00  0.7495E-02
    -16.095  0.0000E+00  0.7495E-02
    -16.091  0.0000E+00  0.7495E-02
    -16.087  0.0000E+00  0.7495E-02
    -16.082  0.0000E+00  0.7495E-02
    -16.078  0.0000E+00  0.7495E-02
    -16.074  0.0000E+00  0.7495E-02
    -16.070  0.0000E+00  0.7495E-02
    -16.066  0.0000E+00  0.7495E-02
    -16.062  0.0000E+00  0.7495E-02
    -16.057  0.0000E+00  0.7495E-02
    -16.053  0.0000E+00  0.7495E-02
    -16.049  0.0000E+00  0.7495E-02
    -16.045  0.0000E+00  0.7495E-02
    -16.041  0.0000E+00  0.7495E-02
    -16.037  0.0000E+00  0.7495E-02
    -16.033  0.0000E+00  0.7495E-02
    -16.028  0.0000E+00  0.7495E-02
    -16.024  0.0000E+00  0.7495E-02
    -16.020  0.0000E+00  0.7495E-02
    -16.016  0.0000E+00  0.7495E-02
    -16.012  0.0000E+00  0.7495E-02
    -16.008  0.0000E+00  0.7495E-02
    -16.003  0.0000E+00  0.7495E-02
    -15.999  0.0000E+00  0.7495E-02
    -15.995  0.0000E+00  0.7495E-02
    -15.991  0.6327E-16  0.7495E-02
    -15.987  0.5252E-14  0.7495E-02
    -15.983  0.4519E-12  0.7495E-02
    -15.979  0.2756E-10  0.7495E-02
    -15.974  0.1197E-08  0.7495E-02
    -15.970  0.3701E-07  0.7495E-02
    -15.966  0.8156E-06  0.7495E-02
    -15.962  0.1281E-04  0.7495E-02
    -15.958  0.1436E-03  0.7496E-02
    -15.954  0.1149E-02  0.7500E-02
    -15.950  0.6563E-02  0.7528E-02
    -15.945  0.2678E-01  0.7639E-02
    -15.941  0.7813E-01  0.7963E-02
    -15.937  0.1629E+00  0.8640E-02
    -15.933  0.2430E+00  0.9649E-02
    -15.929  0.2591E+00  0.1073E-01
    -15.925  0.1977E+00  0.1155E-01
    -15.920  0.1078E+00  0.1199E-01
    -15.916  0.4207E-01  0.1217E-01
    -15.912  0.1173E-01  0.1222E-01
    -15.908  0.2337E-02  0.1223E-01
    -15.904  0.3326E-03  0.1223E-01
    -15.900  0.3379E-04  0.1223E-01
    -15.896  0.2449E-05  0.1223E-01
    -15.891  0.1266E-06  0.1223E-01
    -15.887  0.4663E-08  0.1223E-01
    -15.883  0.1224E-09  0.1223E-01
    -15.879  0.2287E-11  0.1223E-01
    -15.875  0.3046E-13  0.1223E-01
    -15.871  0.2531E-15  0.1223E-01
    -15.866  0.0000E+00  0.1223E-01
    -15.862  0.0000E+00  0.1223E-01
    -15.858  0.0000E+00  0.1223E-01
    -15.854  0.0000E+00  0.1223E-01
    -15.850  0.0000E+00  0.1223E-01
    -15.846  0.0000E+00  0.1223E-01
    -15.842  0.0000E+00  0.1223E-01
    -15.837  0.5378E-15  0.1223E-01
    -15.833  0.5166E-13  0.1223E-01
    -15.829  0.3537E-11  0.1223E-01
    -15.825  0.1724E-09  0.1223E-01
    -15.821  0.5983E-08  0.1223E-01
    -15.817  0.1479E-06  0.1223E-01
    -15.812  0.2608E-05  0.1223E-01
    -15.808  0.3278E-04  0.1223E-01
    -15.804  0.2941E-03  0.1223E-01
    -15.800  0.1884E-02  0.1224E-01
    -15.796  0.8620E-02  0.1227E-01
    -15.792  0.2818E-01  0.1239E-01
    -15.788  0.6588E-01  0.1266E-01
    -15.783  0.1101E+00  0.1312E-01
    -15.779  0.1316E+00  0.1367E-01
    -15.775  0.1125E+00  0.1414E-01
    -15.771  0.6881E-01  0.1442E-01
    -15.767  0.3009E-01  0.1455E-01
    -15.763  0.9404E-02  0.1459E-01
    -15.758  0.2101E-02  0.1459E-01
    -15.754  0.3352E-03  0.1460E-01
    -15.750  0.3819E-04  0.1460E-01
    -15.746  0.3105E-05  0.1460E-01
    -15.742  0.1801E-06  0.1460E-01
    -15.738  0.7444E-08  0.1460E-01
    -15.734  0.2193E-09  0.1460E-01
    -15.729  0.4599E-11  0.1460E-01
    -15.725  0.6867E-13  0.1460E-01
    -15.721  0.7593E-15  0.1460E-01
    -15.717  0.0000E+00  0.1460E-01
    -15.713  0.0000E+00  0.1460E-01
    -15.709  0.0000E+00  0.1460E-01
    -15.704  0.0000E+00  0.1460E-01
    -15.700  0.0000E+00  0.1460E-01
    -15.696  0.0000E+00  0.1460E-01
    -15.692  0.0000E+00  0.1460E-01
    -15.688  0.0000E+00  0.1460E-01
    -15.684  0.0000E+00  0.1460E-01
    -15.680  0.0000E+00  0.1460E-01
    -15.675  0.0000E+00  0.1460E-01
    -15.671  0.0000E+00  0.1460E-01
    -15.667  0.0000E+00  0.1460E-01
    -15.663  0.0000E+00  0.1460E-01
    -15.659  0.0000E+00  0.1460E-01
    -15.655  0.0000E+00  0.1460E-01
    -15.650  0.0000E+00  0.1460E-01
    -15.646  0.0000E+00  0.1460E-01
    -15.642  0.0000E+00  0.1460E-01
    -15.638  0.0000E+00  0.1460E-01
    -15.634  0.0000E+00  0.1460E-01
    -15.630  0.0000E+00  0.1460E-01
    -15.626  0.0000E+00  0.1460E-01
    -15.621  0.0000E+00  0.1460E-01
    -15.617  0.0000E+00  0.1460E-01
    -15.613  0.1582E-15  0.1460E-01
    -15.609  0.1794E-13  0.1460E-01
    -15.605  0.1332E-11  0.1460E-01
    -15.601  0.7038E-10  0.1460E-01
    -15.597  0.2648E-08  0.1460E-01
    -15.592  0.7100E-07  0.1460E-01
    -15.588  0.1357E-05  0.1460E-01
    -15.584  0.1849E-04  0.1460E-01
    -15.580  0.1797E-03  0.1460E-01
    -15.576  0.1247E-02  0.1460E-01
    -15.572  0.6184E-02  0.1463E-01
    -15.567  0.2191E-01  0.1472E-01
    -15.563  0.5547E-01  0.1495E-01
    -15.559  0.1004E+00  0.1537E-01
    -15.555  0.1300E+00  0.1591E-01
    -15.551  0.1204E+00  0.1641E-01
    -15.547  0.7976E-01  0.1674E-01
    -15.543  0.3778E-01  0.1689E-01
    -15.538  0.1279E-01  0.1695E-01
    -15.534  0.3096E-02  0.1696E-01
    -15.530  0.5354E-03  0.1696E-01
    -15.526  0.6610E-04  0.1696E-01
    -15.522  0.5862E-05  0.1696E-01
    -15.518  0.1194E-05  0.1696E-01
    -15.513  0.1300E-04  0.1696E-01
    -15.509  0.1453E-03  0.1696E-01
    -15.505  0.1160E-02  0.1697E-01
    -15.501  0.6617E-02  0.1700E-01
    -15.497  0.2696E-01  0.1711E-01
    -15.493  0.7850E-01  0.1743E-01
    -15.489  0.1634E+00  0.1811E-01
    -15.484  0.2433E+00  0.1912E-01
    -15.480  0.2590E+00  0.2020E-01
    -15.476  0.1972E+00  0.2102E-01
    -15.472  0.1074E+00  0.2146E-01
    -15.468  0.4183E-01  0.2164E-01
    -15.464  0.1164E-01  0.2169E-01
    -15.459  0.2316E-02  0.2169E-01
    -15.455  0.3289E-03  0.2170E-01
    -15.451  0.3336E-04  0.2170E-01
    -15.447  0.2413E-05  0.2170E-01
    -15.443  0.1245E-06  0.2170E-01
    -15.439  0.4579E-08  0.2170E-01
    -15.435  0.1200E-09  0.2170E-01
    -15.430  0.2238E-11  0.2170E-01
    -15.426  0.2974E-13  0.2170E-01
    -15.422  0.2531E-15  0.2170E-01
    -15.418  0.0000E+00  0.2170E-01
    -15.414  0.0000E+00  0.2170E-01
    -15.410  0.0000E+00  0.2170E-01
    -15.405  0.0000E+00  0.2170E-01
    -15.401  0.0000E+00  0.2170E-01
    -15.397  0.0000E+00  0.2170E-01
    -15.393  0.0000E+00  0.2170E-01
    -15.389  0.0000E+00  0.2170E-01
    -15.385  0.0000E+00  0.2170E-01
    -15.381  0.0000E+00  0.2170E-01
    -15.376  0.0000E+00  0.2170E-01
    -15.372  0.0000E+00  0.2170E-01
    -15.368  0.0000E+00  0.2170E-01
    -15.364  0.0000E+00  0.2170E-01
    -15.360  0.0000E+00  0.2170E-01
    -15.356  0.0000E+00  0.2170E-01
    -15.351  0.0000E+00  0.2170E-01
    -15.347  0.0000E+00  0.2170E-01
    -15.343  0.0000E+00  0.2170E-01
    -15.339  0.0000E+00  0.2170E-01
    -15.335  0.0000E+00  0.2170E-01
    -15.331  0.0000E+00  0.2170E-01
    -15.327  0.1265E-15  0.2170E-01
    -15.322  0.1308E-13  0.2170E-01
    -15.318  0.9949E-12  0.2170E-01
    -15.314  0.5385E-10  0.2170E-01
    -15.310  0.2075E-08  0.2170E-01
    -15.306  0.5697E-07  0.2170E-01
    -15.302  0.1115E-05  0.2170E-01
    -15.297  0.1556E-04  0.2170E-01
    -15.293  0.1549E-03  0.2170E-01
    -15.289  0.1101E-02  0.2170E-01
    -15.285  0.5587E-02  0.2172E-01
    -15.281  0.2026E-01  0.2181E-01
    -15.277  0.5253E-01  0.2203E-01
    -15.273  0.9738E-01  0.2243E-01
    -15.268  0.1291E+00  0.2297E-01
    -15.264  0.1224E+00  0.2348E-01
    -15.260  0.8301E-01  0.2382E-01
    -15.256  0.4026E-01  0.2399E-01
    -15.252  0.1396E-01  0.2405E-01
    -15.248  0.3459E-02  0.2406E-01
    -15.244  0.6123E-03  0.2406E-01
    -15.239  0.7741E-04  0.2406E-01
    -15.235  0.6985E-05  0.2406E-01
    -15.231  0.4497E-06  0.2406E-01
    -15.227  0.2064E-07  0.2406E-01
    -15.223  0.6750E-09  0.2406E-01
    -15.219  0.1572E-10  0.2406E-01
    -15.214  0.2608E-12  0.2406E-01
    -15.210  0.3100E-14  0.2406E-01
    -15.206  0.0000E+00  0.2406E-01
    -15.202  0.0000E+00  0.2406E-01
    -15.198  0.0000E+00  0.2406E-01
    -15.194  0.0000E+00  0.2406E-01
    -15.190  0.0000E+00  0.2406E-01
    -15.185  0.0000E+00  0.2406E-01
    -15.181  0.0000E+00  0.2406E-01
    -15.177  0.0000E+00  0.2406E-01
    -15.173  0.0000E+00  0.2406E-01
    -15.169  0.0000E+00  0.2406E-01
    -15.165  0.0000E+00  0.2406E-01
    -15.160  0.0000E+00  0.2406E-01
    -15.156  0.0000E+00  0.2406E-01
    -15.152  0.0000E+00  0.2406E-01
    -15.148  0.0000E+00  0.2406E-01
    -15.144  0.0000E+00  0.2406E-01
    -15.140  0.0000E+00  0.2406E-01
    -15.136  0.0000E+00  0.2406E-01
    -15.131  0.0000E+00  0.2406E-01
    -15.127  0.0000E+00  0.2406E-01
    -15.123  0.0000E+00  0.2406E-01
    -15.119  0.0000E+00  0.2406E-01
    -15.115  0.0000E+00  0.2406E-01
    -15.111  0.0000E+00  0.2406E-01
    -15.106  0.5062E-15  0.2406E-01
    -15.102  0.4864E-13  0.2406E-01
    -15.098  0.3531E-11  0.2406E-01
    -15.094  0.1823E-09  0.2406E-01
    -15.090  0.6704E-08  0.2406E-01
    -15.086  0.1756E-06  0.2406E-01
    -15.082  0.3279E-05  0.2406E-01
    -15.077  0.4366E-04  0.2406E-01
    -15.073  0.4148E-03  0.2407E-01
    -15.069  0.2813E-02  0.2408E-01
    -15.065  0.1363E-01  0.2413E-01
    -15.061  0.4719E-01  0.2433E-01
    -15.057  0.1168E+00  0.2481E-01
    -15.052  0.2066E+00  0.2567E-01
    -15.048  0.2615E+00  0.2676E-01
    -15.044  0.2367E+00  0.2774E-01
    -15.040  0.1532E+00  0.2838E-01
    -15.036  0.7092E-01  0.2867E-01
    -15.032  0.2347E-01  0.2877E-01
    -15.028  0.5552E-02  0.2879E-01
    -15.023  0.9381E-03  0.2880E-01
    -15.019  0.1132E-03  0.2880E-01
    -15.015  0.9746E-05  0.2880E-01
    -15.011  0.5986E-06  0.2880E-01
    -15.007  0.2622E-07  0.2880E-01
    -15.003  0.8180E-09  0.2880E-01
    -14.998  0.1818E-10  0.2880E-01
    -14.994  0.2876E-12  0.2880E-01
    -14.990  0.3290E-14  0.2880E-01
    -14.986  0.0000E+00  0.2880E-01
    -14.982  0.0000E+00  0.2880E-01
    -14.978  0.3164E-15  0.2880E-01
    -14.974  0.3155E-13  0.2880E-01
    -14.969  0.2366E-11  0.2880E-01
    -14.965  0.1263E-09  0.2880E-01
    -14.961  0.4797E-08  0.2880E-01
    -14.957  0.1299E-06  0.2880E-01
    -14.953  0.2505E-05  0.2880E-01
    -14.949  0.3447E-04  0.2880E-01
    -14.944  0.3384E-03  0.2880E-01
    -14.940  0.2372E-02  0.2881E-01
    -14.936  0.1187E-01  0.2886E-01
    -14.932  0.4245E-01  0.2903E-01
    -14.928  0.1085E+00  0.2948E-01
    -14.924  0.1984E+00  0.3031E-01
    -14.920  0.2594E+00  0.3139E-01
    -14.915  0.2425E+00  0.3239E-01
    -14.911  0.1622E+00  0.3307E-01
    -14.907  0.7755E-01  0.3339E-01
    -14.903  0.2651E-01  0.3350E-01
    -14.899  0.6479E-02  0.3353E-01
    -14.895  0.1131E-02  0.3353E-01
    -14.891  0.1410E-03  0.3353E-01
    -14.886  0.1255E-04  0.3353E-01
    -14.882  0.7963E-06  0.3353E-01
    -14.878  0.3603E-07  0.3353E-01
    -14.874  0.1162E-08  0.3353E-01
    -14.870  0.2669E-10  0.3353E-01
    -14.866  0.4364E-12  0.3353E-01
    -14.861  0.5062E-14  0.3353E-01
    -14.857  0.0000E+00  0.3353E-01
    -14.853  0.0000E+00  0.3353E-01
    -14.849  0.0000E+00  0.3353E-01
    -14.845  0.0000E+00  0.3353E-01
    -14.841  0.0000E+00  0.3353E-01
    -14.837  0.0000E+00  0.3353E-01
    -14.832  0.0000E+00  0.3353E-01
    -14.828  0.0000E+00  0.3353E-01
    -14.824  0.0000E+00  0.3353E-01
    -14.820  0.0000E+00  0.3353E-01
    -14.816  0.0000E+00  0.3353E-01
    -14.812  0.0000E+00  0.3353E-01
    -14.807  0.0000E+00  0.3353E-01
    -14.803  0.0000E+00  0.3353E-01
    -14.799  0.0000E+00  0.3353E-01
    -14.795  0.0000E+00  0.3353E-01
    -14.791  0.0000E+00  0.3353E-01
    -14.787  0.0000E+00  0.3353E-01
    -14.783  0.0000E+00  0.3353E-01
    -14.778  0.0000E+00  0.3353E-01
    -14.774  0.0000E+00  0.3353E-01
    -14.770  0.0000E+00  0.3353E-01
    -14.766  0.0000E+00  0.3353E-01
    -14.762  0.0000E+00  0.3353E-01
    -14.758  0.0000E+00  0.3353E-01
    -14.753  0.0000E+00  0.3353E-01
    -14.749  0.0000E+00  0.3353E-01
    -14.745  0.0000E+00  0.3353E-01
    -14.741  0.0000E+00  0.3353E-01
    -14.737  0.0000E+00  0.3353E-01
    -14.733  0.0000E+00  0.3353E-01
    -14.729  0.1265E-15  0.3353E-01
    -14.724  0.1279E-13  0.3353E-01
    -14.720  0.9749E-12  0.3353E-01
    -14.716  0.5286E-10  0.3353E-01
    -14.712  0.2040E-08  0.3353E-01
    -14.708  0.5611E-07  0.3353E-01
    -14.704  0.1100E-05  0.3353E-01
    -14.699  0.1537E-04  0.3353E-01
    -14.695  0.1533E-03  0.3353E-01
    -14.691  0.1091E-02  0.3354E-01
    -14.687  0.5548E-02  0.3356E-01
    -14.683  0.2015E-01  0.3364E-01
    -14.679  0.5233E-01  0.3386E-01
    -14.675  0.9717E-01  0.3426E-01
    -14.670  0.1290E+00  0.3480E-01
    -14.666  0.1225E+00  0.3531E-01
    -14.662  0.8323E-01  0.3565E-01
    -14.658  0.4043E-01  0.3582E-01
    -14.654  0.1404E-01  0.3588E-01
    -14.650  0.3485E-02  0.3589E-01
    -14.645  0.6180E-03  0.3590E-01
    -14.641  0.7826E-04  0.3590E-01
    -14.637  0.7074E-05  0.3590E-01
    -14.633  0.4561E-06  0.3590E-01
    -14.629  0.2097E-07  0.3590E-01
    -14.625  0.6869E-09  0.3590E-01
    -14.621  0.1603E-10  0.3590E-01
    -14.616  0.2663E-12  0.3590E-01
    -14.612  0.3164E-14  0.3590E-01
    -14.608  0.0000E+00  0.3590E-01
    -14.604  0.0000E+00  0.3590E-01
    -14.600  0.0000E+00  0.3590E-01
    -14.596  0.0000E+00  0.3590E-01
    -14.591  0.0000E+00  0.3590E-01
    -14.587  0.0000E+00  0.3590E-01
    -14.583  0.0000E+00  0.3590E-01
    -14.579  0.0000E+00  0.3590E-01
    -14.575  0.0000E+00  0.3590E-01
    -14.571  0.0000E+00  0.3590E-01
    -14.567  0.0000E+00  0.3590E-01
    -14.562  0.0000E+00  0.3590E-01
    -14.558  0.1265E-15  0.3590E-01
    -14.554  0.1233E-13  0.3590E-01
    -14.550  0.9425E-12  0.3590E-01
    -14.546  0.5124E-10  0.3590E-01
    -14.542  0.1983E-08  0.3590E-01
    -14.538  0.5469E-07  0.3590E-01
    -14.533  0.1075E-05  0.3590E-01
    -14.529  0.1506E-04  0.3590E-01
    -14.525  0.1506E-03  0.3590E-01
    -14.521  0.1075E-02  0.3590E-01
    -14.517  0.5482E-02  0.3593E-01
    -14.513  0.1997E-01  0.3601E-01
    -14.508  0.5200E-01  0.3622E-01
    -14.504  0.9681E-01  0.3663E-01
    -14.500  0.1289E+00  0.3716E-01
    -14.496  0.1228E+00  0.3767E-01
    -14.492  0.8361E-01  0.3802E-01
    -14.488  0.4072E-01  0.3819E-01
    -14.484  0.1419E-01  0.3825E-01
    -14.479  0.3640E-02  0.3826E-01
    -14.475  0.1546E-02  0.3827E-01
    -14.471  0.5537E-02  0.3829E-01
    -14.467  0.2316E-01  0.3839E-01
    -14.463  0.7022E-01  0.3868E-01
    -14.459  0.1522E+00  0.3931E-01
    -14.454  0.2360E+00  0.4029E-01
    -14.450  0.2617E+00  0.4138E-01
    -14.446  0.2075E+00  0.4224E-01
    -14.442  0.1177E+00  0.4273E-01
    -14.438  0.4773E-01  0.4293E-01
    -14.434  0.1384E-01  0.4298E-01
    -14.430  0.2866E-02  0.4300E-01
    -14.425  0.4241E-03  0.4300E-01
    -14.421  0.4479E-04  0.4300E-01
    -14.417  0.3376E-05  0.4300E-01
    -14.413  0.1815E-06  0.4300E-01
    -14.409  0.6954E-08  0.4300E-01
    -14.405  0.1898E-09  0.4300E-01
    -14.400  0.3689E-11  0.4300E-01
    -14.396  0.5100E-13  0.4300E-01
    -14.392  0.5062E-15  0.4300E-01
    -14.388  0.0000E+00  0.4300E-01
    -14.384  0.0000E+00  0.4300E-01
    -14.380  0.1898E-15  0.4300E-01
    -14.376  0.1995E-13  0.4300E-01
    -14.371  0.1549E-11  0.4300E-01
    -14.367  0.8559E-10  0.4300E-01
    -14.363  0.3366E-08  0.4300E-01
    -14.359  0.9431E-07  0.4300E-01
    -14.355  0.1883E-05  0.4300E-01
    -14.351  0.2682E-04  0.4300E-01
    -14.346  0.2724E-03  0.4300E-01
    -14.342  0.1976E-02  0.4301E-01
    -14.338  0.1023E-01  0.4305E-01
    -14.334  0.3787E-01  0.4321E-01
    -14.330  0.1002E+00  0.4362E-01
    -14.326  0.1895E+00  0.4441E-01
    -14.322  0.2563E+00  0.4547E-01
    -14.317  0.2479E+00  0.4650E-01
    -14.313  0.1715E+00  0.4722E-01
    -14.309  0.8488E-01  0.4757E-01
    -14.305  0.3003E-01  0.4769E-01
    -14.301  0.7593E-02  0.4773E-01
    -14.297  0.1372E-02  0.4773E-01
    -14.292  0.1769E-03  0.4773E-01
    -14.288  0.1629E-04  0.4773E-01
    -14.284  0.1070E-05  0.4773E-01
    -14.280  0.5013E-07  0.4773E-01
    -14.276  0.1673E-08  0.4773E-01
    -14.272  0.3978E-10  0.4773E-01
    -14.268  0.6734E-12  0.4773E-01
    -14.263  0.8099E-14  0.4773E-01
    -14.259  0.0000E+00  0.4773E-01
    -14.255  0.0000E+00  0.4773E-01
    -14.251  0.0000E+00  0.4773E-01
    -14.247  0.0000E+00  0.4773E-01
    -14.243  0.0000E+00  0.4773E-01
    -14.238  0.0000E+00  0.4773E-01
    -14.234  0.0000E+00  0.4773E-01
    -14.230  0.0000E+00  0.4773E-01
    -14.226  0.0000E+00  0.4773E-01
    -14.222  0.0000E+00  0.4773E-01
    -14.218  0.0000E+00  0.4773E-01
    -14.214  0.0000E+00  0.4773E-01
    -14.209  0.0000E+00  0.4773E-01
    -14.205  0.0000E+00  0.4773E-01
    -14.201  0.9280E-15  0.4773E-01
    -14.197  0.8561E-13  0.4773E-01
    -14.193  0.5635E-11  0.4773E-01
    -14.189  0.2641E-09  0.4773E-01
    -14.185  0.8813E-08  0.4773E-01
    -14.180  0.2096E-06  0.4773E-01