    2    2   30    1
  0.9013366E+02  0.3606893E-09  0.3606893E-09  0.1600000E-08  0.5000000E-15
  1.000000000000000E-004
  CAR 
 unknown system                          
     10     56     12
 
  0.0000000E+00  0.0000000E+00  0.0000000E+00  0.1972387E-02
      1        -16.473914   1.000000
      2        -10.186997   1.000000
      3         -3.563486   1.000000
      4         -3.014530   1.000000
      5         -3.014530   1.000000
      6         -1.092584   0.000000
      7          0.475917   0.000000
      8          0.475917   0.000000
      9          1.903346   0.000000
     10          1.999215   0.000000
     11          3.382589   0.000000
     12          4.305493   0.000000
 
  0.7692308E-01  0.1387779E-16  0.0000000E+00  0.1183432E-01
      1        -16.395519   1.000000
      2        -10.176488   1.000000
      3         -3.804656   1.000000
      4         -3.525439   1.000000
      5         -3.191743   1.000000
      6         -0.508696   0.000000
      7          0.354252   0.000000
      8          0.656850   0.000000
      9          2.015805   0.000000
     10          2.095098   0.000000
     11          3.468489   0.000000
     12          4.399020   0.000000
 
  0.1538462E+00  0.1387779E-16  0.0000000E+00  0.1183432E-01
      1        -16.162280   1.000000
      2        -10.178883   1.000000
      3         -5.025441   1.000000
      4         -3.599327   1.000000
      5         -3.438310   1.000000
      6         -0.675327   0.000000
      7          0.923568   0.000000
      8          1.034130   0.000000
      9          2.288173   0.000000
     10          2.406004   0.000000
     11          3.683660   0.000000
     12          4.644787   0.000000
 
  0.2307692E+00 -0.1387779E-16  0.0000000E+00  0.1183432E-01
      1        -15.781181   1.000000
      2        -10.307932   1.000000
      3         -6.028143   1.000000
      4         -4.051760   1.000000
      5         -3.409433   1.000000
      6         -1.199100   0.000000
      7          1.309396   0.000000
      8          1.345088   0.000000
      9          2.596626   0.000000
     10          2.860792   0.000000
     11          4.032532   0.000000
     12          4.896700   0.000000
 
  0.3076923E+00  0.2775558E-16  0.0000000E+00  0.1183432E-01
      1        -15.269086   1.000000
      2        -10.718955   1.000000
      3         -6.558305   1.000000
      4         -4.442682   1.000000
      5         -3.631322   1.000000
      6         -1.417980   0.000000
      7          0.987726   0.000000
      8          1.484416   0.000000
      9          3.129894   0.000000
     10          3.344817   0.000000
     11          4.290047   0.000000
     12          5.368997   0.000000
 
  0.3846154E+00  0.0000000E+00  0.0000000E+00  0.1183432E-01
      1        -14.671037   1.000000
      2        -11.389910   1.000000
      3         -6.606219   1.000000
      4         -4.721951   1.000000
      5         -4.098929   1.000000
      6         -1.290148   0.000000
      7          0.496730   0.000000
      8          1.504838   0.000000
      9          3.502147   0.000000
     10          3.909705   0.000000
     11          4.575981   0.000000
     12          5.799591   0.000000
 
  0.4615385E+00 -0.2775558E-16  0.0000000E+00  0.1183432E-01
      1        -14.145398   1.000000
      2        -12.008551   1.000000
      3         -6.446943   1.000000
      4         -4.866286   1.000000
      5         -4.511399   1.000000
      6         -1.085465   0.000000
      7          0.171326   0.000000
      8          1.491405   0.000000
      9          3.301114   0.000000
     10          4.855377   0.000000
     11          5.300851   0.000000
     12          5.907926   0.000000
 
  0.7692308E-01  0.7692308E-01  0.0000000E+00  0.1183432E-01
      1        -16.239662   1.000000
      2        -10.171780   1.000000
      3         -4.661615   1.000000
      4         -3.589307   1.000000
      5         -3.455777   1.000000
      6         -0.007651   0.000000
      7          0.032172   0.000000
      8          1.143692   0.000000
      9          2.242347   0.000000
     10          2.270992   0.000000
     11          3.608739   0.000000
     12          4.578657   0.000000
 
  0.1538462E+00  0.7692308E-01  0.0000000E+00  0.2366864E-01
      1        -15.932095   1.000000
      2        -10.233481   1.000000
      3         -5.629862   1.000000
      4         -4.168807   1.000000
      5         -3.383317   1.000000
      6         -0.535964   0.000000
      7          0.640552   0.000000
      8          1.560875   0.000000
      9          2.529960   0.000000
     10          2.659962   0.000000
     11          3.834546   0.000000
     12          4.844764   0.000000
 
  0.2307692E+00  0.7692308E-01  0.0000000E+00  0.2366864E-01
      1        -15.483603   1.000000
      2        -10.503071   1.000000
      3         -6.327054   1.000000
      4         -4.682196   1.000000
      5         -3.440229   1.000000
      6         -0.948292   0.000000
      7          1.046486   0.000000
      8          1.410294   0.000000
      9          2.910177   0.000000
     10          3.163300   0.000000
     11          4.187012   0.000000
     12          5.149347   0.000000
 
  0.3076923E+00  0.7692308E-01  0.0000000E+00  0.2366864E-01
      1        -14.920413   1.000000
      2        -11.065468   1.000000
      3         -6.580108   1.000000
      4         -5.037284   1.000000
      5         -3.773476   1.000000
      6         -1.004513   0.000000
      7          0.863747   0.000000
      8          1.214367   0.000000
      9          3.565435   0.000000
     10          3.630108   0.000000
     11          4.424589   0.000000
     12          5.627230   0.000000
 
  0.3846154E+00  0.7692308E-01  0.0000000E+00  0.2366864E-01
      1        -14.321965   1.000000
      2        -11.758656   1.000000
      3         -6.523950   1.000000
      4         -5.178010   1.000000
      5         -4.272657   1.000000
      6         -0.775238   0.000000
      7          0.331845   0.000000
      8          1.290344   0.000000
      9          3.520327   0.000000
     10          4.449094   0.000000
     11          4.986012   0.000000
     12          6.108253   0.000000
 
  0.4615385E+00  0.7692308E-01  0.0000000E+00  0.1183432E-01
      1        -13.990026   1.000000
      2        -12.139980   1.000000
      3         -6.454273   1.000000
      4         -5.146115   1.000000
      5         -4.571390   1.000000
      6         -0.567167   0.000000
      7          0.044359   0.000000
      8          1.324002   0.000000
      9          3.360872   0.000000
     10          5.432325   0.000000
     11          5.472193   0.000000
     12          5.782013   0.000000
 
  0.1538462E+00  0.1538462E+00  0.0000000E+00  0.1183432E-01
      1        -15.555931   1.000000
      2        -10.431227   1.000000
      3         -6.111769   1.000000
      4         -4.997494   1.000000
      5         -3.382200   1.000000
      6         -0.260797   0.000000
      7          0.463129   0.000000
      8          1.693176   0.000000
      9          2.943259   0.000000
     10          2.998400   0.000000
     11          3.960891   0.000000
     12          5.024410   0.000000
 
  0.2307692E+00  0.1538462E+00  0.0000000E+00  0.2366864E-01
      1        -15.049559   1.000000
      2        -10.869556   1.000000
      3         -6.363045   1.000000
      4         -5.620483   1.000000
      5         -3.567392   1.000000
      6         -0.344898   0.000000
      7          0.523840   0.000000
      8          1.545897   0.000000
      9          3.442628   0.000000
     10          3.580307   0.000000
     11          4.327713   0.000000
     12          5.443768   0.000000
 
  0.3076923E+00  0.1538462E+00  0.0000000E+00  0.2366864E-01
      1        -14.453164   1.000000
      2        -11.511587   1.000000
      3         -6.527295   1.000000
      4         -5.765714   1.000000
      5         -3.990573   1.000000
      6         -0.348151   0.000000
      7          0.484729   0.000000
      8          1.313924   0.000000
      9          3.919098   0.000000
     10          4.219247   0.000000
     11          4.803196   0.000000
     12          5.999815   0.000000
 
  0.3846154E+00  0.1538462E+00  0.0000000E+00  0.2366864E-01
      1        -13.911588   1.000000
      2        -12.114537   1.000000
      3         -6.672809   1.000000
      4         -5.520179   1.000000
      5         -4.472175   1.000000
      6         -0.284779   0.000000
      7          0.449874   0.000000
      8          1.172004   0.000000
      9          3.742204   0.000000
     10          5.171877   0.000000
     11          5.578079   0.000000
     12          6.178567   0.000000
 
  0.2307692E+00  0.2307692E+00  0.0000000E+00  0.1183432E-01
      1        -14.500729   1.000000
      2        -11.406365   1.000000
      3         -6.437172   1.000000
      4         -6.107532   1.000000
      5         -3.867905   1.000000
      6         -0.142761   0.000000
      7          0.229479   0.000000
      8          1.811083   0.000000
      9          4.089097   0.000000
     10          4.171164   0.000000
     11          4.771977   0.000000
     12          5.511317   0.000000
 
  0.3076923E+00  0.2307692E+00  0.0000000E+00  0.2366864E-01
      1        -13.894508   1.000000
      2        -12.031872   1.000000
      3         -6.928951   1.000000
      4         -5.704213   1.000000
      5         -4.317148   1.000000
      6         -0.569827   0.000000
      7          0.743241   0.000000
      8          1.700099   0.000000
      9          4.488878   0.000000
     10          5.004562   0.000000
     11          5.307684   0.000000
     12          5.729240   0.000000
 
  0.3846154E+00  0.2307692E+00  0.0000000E+00  0.1183432E-01
      1        -13.511047   1.000000
      2        -12.427726   1.000000
      3         -7.097438   1.000000
      4         -5.388895   1.000000
      5         -4.647804   1.000000
      6         -0.722263   0.000000
      7          1.230747   0.000000
      8          1.326925   0.000000
      9          4.434753   0.000000
     10          5.446244   0.000000
     11          6.046146   0.000000
     12          6.097720   0.000000
 
  0.3076923E+00  0.3076923E+00  0.0000000E+00  0.1183432E-01
      1        -13.298606   1.000000
      2        -12.597019   1.000000
      3         -7.292459   1.000000
      4         -5.269772   1.000000
      5         -4.726696   1.000000
      6         -0.937935   0.000000
      7          1.281518   0.000000
      8          1.695574   0.000000
      9          5.131136   0.000000
     10          5.541920   0.000000
     11          5.623040   0.000000
     12          6.162383   0.000000
 
  0.0000000E+00  0.0000000E+00  0.3333333E+00  0.3944773E-02
      1        -16.473916   1.000000
      2        -10.186993   1.000000
      3         -3.563488   1.000000
      4         -3.014538   1.000000
      5         -3.014538   1.000000
      6         -1.092675   0.000000
      7          0.475910   0.000000
      8          0.475911   0.000000
      9          1.792664   0.000000
     10          2.189859   0.000000
     11          3.145440   0.000000
     12          4.608977   0.000000
 
  0.7692308E-01  0.1387779E-16  0.3333333E+00  0.1183432E-01
      1        -16.395513   1.000000
      2        -10.176483   1.000000
      3         -3.804654   1.000000
      4         -3.525434   1.000000
      5         -3.191741   1.000000
      6         -0.508818   0.000000
      7          0.354126   0.000000
      8          0.656860   0.000000
      9          1.905201   0.000000
     10          2.281683   0.000000
     11          3.243640   0.000000
     12          4.680659   0.000000
 
  0.0000000E+00  0.7692308E-01  0.3333333E+00  0.1183432E-01
      1        -16.395514   1.000000
      2        -10.176482   1.000000
      3         -3.804648   1.000000
      4         -3.525433   1.000000
      5         -3.191739   1.000000
      6         -0.508855   0.000000
      7          0.354321   0.000000
      8          0.656855   0.000000
      9          1.899977   0.000000
     10          2.290975   0.000000
     11          3.235110   0.000000
     12          4.694555   0.000000
 
  0.1538462E+00  0.1387779E-16  0.3333333E+00  0.1183432E-01
      1        -16.162277   1.000000
      2        -10.178883   1.000000
      3         -5.025437   1.000000
      4         -3.599323   1.000000
      5         -3.438305   1.000000
      6         -0.675314   0.000000
      7          0.921720   0.000000
      8          1.034127   0.000000
      9          2.224548   0.000000
     10          2.526013   0.000000
     11          3.535961   0.000000
     12          4.665037   0.000000
 
  0.0000000E+00  0.1538462E+00  0.3333333E+00  0.1183432E-01
      1        -16.162277   1.000000
      2        -10.178885   1.000000
      3         -5.025440   1.000000
      4         -3.599325   1.000000
      5         -3.438309   1.000000
      6         -0.675353   0.000000
      7          0.923097   0.000000
      8          1.034131   0.000000
      9          2.184568   0.000000
     10          2.597012   0.000000
     11          3.461910   0.000000
     12          4.812233   0.000000
 
  0.2307692E+00 -0.1387779E-16  0.3333333E+00  0.1183432E-01
      1        -15.781181   1.000000
      2        -10.307940   1.000000
      3         -6.028147   1.000000
      4         -4.051762   1.000000
      5         -3.409430   1.000000
      6         -1.199089   0.000000
      7          1.308407   0.000000
      8          1.345079   0.000000
      9          2.547207   0.000000
     10          2.967408   0.000000
     11          3.946220   0.000000
     12          4.702903   0.000000
 
  0.0000000E+00  0.2307692E+00  0.3333333E+00  0.1183432E-01
      1        -15.781181   1.000000
      2        -10.307941   1.000000
      3         -6.028144   1.000000
      4         -4.051762   1.000000
      5         -3.409429   1.000000
      6         -1.199103   0.000000
      7          1.309943   0.000000
      8          1.345078   0.000000
      9          2.510827   0.000000
     10          3.054826   0.000000
     11          3.798919   0.000000
     12          4.975419   0.000000
 
  0.3076923E+00  0.2775558E-16  0.3333333E+00  0.1183432E-01
      1        -15.269085   1.000000
      2        -10.718954   1.000000
      3         -6.558304   1.000000
      4         -4.442682   1.000000
      5         -3.631321   1.000000
      6         -1.417966   0.000000
      7          0.987759   0.000000
      8          1.484410   0.000000
      9          3.066635   0.000000
     10          3.438745   0.000000
     11          4.414455   0.000000
     12          4.807225   0.000000
 
  0.0000000E+00  0.3076923E+00  0.3333333E+00  0.1183432E-01
      1        -15.269086   1.000000
      2        -10.718953   1.000000
      3         -6.558303   1.000000
      4         -4.442686   1.000000
      5         -3.631318   1.000000
      6         -1.417973   0.000000
      7          0.987894   0.000000
      8          1.484413   0.000000
      9          3.057824   0.000000
     10          3.463412   0.000000
     11          4.302570   0.000000
     12          4.990750   0.000000
 
  0.3846154E+00  0.0000000E+00  0.3333333E+00  0.1183432E-01
      1        -14.671041   1.000000
      2        -11.389910   1.000000
      3         -6.606223   1.000000
      4         -4.721952   1.000000
      5         -4.098930   1.000000
      6         -1.290150   0.000000
      7          0.496747   0.000000
      8          1.504833   0.000000
      9          3.510558   0.000000
     10          3.850055   0.000000
     11          4.832478   0.000000
     12          5.309294   0.000000
 
  0.0000000E+00  0.3846154E+00  0.3333333E+00  0.1183432E-01
      1        -14.671042   1.000000
      2        -11.389909   1.000000
      3         -6.606222   1.000000
      4         -4.721954   1.000000
      5         -4.098936   1.000000
      6         -1.290147   0.000000
      7          0.496749   0.000000
      8          1.504837   0.000000
      9          3.514687   0.000000
     10          3.848441   0.000000
     11          4.761790   0.000000
     12          5.465975   0.000000
 
  0.4615385E+00 -0.2775558E-16  0.3333333E+00  0.1183432E-01
      1        -14.145394   1.000000
      2        -12.008549   1.000000
      3         -6.446938   1.000000
      4         -4.866292   1.000000
      5         -4.511402   1.000000
      6         -1.085469   0.000000
      7          0.171328   0.000000
      8          1.491402   0.000000
      9          3.301809   0.000000
     10          4.796642   0.000000
     11          5.448933   0.000000
     12          5.958853   0.000000
 
  0.0000000E+00  0.4615385E+00  0.3333333E+00  0.1183432E-01
      1        -14.145396   1.000000
      2        -12.008547   1.000000
      3         -6.446939   1.000000
      4         -4.866291   1.000000
      5         -4.511398   1.000000
      6         -1.085468   0.000000
      7          0.171325   0.000000
      8          1.491402   0.000000
      9          3.301999   0.000000
     10          4.810858   0.000000
     11          5.371933   0.000000
     12          5.939328   0.000000
 
  0.7692308E-01  0.7692308E-01  0.3333333E+00  0.2366864E-01
      1        -16.239656   1.000000
      2        -10.171778   1.000000
      3         -4.661614   1.000000
      4         -3.589310   1.000000
      5         -3.455774   1.000000
      6         -0.007864   0.000000
      7          0.032248   0.000000
      8          1.142287   0.000000
      9          2.124109   0.000000
     10          2.460482   0.000000
     11          3.416436   0.000000
     12          4.728505   0.000000
 
  0.1538462E+00  0.7692308E-01  0.3333333E+00  0.2366864E-01
      1        -15.932103   1.000000
      2        -10.233488   1.000000
      3         -5.629864   1.000000
      4         -4.168806   1.000000
      5         -3.383314   1.000000
      6         -0.535922   0.000000
      7          0.640309   0.000000
      8          1.557991   0.000000
      9          2.476405   0.000000
     10          2.762084   0.000000
     11          3.775329   0.000000
     12          4.544100   0.000000
 
 -0.7692308E-01  0.2307692E+00  0.3333333E+00  0.2366864E-01
      1        -15.932103   1.000000
      2        -10.233486   1.000000
      3         -5.629865   1.000000
      4         -4.168808   1.000000
      5         -3.383314   1.000000
      6         -0.535959   0.000000
      7          0.640576   0.000000
      8          1.559368   0.000000
      9          2.435535   0.000000
     10          2.835698   0.000000
     11          3.679794   0.000000
     12          4.684624   0.000000
 
  0.2307692E+00  0.7692308E-01  0.3333333E+00  0.2366864E-01
      1        -15.483603   1.000000
      2        -10.503066   1.000000
      3         -6.327048   1.000000
      4         -4.682193   1.000000
      5         -3.440222   1.000000
      6         -0.948268   0.000000
      7          1.046426   0.000000
      8          1.410128   0.000000
      9          2.855012   0.000000
     10          3.260342   0.000000
     11          4.253265   0.000000
     12          4.678780   0.000000
 
 -0.7692308E-01  0.3076923E+00  0.3333333E+00  0.2366864E-01
      1        -15.483602   1.000000
      2        -10.503067   1.000000
      3         -6.327049   1.000000
      4         -4.682189   1.000000
      5         -3.440218   1.000000
      6         -0.948283   0.000000
      7          1.046627   0.000000
      8          1.410453   0.000000
      9          2.830047   0.000000
     10          3.326344   0.000000
     11          4.085755   0.000000
     12          4.912558   0.000000
 
  0.3076923E+00  0.7692308E-01  0.3333333E+00  0.2366864E-01
      1        -14.920410   1.000000
      2        -11.065463   1.000000
      3         -6.580107   1.000000
      4         -5.037281   1.000000
      5         -3.773475   1.000000
      6         -1.004502   0.000000
      7          0.863756   0.000000
      8          1.214383   0.000000
      9          3.512510   0.000000
     10          3.662215   0.000000
     11          4.666866   0.000000
     12          5.039178   0.000000
 
 -0.7692308E-01  0.3846154E+00  0.3333333E+00  0.2366864E-01
      1        -14.920409   1.000000
      2        -11.065465   1.000000
      3         -6.580105   1.000000
      4         -5.037280   1.000000
      5         -3.773477   1.000000
      6         -1.004506   0.000000
      7          0.863778   0.000000
      8          1.214433   0.000000
      9          3.498416   0.000000
     10          3.688054   0.000000
     11          4.567479   0.000000
     12          5.195705   0.000000
 
  0.3846154E+00  0.7692308E-01  0.3333333E+00  0.2366864E-01
      1        -14.321962   1.000000
      2        -11.758659   1.000000
      3         -6.523952   1.000000
      4         -5.178010   1.000000
      5         -4.272664   1.000000
      6         -0.775237   0.000000
      7          0.331852   0.000000
      8          1.290355   0.000000
      9          3.522526   0.000000
     10          4.385966   0.000000
     11          5.212922   0.000000
     12          5.795801   0.000000
 
 -0.7692308E-01  0.4615385E+00  0.3333333E+00  0.2366864E-01
      1        -14.321962   1.000000
      2        -11.758661   1.000000
      3         -6.523952   1.000000
      4         -5.178008   1.000000
      5         -4.272660   1.000000
      6         -0.775238   0.000000
      7          0.331850   0.000000
      8          1.290363   0.000000
      9          3.523207   0.000000
     10          4.390872   0.000000
     11          5.151570   0.000000
     12          5.931831   0.000000
 
  0.4615385E+00  0.7692308E-01  0.3333333E+00  0.2366864E-01
      1        -13.990030   1.000000
      2        -12.139984   1.000000
      3         -6.454272   1.000000
      4         -5.146117   1.000000
      5         -4.571384   1.000000
      6         -0.567165   0.000000
      7          0.044363   0.000000
      8          1.324005   0.000000
      9          3.361346   0.000000
     10          5.399772   0.000000
     11          5.425524   0.000000
     12          5.824510   0.000000
 
  0.1538462E+00  0.1538462E+00  0.3333333E+00  0.2366864E-01
      1        -15.555931   1.000000
      2        -10.431228   1.000000
      3         -6.111771   1.000000
      4         -4.997494   1.000000
      5         -3.382192   1.000000
      6         -0.260743   0.000000
      7          0.463088   0.000000
      8          1.692302   0.000000
      9          2.847788   0.000000
     10          3.124792   0.000000
     11          4.051371   0.000000
     12          4.530373   0.000000
 
  0.2307692E+00  0.1538462E+00  0.3333333E+00  0.2366864E-01
      1        -15.049553   1.000000
      2        -10.869555   1.000000
      3         -6.363045   1.000000
      4         -5.620480   1.000000
      5         -3.567388   1.000000
      6         -0.344874   0.000000
      7          0.523839   0.000000
      8          1.545756   0.000000
      9          3.394735   0.000000
     10          3.617365   0.000000
     11          4.552936   0.000000
     12          4.899966   0.000000
 
 -0.1538462E+00  0.3846154E+00  0.3333333E+00  0.2366864E-01
      1        -15.049553   1.000000
      2        -10.869552   1.000000
      3         -6.363045   1.000000
      4         -5.620482   1.000000
      5         -3.567388   1.000000
      6         -0.344886   0.000000
      7          0.523860   0.000000
      8          1.545900   0.000000
      9          3.368497   0.000000
     10          3.669012   0.000000
     11          4.438407   0.000000
     12          5.033900   0.000000
 
  0.3076923E+00  0.1538462E+00  0.3333333E+00  0.2366864E-01
      1        -14.453169   1.000000
      2        -11.511586   1.000000
      3         -6.527295   1.000000
      4         -5.765717   1.000000
      5         -3.990576   1.000000
      6         -0.348147   0.000000
      7          0.484734   0.000000
      8          1.313915   0.000000
      9          3.931882   0.000000
     10          4.151244   0.000000
     11          5.027357   0.000000
     12          5.597043   0.000000
 
 -0.1538462E+00  0.4615385E+00  0.3333333E+00  0.2366864E-01
      1        -14.453169   1.000000
      2        -11.511585   1.000000
      3         -6.527296   1.000000
      4         -5.765718   1.000000
      5         -3.990578   1.000000
      6         -0.348151   0.000000
      7          0.484734   0.000000
      8          1.313949   0.000000
      9          3.930297   0.000000
     10          4.157307   0.000000
     11          4.988298   0.000000
     12          5.666123   0.000000
 
  0.3846154E+00  0.1538462E+00  0.3333333E+00  0.2366864E-01
      1        -13.911590   1.000000
      2        -12.114533   1.000000
      3         -6.672807   1.000000
      4         -5.520177   1.000000
      5         -4.472168   1.000000
      6         -0.284771   0.000000
      7          0.449877   0.000000
      8          1.172011   0.000000
      9          3.742861   0.000000
     10          5.109639   0.000000
     11          5.743273   0.000000
     12          6.177115   0.000000
 
 -0.1538462E+00 -0.4615385E+00  0.3333333E+00  0.2366864E-01
      1        -13.911590   1.000000
      2        -12.114535   1.000000
      3         -6.672806   1.000000
      4         -5.520177   1.000000
      5         -4.472167   1.000000
      6         -0.284775   0.000000
      7          0.449875   0.000000
      8          1.172018   0.000000
      9          3.743138   0.000000
     10          5.114441   0.000000
     11          5.702818   0.000000
     12          6.152127   0.000000
 
  0.2307692E+00  0.2307692E+00  0.3333333E+00  0.2366864E-01
      1        -14.500738   1.000000
      2        -11.406373   1.000000
      3         -6.437176   1.000000
      4         -6.107538   1.000000
      5         -3.867911   1.000000
      6         -0.142766   0.000000
      7          0.229504   0.000000
      8          1.811044   0.000000
      9          4.082821   0.000000
     10          4.138102   0.000000
     11          4.949389   0.000000
     12          5.478270   0.000000
 
  0.3076923E+00  0.2307692E+00  0.3333333E+00  0.2366864E-01
      1        -13.894505   1.000000
      2        -12.031871   1.000000
      3         -6.928949   1.000000
      4         -5.704211   1.000000
      5         -4.317147   1.000000
      6         -0.569825   0.000000
      7          0.743261   0.000000
      8          1.700101   0.000000
      9          4.490426   0.000000
     10          4.952634   0.000000
     11          5.391451   0.000000
     12          5.714157   0.000000
 
 -0.2307692E+00 -0.4615385E+00  0.3333333E+00  0.2366864E-01
      1        -13.894507   1.000000
      2        -12.031867   1.000000
      3         -6.928949   1.000000
      4         -5.704211   1.000000
      5         -4.317147   1.000000
      6         -0.569826   0.000000
      7          0.743259   0.000000
      8          1.700103   0.000000
      9          4.494746   0.000000
     10          4.940392   0.000000
     11          5.379472   0.000000
     12          5.770978   0.000000
 
  0.3846154E+00  0.2307692E+00  0.3333333E+00  0.2366864E-01
      1        -13.511041   1.000000
      2        -12.427722   1.000000
      3         -7.097437   1.000000
      4         -5.388887   1.000000
      5         -4.647793   1.000000
      6         -0.722258   0.000000
      7          1.230762   0.000000
      8          1.326940   0.000000
      9          4.435286   0.000000
     10          5.451420   0.000000
     11          5.990896   0.000000
     12          6.043026   0.000000
 
  0.3076923E+00  0.3076923E+00  0.3333333E+00  0.2366864E-01
      1        -13.298603   1.000000
      2        -12.597026   1.000000
      3         -7.292459   1.000000
      4         -5.269767   1.000000
      5         -4.726697   1.000000
      6         -0.937934   0.000000
      7          1.281532   0.000000
      8          1.695580   0.000000
      9          5.133671   0.000000
     10          5.534399   0.000000
     11          5.631501   0.000000
     12          6.101495   0.000000
