       N       E                     dE             d eps       ncg     rms          rms(c)
DAV:   1     0.483417328418E+02    0.48342E+02   -0.27940E+03  1344   0.480E+02
DAV:   2    -0.408337795921E+01   -0.52425E+02   -0.49049E+02  1976   0.923E+01
DAV:   3    -0.922271236828E+01   -0.51393E+01   -0.51076E+01  1852   0.337E+01
DAV:   4    -0.939583667661E+01   -0.17312E+00   -0.17309E+00  1736   0.675E+00
DAV:   5    -0.940328823522E+01   -0.74516E-02   -0.74515E-02  1936   0.119E+00
DAV:   6    -0.940346725221E+01   -0.17902E-03   -0.17902E-03  1832   0.157E-01
DAV:   7    -0.940347228114E+01   -0.50289E-05   -0.50289E-05  1944   0.231E-02
DAV:   8    -0.940347234991E+01   -0.68766E-07   -0.68761E-07  1384   0.263E-03
DAV:   9    -0.940347235370E+01   -0.37910E-08   -0.37974E-08  1000   0.808E-04
DAV:  10    -0.940347235512E+01   -0.14195E-08   -0.13947E-08   900   0.482E-04
DAV:  11    -0.940347235576E+01   -0.64574E-09   -0.66561E-09   816   0.316E-04
DAV:  12    -0.940347235611E+01   -0.34254E-09   -0.33178E-09   776   0.215E-04    0.193E+00
DAV:  13    -0.938902284471E+01    0.14450E-01   -0.24009E-03  1620   0.228E-01    0.172E+00
DAV:  14    -0.934617628036E+01    0.42847E-01   -0.13632E-01  1612   0.170E+00    0.223E-01
DAV:  15    -0.934256782219E+01    0.36085E-02   -0.13647E-02  1576   0.523E-01    0.111E-01
DAV:  16    -0.934271285716E+01   -0.14503E-03   -0.10703E-03  1896   0.165E-01    0.499E-02
DAV:  17    -0.934260157185E+01    0.11129E-03   -0.62318E-04  1652   0.114E-01    0.401E-02
DAV:  18    -0.934259507427E+01    0.64976E-05   -0.13943E-04  1504   0.520E-02    0.648E-03
DAV:  19    -0.934259460320E+01    0.47107E-06   -0.91982E-06  1704   0.171E-02
   1 F= -.93425946E+01 E0= -.93425946E+01  d E =-.934259E+01
