 vasp.6.4.2 20Jul23 (build Nov 14 2023 12:59:38) complex                        
  
 executed on             LinuxIFC date 2023.12.16  19:20:24
 running   16 mpi-ranks, on    1 nodes
 distrk:  each k-point on   16 cores,    1 groups
 distr:  one band on NCORE=   4 cores,    4 groups


--------------------------------------------------------------------------------------------------------


 INCAR:
   ENCUT = 417.4040
   ALGO = Normal
   NELM = 200
   NELMIN = 6
   NELMDL = -12
   EDIFF = 1.0E-6
   AMIX = 0.1
   BMIX = 0.0001
   PREC = Accurate
   IVDW = 0
   ISPIN = 1
   ADDGRID = .TRUE.
   LASPH = .TRUE.
   NSW = 30
   EDIFFG = -0.010
   IBRION = 2
   ISIF = 3
   POTIM = 0.5
   STRESSTYPE = 2
   ISMEAR = 0
   SIGMA = 0.01
   LORBIT = 10
   NEDOS = 6001
   NWRITE = 1
   LWAVE = .FALSE.
   LCHARG = .FALSE.
   NCORE = 4
   LPLANE = .TRUE.

 POTCAR:    PAW_PBE As_GW 20Mar2012               
 POTCAR:    PAW_PBE As_GW 20Mar2012               
  local pseudopotential read in
  partial core-charges read in
  partial kinetic energy density read in
  kinetic energy density of atom read in
  atomic valenz-charges read in
  non local Contribution for L=           0  read in
    real space projection operators read in
  non local Contribution for L=           0  read in
    real space projection operators read in
  non local Contribution for L=           1  read in
    real space projection operators read in
  non local Contribution for L=           1  read in
    real space projection operators read in
  non local Contribution for L=           2  read in
    real space projection operators read in
    PAW grid and wavefunctions read in
 
   number of l-projection  operators is LMAX  =           5
   number of lm-projection operators is LMMAX =          13
 
  PAW_PBE As_GW 20Mar2012               :
 energy of atom  1       EATOM= -170.1867
 kinetic energy error for atom=    0.0011 (will be added to EATOM!!)
 
 
 POSCAR: pnictogen honeycomb monolayer
  positions in direct lattice
  velocities in cartesian coordinates
 exchange correlation table for  LEXCH =        8
   RHO(1)=    0.500       N(1)  =     2000
   RHO(2)=  100.500       N(2)  =     4000
 


--------------------------------------------------------------------------------------------------------


 ion  position               nearest neighbor table
   1  0.667  0.333  0.456-   2 2.51   2 2.51   2 2.51
   2  0.333  0.667  0.544-   1 2.51   1 2.51   1 2.51
 
  LATTYP: Found a hexagonal cell.
 ALAT       =     3.6068925390
 C/A-ratio  =     4.4359513978
  
  Lattice vectors:
  
 A1 = (   3.6068925390,   0.0000000000,   0.0000000000)
 A2 = (  -1.8034462695,   3.1236605675,   0.0000000000)
 A3 = (   0.0000000000,   0.0000000000,  16.0000000000)


Analysis of symmetry for initial positions (statically):
=====================================================================
 Subroutine PRICEL returns:
 Original cell was already a primitive cell.
 

 Routine SETGRP: Setting up the symmetry group for a 
 hexagonal supercell.


 Subroutine GETGRP returns: Found 12 space group operations
 (whereof 12 operations were pure point group operations)
 out of a pool of 24 trial point group operations.


The static configuration has the point symmetry D_3d.


Analysis of symmetry for dynamics (positions and initial velocities):
=====================================================================
 Subroutine PRICEL returns:
 Original cell was already a primitive cell.
 

 Routine SETGRP: Setting up the symmetry group for a 
 hexagonal supercell.


 Subroutine GETGRP returns: Found 12 space group operations
 (whereof 12 operations were pure point group operations)
 out of a pool of 24 trial point group operations.


The dynamic configuration has the point symmetry D_3d.


 Subroutine INISYM returns: Found 12 space group operations
 (whereof 12 operations are pure point group operations),
 and found     1 'primitive' translations


----------------------------------------------------------------------------------------

                                     Primitive cell                                     

  volume of cell :     180.2673

  direct lattice vectors                    reciprocal lattice vectors
     3.606892539  0.000000000  0.000000000     0.277246962  0.160068608  0.000000000
    -1.803446269  3.123660567  0.000000000     0.000000000  0.320137217  0.000000000
     0.000000000  0.000000000 16.000000000     0.000000000  0.000000000  0.062500000

  length of vectors
     3.606892539  3.606892539 16.000000000     0.320137217  0.320137217  0.062500000

  position of ions in fractional coordinates (direct lattice)
     0.666666667  0.333333333  0.456343136
     0.333333333  0.666666667  0.543656864

  ion indices of the primitive-cell ions
   primitive index   ion index
                 1           1
                 2           2

----------------------------------------------------------------------------------------

 
 
 KPOINTS: Fully automatic mesh                    

Automatic generation of k-mesh.
 Grid dimensions derived from RKLEN:
 generate k-points for:   13   13    3

 Generating k-lattice:

  Cartesian coordinates                     Fractional coordinates (reciprocal lattice)
     0.021326689  0.012312970  0.000000000     0.076923077  0.000000000  0.000000000
     0.000000000  0.024625940  0.000000000     0.000000000  0.076923077  0.000000000
     0.000000000  0.000000000  0.020833333     0.000000000  0.000000000  0.333333333

  Length of vectors
     0.024625940  0.024625940  0.020833333

  Shift w.r.t. Gamma in fractional coordinates (k-lattice)
     0.000000000  0.000000000  0.000000000

 
 Subroutine IBZKPT returns following result:
 ===========================================
 
 Found     56 irreducible k-points:
 
 Following reciprocal coordinates:
            Coordinates               Weight
  0.000000  0.000000  0.000000      1.000000
  0.076923  0.000000  0.000000      6.000000
  0.153846  0.000000  0.000000      6.000000
  0.230769 -0.000000  0.000000      6.000000
  0.307692  0.000000  0.000000      6.000000
  0.384615  0.000000  0.000000      6.000000
  0.461538 -0.000000  0.000000      6.000000
  0.076923  0.076923  0.000000      6.000000
  0.153846  0.076923  0.000000     12.000000
  0.230769  0.076923  0.000000     12.000000
  0.307692  0.076923  0.000000     12.000000
  0.384615  0.076923  0.000000     12.000000
  0.461538  0.076923  0.000000      6.000000
  0.153846  0.153846  0.000000      6.000000
  0.230769  0.153846  0.000000     12.000000
  0.307692  0.153846  0.000000     12.000000
  0.384615  0.153846  0.000000     12.000000
  0.230769  0.230769  0.000000      6.000000
  0.307692  0.230769  0.000000     12.000000
  0.384615  0.230769  0.000000      6.000000
  0.307692  0.307692  0.000000      6.000000
  0.000000  0.000000  0.333333      2.000000
  0.076923  0.000000  0.333333      6.000000
  0.000000  0.076923  0.333333      6.000000
  0.153846  0.000000  0.333333      6.000000
  0.000000  0.153846  0.333333      6.000000
  0.230769 -0.000000  0.333333      6.000000
  0.000000  0.230769  0.333333      6.000000
  0.307692  0.000000  0.333333      6.000000
  0.000000  0.307692  0.333333      6.000000
  0.384615  0.000000  0.333333      6.000000
  0.000000  0.384615  0.333333      6.000000
  0.461538 -0.000000  0.333333      6.000000
  0.000000  0.461538  0.333333      6.000000
  0.076923  0.076923  0.333333     12.000000
  0.153846  0.076923  0.333333     12.000000
 -0.076923  0.230769  0.333333     12.000000
  0.230769  0.076923  0.333333     12.000000
 -0.076923  0.307692  0.333333     12.000000
  0.307692  0.076923  0.333333     12.000000
 -0.076923  0.384615  0.333333     12.000000
  0.384615  0.076923  0.333333     12.000000
 -0.076923  0.461538  0.333333     12.000000
  0.461538  0.076923  0.333333     12.000000
  0.153846  0.153846  0.333333     12.000000
  0.230769  0.153846  0.333333     12.000000
 -0.153846  0.384615  0.333333     12.000000
  0.307692  0.153846  0.333333     12.000000
 -0.153846  0.461538  0.333333     12.000000
  0.384615  0.153846  0.333333     12.000000
 -0.153846 -0.461538  0.333333     12.000000
  0.230769  0.230769  0.333333     12.000000
  0.307692  0.230769  0.333333     12.000000
 -0.230769 -0.461538  0.333333     12.000000
  0.384615  0.230769  0.333333     12.000000
  0.307692  0.307692  0.333333     12.000000
 
 Following cartesian coordinates:
            Coordinates               Weight
  0.000000  0.000000  0.000000      1.000000
  0.021327  0.012313  0.000000      6.000000
  0.042653  0.024626  0.000000      6.000000
  0.063980  0.036939  0.000000      6.000000
  0.085307  0.049252  0.000000      6.000000
  0.106633  0.061565  0.000000      6.000000
  0.127960  0.073878  0.000000      6.000000
  0.021327  0.036939  0.000000      6.000000
  0.042653  0.049252  0.000000     12.000000
  0.063980  0.061565  0.000000     12.000000
  0.085307  0.073878  0.000000     12.000000
  0.106633  0.086191  0.000000     12.000000
  0.127960  0.098504  0.000000      6.000000
  0.042653  0.073878  0.000000      6.000000
  0.063980  0.086191  0.000000     12.000000
  0.085307  0.098504  0.000000     12.000000
  0.106633  0.110817  0.000000     12.000000
  0.063980  0.110817  0.000000      6.000000
  0.085307  0.123130  0.000000     12.000000
  0.106633  0.135443  0.000000      6.000000
  0.085307  0.147756  0.000000      6.000000
  0.000000  0.000000  0.020833      2.000000
  0.021327  0.012313  0.020833      6.000000
  0.000000  0.024626  0.020833      6.000000
  0.042653  0.024626  0.020833      6.000000
  0.000000  0.049252  0.020833      6.000000
  0.063980  0.036939  0.020833      6.000000
  0.000000  0.073878  0.020833      6.000000
  0.085307  0.049252  0.020833      6.000000
  0.000000  0.098504  0.020833      6.000000
  0.106633  0.061565  0.020833      6.000000
  0.000000  0.123130  0.020833      6.000000
  0.127960  0.073878  0.020833      6.000000
  0.000000  0.147756  0.020833      6.000000
  0.021327  0.036939  0.020833     12.000000
  0.042653  0.049252  0.020833     12.000000
 -0.021327  0.061565  0.020833     12.000000
  0.063980  0.061565  0.020833     12.000000
 -0.021327  0.086191  0.020833     12.000000
  0.085307  0.073878  0.020833     12.000000
 -0.021327  0.110817  0.020833     12.000000
  0.106633  0.086191  0.020833     12.000000
 -0.021327  0.135443  0.020833     12.000000
  0.127960  0.098504  0.020833     12.000000
  0.042653  0.073878  0.020833     12.000000
  0.063980  0.086191  0.020833     12.000000
 -0.042653  0.098504  0.020833     12.000000
  0.085307  0.098504  0.020833     12.000000
 -0.042653  0.123130  0.020833     12.000000
  0.106633  0.110817  0.020833     12.000000
 -0.042653 -0.172382  0.020833     12.000000
  0.063980  0.110817  0.020833     12.000000
  0.085307  0.123130  0.020833     12.000000
 -0.063980 -0.184695  0.020833     12.000000
  0.106633  0.135443  0.020833     12.000000
  0.085307  0.147756  0.020833     12.000000
 


--------------------------------------------------------------------------------------------------------




 Dimension of arrays:
   k-points           NKPTS =     56   k-points in BZ     NKDIM =     56   number of bands    NBANDS=     12
   number of dos      NEDOS =   6001   number of ions     NIONS =      2
   non local maximal  LDIM  =      5   non local SUM 2l+1 LMDIM =     13
   total plane-waves  NPLWV =  62208
   max r-space proj   IRMAX =      1   max aug-charges    IRDMAX= 114423
   dimension x,y,z NGX =    24 NGY =   24 NGZ =  108
   dimension x,y,z NGXF=    48 NGYF=   48 NGZF=  216
   support grid    NGXF=    96 NGYF=   96 NGZF=  432
   ions per type =               2
   NGX,Y,Z   is equivalent  to a cutoff of  11.06, 11.06, 11.22 a.u.
   NGXF,Y,Z  is equivalent  to a cutoff of  22.12, 22.12, 22.44 a.u.

 SYSTEM =  unknown system                          
 POSCAR =  pnictogen honeycomb monolayer           

 Startparameter for this run:
   NWRITE =      1    write-flag & timer
   PREC   = accura    normal or accurate (medium, high low for compatibility)
   ISTART =      0    job   : 0-new  1-cont  2-samecut
   ICHARG =      2    charge: 1-file 2-atom 10-const
   ISPIN  =      1    spin polarized calculation?
   LNONCOLLINEAR =      F non collinear calculations
   LSORBIT =      F    spin-orbit coupling
   INIWAV =      1    electr: 0-lowe 1-rand  2-diag
   LASPH  =      T    aspherical Exc in radial PAW
 Electronic Relaxation 1
   ENCUT  =  417.4 eV  30.68 Ry    5.54 a.u.   6.01  6.01 26.65*2*pi/ulx,y,z
   ENINI  =  417.4     initial cutoff
   ENAUG  =  462.8 eV  augmentation charge cutoff
   NELM   =    200;   NELMIN=  6; NELMDL=-12     # of ELM steps 
   EDIFF  = 0.1E-05   stopping-criterion for ELM
   LREAL  =      F    real-space projection
   NLSPLINE    = F    spline interpolate recip. space projectors
   LCOMPAT=      F    compatible to vasp.4.4
   GGA_COMPAT  = T    GGA compatible to vasp.4.4-vasp.4.6
   LMAXPAW     = -100 max onsite density
   LMAXMIX     =    2 max onsite mixed and CHGCAR
   VOSKOWN=      0    Vosko Wilk Nusair interpolation
   ROPT   =    0.00000
 Ionic relaxation
   EDIFFG = -.1E-01   stopping-criterion for IOM
   NSW    =     30    number of steps for IOM
   NBLOCK =      1;   KBLOCK =     30    inner block; outer block 
   IBRION =      2    ionic relax: 0-MD 1-quasi-New 2-CG
   NFREE  =      1    steps in history (QN), initial steepest desc. (CG)
   ISIF   =      3    stress and relaxation
   IWAVPR =     11    prediction:  0-non 1-charg 2-wave 3-comb
   ISYM   =      2    0-nonsym 1-usesym 2-fastsym
   LCORR  =      T    Harris-Foulkes like correction to forces

   POTIM  = 0.5000    time-step for ionic-motion
   TEIN   =    0.0    initial temperature
   TEBEG  =    0.0;   TEEND  =   0.0 temperature during run
   SMASS  =  -3.00    Nose mass-parameter (am)
   estimated Nose-frequenzy (Omega)   =  0.10E-29 period in steps = 0.13E+47 mass=  -0.297E-27a.u.
   SCALEE = 1.0000    scale energy and forces
   NPACO  =    256;   APACO  = 10.0  distance and # of slots for P.C.
   PSTRESS=    0.0 pullay stress

  Mass of Ions in am
   POMASS =  74.92
  Ionic Valenz
   ZVAL   =   5.00
  Atomic Wigner-Seitz radii
   RWIGS  =  -1.00
  virtual crystal weights 
   VCA    =   1.00
   NELECT =      10.0000    total number of electrons
   NUPDOWN=      -1.0000    fix difference up-down

 DOS related values:
   EMIN   =  10.00;   EMAX   =-10.00  energy-range for DOS
   EFERMI =   0.00;   METHOD = LEGACY      
   ISMEAR =     0;   SIGMA  =   0.01  broadening in eV -4-tet -1-fermi 0-gaus

 Electronic relaxation 2 (details)
   IALGO  =     38    algorithm
   LDIAG  =      T    sub-space diagonalisation (order eigenvalues)
   LSUBROT=      F    optimize rotation matrix (better conditioning)
   TURBO    =      0    0=normal 1=particle mesh
   IRESTART =      0    0=no restart 2=restart with 2 vectors
   NREBOOT  =      0    no. of reboots
   NMIN     =      0    reboot dimension
   EREF     =   0.00    reference energy to select bands
   IMIX   =      4    mixing-type and parameters
     AMIX     =   0.10;   BMIX     =  0.00
     AMIX_MAG =   0.40;   BMIX_MAG =  0.00
     AMIN     =   0.10
     WC   =   100.;   INIMIX=   1;  MIXPRE=   1;  MAXMIX= -45

 Intra band minimization:
   WEIMIN = 0.0010     energy-eigenvalue tresh-hold
   EBREAK =  0.21E-07  absolut break condition
   DEPER  =   0.30     relativ break condition  

   TIME   =   0.40     timestep for ELM

  volume/ion in A,a.u.               =      90.13       608.25
  Fermi-wavevector in a.u.,A,eV,Ry     =   0.624361  1.179871  5.303915  0.389827
  Thomas-Fermi vector in A             =   1.684891
 
 Write flags
   LWAVE        =      F    write WAVECAR
   LDOWNSAMPLE  =      F    k-point downsampling of WAVECAR
   LCHARG       =      F    write CHGCAR
   LVTOT        =      F    write LOCPOT, total local potential
   LVHAR        =      F    write LOCPOT, Hartree potential only
   LELF         =      F    write electronic localiz. function (ELF)
   LORBIT       =     10    0 simple, 1 ext, 2 COOP (PROOUT), +10 PAW based schemes


 Dipole corrections
   LMONO  =      F    monopole corrections only (constant potential shift)
   LDIPOL =      F    correct potential (dipole corrections)
   IDIPOL =      0    1-x, 2-y, 3-z, 4-all directions 
   EPSILON=  1.0000000 bulk dielectric constant

 Exchange correlation treatment:
   GGA     =    --    GGA type
   LEXCH   =     8    internal setting for exchange type
   LIBXC   =     F    Libxc                    
   VOSKOWN =     0    Vosko Wilk Nusair interpolation
   LHFCALC =     F    Hartree Fock is set to
   LHFONE  =     F    Hartree Fock one center treatment
   AEXX    =    0.0000 exact exchange contribution

 Linear response parameters
   LEPSILON=     F    determine dielectric tensor
   LRPA    =     F    only Hartree local field effects (RPA)
   LNABLA  =     F    use nabla operator in PAW spheres
   LVEL    =     F    velocity operator in full k-point grid
   CSHIFT  =0.1000    complex shift for real part using Kramers Kronig
   OMEGAMAX=  -1.0    maximum frequency
   DEG_THRESHOLD= 0.2000000E-02 threshold for treating states as degnerate
   RTIME   =   -0.100 relaxation time in fs
  (WPLASMAI=    0.000 imaginary part of plasma frequency in eV, 0.658/RTIME)
   DFIELD  = 0.0000000 0.0000000 0.0000000 field for delta impulse in time
 
  Optional k-point grid parameters
   LKPOINTS_OPT  =     F    use optional k-point grid
   KPOINTS_OPT_MODE=     1    mode for optional k-point grid
 
 Orbital magnetization related:
   ORBITALMAG=     F  switch on orbital magnetization
   LCHIMAG   =     F  perturbation theory with respect to B field
   DQ        =  0.001000  dq finite difference perturbation B field
   LLRAUG    =     F  two centre corrections for induced B field
   LBONE     =     F  B-component reconstruction in AE one-centre
   LVGVCALC  =     T  calculate vGv susceptibility
   LVGVAPPL  =     F  apply vGv susceptibility instead of pGv for G=0

 Random number generation:
   RANDOM_GENERATOR = DEFAULT
   PCG_SEED         = not used


--------------------------------------------------------------------------------------------------------


 conjugate gradient relaxation of ions
 charge density and potential will be updated during run
 non-spin polarized calculation
 Variant of blocked Davidson
 Davidson routine will perform the subspace rotation
 perform sub-space diagonalisation
    after iterative eigenvector-optimisation
 modified Broyden-mixing scheme, WC =      100.0
 initial mixing is a Kerker type mixing with AMIX =  0.1000 and BMIX =      0.0001
 Hartree-type preconditioning will be used
 using additional bands            7
 reciprocal scheme for non local part
 use partial core corrections
 calculate Harris-corrections to forces 
   (improved forces if not selfconsistent)
 use gradient corrections 
 use of overlap-Matrix (Vanderbilt PP)
 Gauss-broadening in eV      SIGMA  =   0.01


--------------------------------------------------------------------------------------------------------


  energy-cutoff  :      417.40
  volume of cell :      180.27
      direct lattice vectors                 reciprocal lattice vectors
     3.606892539  0.000000000  0.000000000     0.277246962  0.160068608  0.000000000
    -1.803446269  3.123660567  0.000000000     0.000000000  0.320137217  0.000000000
     0.000000000  0.000000000 16.000000000     0.000000000  0.000000000  0.062500000

  length of vectors
     3.606892539  3.606892539 16.000000000     0.320137217  0.320137217  0.062500000


 
 k-points in units of 2pi/SCALE and weight: Fully automatic mesh                    
   0.00000000  0.00000000  0.00000000       0.002
   0.02132669  0.01231297  0.00000000       0.012
   0.04265338  0.02462594  0.00000000       0.012
   0.06398007  0.03693891  0.00000000       0.012
   0.08530676  0.04925188  0.00000000       0.012
   0.10663345  0.06156485  0.00000000       0.012
   0.12796014  0.07387782  0.00000000       0.012
   0.02132669  0.03693891  0.00000000       0.012
   0.04265338  0.04925188  0.00000000       0.024
   0.06398007  0.06156485  0.00000000       0.024
   0.08530676  0.07387782  0.00000000       0.024
   0.10663345  0.08619079  0.00000000       0.024
   0.12796014  0.09850376  0.00000000       0.012
   0.04265338  0.07387782  0.00000000       0.012
   0.06398007  0.08619079  0.00000000       0.024
   0.08530676  0.09850376  0.00000000       0.024
   0.10663345  0.11081673  0.00000000       0.024
   0.06398007  0.11081673  0.00000000       0.012
   0.08530676  0.12312970  0.00000000       0.024
   0.10663345  0.13544267  0.00000000       0.012
   0.08530676  0.14775564  0.00000000       0.012
   0.00000000  0.00000000  0.02083333       0.004
   0.02132669  0.01231297  0.02083333       0.012
   0.00000000  0.02462594  0.02083333       0.012
   0.04265338  0.02462594  0.02083333       0.012
   0.00000000  0.04925188  0.02083333       0.012
   0.06398007  0.03693891  0.02083333       0.012
   0.00000000  0.07387782  0.02083333       0.012
   0.08530676  0.04925188  0.02083333       0.012
   0.00000000  0.09850376  0.02083333       0.012
   0.10663345  0.06156485  0.02083333       0.012
   0.00000000  0.12312970  0.02083333       0.012
   0.12796014  0.07387782  0.02083333       0.012
   0.00000000  0.14775564  0.02083333       0.012
   0.02132669  0.03693891  0.02083333       0.024
   0.04265338  0.04925188  0.02083333       0.024
  -0.02132669  0.06156485  0.02083333       0.024
   0.06398007  0.06156485  0.02083333       0.024
  -0.02132669  0.08619079  0.02083333       0.024
   0.08530676  0.07387782  0.02083333       0.024
  -0.02132669  0.11081673  0.02083333       0.024
   0.10663345  0.08619079  0.02083333       0.024
  -0.02132669  0.13544267  0.02083333       0.024
   0.12796014  0.09850376  0.02083333       0.024
   0.04265338  0.07387782  0.02083333       0.024
   0.06398007  0.08619079  0.02083333       0.024
  -0.04265338  0.09850376  0.02083333       0.024
   0.08530676  0.09850376  0.02083333       0.024
  -0.04265338  0.12312970  0.02083333       0.024
   0.10663345  0.11081673  0.02083333       0.024
  -0.04265338 -0.17238158  0.02083333       0.024
   0.06398007  0.11081673  0.02083333       0.024
   0.08530676  0.12312970  0.02083333       0.024
  -0.06398007 -0.18469455  0.02083333       0.024
   0.10663345  0.13544267  0.02083333       0.024
   0.08530676  0.14775564  0.02083333       0.024
 
 k-points in reciprocal lattice and weights: Fully automatic mesh                    
   0.00000000  0.00000000  0.00000000       0.002
   0.07692308  0.00000000  0.00000000       0.012
   0.15384615  0.00000000  0.00000000       0.012
   0.23076923 -0.00000000  0.00000000       0.012
   0.30769231  0.00000000  0.00000000       0.012
   0.38461538  0.00000000  0.00000000       0.012
   0.46153846 -0.00000000  0.00000000       0.012
   0.07692308  0.07692308  0.00000000       0.012
   0.15384615  0.07692308  0.00000000       0.024
   0.23076923  0.07692308  0.00000000       0.024
   0.30769231  0.07692308  0.00000000       0.024
   0.38461538  0.07692308  0.00000000       0.024
   0.46153846  0.07692308  0.00000000       0.012
   0.15384615  0.15384615  0.00000000       0.012
   0.23076923  0.15384615  0.00000000       0.024
   0.30769231  0.15384615  0.00000000       0.024
   0.38461538  0.15384615  0.00000000       0.024
   0.23076923  0.23076923  0.00000000       0.012
   0.30769231  0.23076923  0.00000000       0.024
   0.38461538  0.23076923  0.00000000       0.012
   0.30769231  0.30769231  0.00000000       0.012
   0.00000000  0.00000000  0.33333333       0.004
   0.07692308  0.00000000  0.33333333       0.012
   0.00000000  0.07692308  0.33333333       0.012
   0.15384615  0.00000000  0.33333333       0.012
   0.00000000  0.15384615  0.33333333       0.012
   0.23076923 -0.00000000  0.33333333       0.012
   0.00000000  0.23076923  0.33333333       0.012
   0.30769231  0.00000000  0.33333333       0.012
   0.00000000  0.30769231  0.33333333       0.012
   0.38461538  0.00000000  0.33333333       0.012
   0.00000000  0.38461538  0.33333333       0.012
   0.46153846 -0.00000000  0.33333333       0.012
   0.00000000  0.46153846  0.33333333       0.012
   0.07692308  0.07692308  0.33333333       0.024
   0.15384615  0.07692308  0.33333333       0.024
  -0.07692308  0.23076923  0.33333333       0.024
   0.23076923  0.07692308  0.33333333       0.024
  -0.07692308  0.30769231  0.33333333       0.024
   0.30769231  0.07692308  0.33333333       0.024
  -0.07692308  0.38461538  0.33333333       0.024
   0.38461538  0.07692308  0.33333333       0.024
  -0.07692308  0.46153846  0.33333333       0.024
   0.46153846  0.07692308  0.33333333       0.024
   0.15384615  0.15384615  0.33333333       0.024
   0.23076923  0.15384615  0.33333333       0.024
  -0.15384615  0.38461538  0.33333333       0.024
   0.30769231  0.15384615  0.33333333       0.024
  -0.15384615  0.46153846  0.33333333       0.024
   0.38461538  0.15384615  0.33333333       0.024
  -0.15384615 -0.46153846  0.33333333       0.024
   0.23076923  0.23076923  0.33333333       0.024
   0.30769231  0.23076923  0.33333333       0.024
  -0.23076923 -0.46153846  0.33333333       0.024
   0.38461538  0.23076923  0.33333333       0.024
   0.30769231  0.30769231  0.33333333       0.024
 
 position of ions in fractional coordinates (direct lattice) 
   0.66666667  0.33333333  0.45634314
   0.33333333  0.66666667  0.54365686
 
 position of ions in cartesian coordinates  (Angst):
   1.80344627  1.04122019  7.30149017
   0.00000000  2.08244038  8.69850983
 


--------------------------------------------------------------------------------------------------------


 k-point   1 :   0.0000 0.0000 0.0000  plane waves:    3437
 k-point   2 :   0.0769 0.0000 0.0000  plane waves:    3449
 k-point   3 :   0.1538 0.0000 0.0000  plane waves:    3469
 k-point   4 :   0.2308-0.0000 0.0000  plane waves:    3472
 k-point   5 :   0.3077 0.0000 0.0000  plane waves:    3480
 k-point   6 :   0.3846 0.0000 0.0000  plane waves:    3476
 k-point   7 :   0.4615-0.0000 0.0000  plane waves:    3484
 k-point   8 :   0.0769 0.0769 0.0000  plane waves:    3468
 k-point   9 :   0.1538 0.0769 0.0000  plane waves:    3479
 k-point  10 :   0.2308 0.0769 0.0000  plane waves:    3488
 k-point  11 :   0.3077 0.0769 0.0000  plane waves:    3479
 k-point  12 :   0.3846 0.0769 0.0000  plane waves:    3503
 k-point  13 :   0.4615 0.0769 0.0000  plane waves:    3502
 k-point  14 :   0.1538 0.1538 0.0000  plane waves:    3484
 k-point  15 :   0.2308 0.1538 0.0000  plane waves:    3487
 k-point  16 :   0.3077 0.1538 0.0000  plane waves:    3494
 k-point  17 :   0.3846 0.1538 0.0000  plane waves:    3522
 k-point  18 :   0.2308 0.2308 0.0000  plane waves:    3502
 k-point  19 :   0.3077 0.2308 0.0000  plane waves:    3523
 k-point  20 :   0.3846 0.2308 0.0000  plane waves:    3532
 k-point  21 :   0.3077 0.3077 0.0000  plane waves:    3534
 k-point  22 :   0.0000 0.0000 0.3333  plane waves:    3431
 k-point  23 :   0.0769 0.0000 0.3333  plane waves:    3438
 k-point  24 :   0.0000 0.0769 0.3333  plane waves:    3438
 k-point  25 :   0.1538 0.0000 0.3333  plane waves:    3471
 k-point  26 :   0.0000 0.1538 0.3333  plane waves:    3471
 k-point  27 :   0.2308-0.0000 0.3333  plane waves:    3476
 k-point  28 :   0.0000 0.2308 0.3333  plane waves:    3476
 k-point  29 :   0.3077 0.0000 0.3333  plane waves:    3470
 k-point  30 :   0.0000 0.3077 0.3333  plane waves:    3470
 k-point  31 :   0.3846 0.0000 0.3333  plane waves:    3480
 k-point  32 :   0.0000 0.3846 0.3333  plane waves:    3480
 k-point  33 :   0.4615-0.0000 0.3333  plane waves:    3490
 k-point  34 :   0.0000 0.4615 0.3333  plane waves:    3490
 k-point  35 :   0.0769 0.0769 0.3333  plane waves:    3463
 k-point  36 :   0.1538 0.0769 0.3333  plane waves:    3471
 k-point  37 :  -0.0769 0.2308 0.3333  plane waves:    3471
 k-point  38 :   0.2308 0.0769 0.3333  plane waves:    3483
 k-point  39 :  -0.0769 0.3077 0.3333  plane waves:    3483
 k-point  40 :   0.3077 0.0769 0.3333  plane waves:    3480
 k-point  41 :  -0.0769 0.3846 0.3333  plane waves:    3480
 k-point  42 :   0.3846 0.0769 0.3333  plane waves:    3500
 k-point  43 :  -0.0769 0.4615 0.3333  plane waves:    3500
 k-point  44 :   0.4615 0.0769 0.3333  plane waves:    3503
 k-point  45 :   0.1538 0.1538 0.3333  plane waves:    3479
 k-point  46 :   0.2308 0.1538 0.3333  plane waves:    3492
 k-point  47 :  -0.1538 0.3846 0.3333  plane waves:    3492
 k-point  48 :   0.3077 0.1538 0.3333  plane waves:    3504
 k-point  49 :  -0.1538 0.4615 0.3333  plane waves:    3504
 k-point  50 :   0.3846 0.1538 0.3333  plane waves:    3513
 k-point  51 :  -0.1538-0.4615 0.3333  plane waves:    3513
 k-point  52 :   0.2308 0.2308 0.3333  plane waves:    3505
 k-point  53 :   0.3077 0.2308 0.3333  plane waves:    3512
 k-point  54 :  -0.2308-0.4615 0.3333  plane waves:    3512
 k-point  55 :   0.3846 0.2308 0.3333  plane waves:    3517
 k-point  56 :   0.3077 0.3077 0.3333  plane waves:    3525

 maximum and minimum number of plane-waves per node :       901      831

 maximum number of plane-waves:      3534
 maximum index in each direction: 
   IXMAX=    6   IYMAX=    6   IZMAX=   26
   IXMIN=   -6   IYMIN=   -6   IZMIN=  -26


 parallel 3D FFT for wavefunctions:
    minimum data exchange during FFTs selected (reduces bandwidth)
 parallel 3D FFT for charge:
    minimum data exchange during FFTs selected (reduces bandwidth)


 total amount of memory used by VASP MPI-rank0    44844. kBytes
=======================================================================

   base      :      30000. kBytes
   nonl-proj :       5246. kBytes
   fftplans  :       5013. kBytes
   grid      :       2126. kBytes
   one-center:          8. kBytes
   wavefun   :       2451. kBytes
 
     INWAV:  cpu time      0.0001: real time      0.0001
 Broyden mixing: mesh for mixing (old mesh)
   NGX = 13   NGY = 13   NGZ = 53
  (NGX  = 48   NGY  = 48   NGZ  =216)
  gives a total of   8957 points

 initial charge density was supplied:
 charge density of overlapping atoms calculated
 number of electron      10.0000000 magnetization 
 keeping initial charge density in first step


--------------------------------------------------------------------------------------------------------


 Maximum index for augmentation-charges         6617 (set IRDMAX)


--------------------------------------------------------------------------------------------------------


 First call to EWALD:  gamma=   0.314
 Maximum number of real-space cells 5x 5x 1
 Maximum number of reciprocal cells 2x 2x 7

    FEWALD:  cpu time      0.0019: real time      0.0019


--------------------------------------- Ionic step        1  -------------------------------------------




--------------------------------------- Iteration      1(   1)  ---------------------------------------


    POTLOK:  cpu time      0.0329: real time      0.1210
    SETDIJ:  cpu time      0.2583: real time      0.2592
     EDDAV:  cpu time      1.0002: real time      1.0026
       DOS:  cpu time      0.0032: real time      0.0032
    --------------------------------------------
      LOOP:  cpu time      1.2947: real time      1.3861

 eigenvalue-minimisations  :  1344
 total energy-change (2. order) : 0.4834173E+02  (-0.2793997E+03)
 number of electron      10.0000000 magnetization 
 augmentation part       10.0000000 magnetization 

 Free energy of the ion-electron system (eV)
  ---------------------------------------------------
  alpha Z        PSCENC =         5.26383816
  Ewald energy   TEWEN  =       378.22030483
  -Hartree energ DENC   =      -664.27977220
  -exchange      EXHF   =         0.00000000
  -V(xc)+E(xc)   XCENC  =       -23.94414329
  PAW double counting   =       294.12882363     -251.25503797
  entropy T*S    EENTRO =        -0.00044495
  eigenvalues    EBANDS =       -30.16312600
  atomic energy  EATOM  =       340.37129062
  Solvation  Ediel_sol  =         0.00000000
  ---------------------------------------------------
  free energy    TOTEN  =        48.34173284 eV

  energy without entropy =       48.34217779  energy(sigma->0) =       48.34195532


--------------------------------------------------------------------------------------------------------




--------------------------------------- Iteration      1(   2)  ---------------------------------------


     EDDAV:  cpu time      1.3473: real time      1.3504
       DOS:  cpu time      0.0018: real time      0.0018
    --------------------------------------------
      LOOP:  cpu time      1.3491: real time      1.3521

 eigenvalue-minimisations  :  1976
 total energy-change (2. order) :-0.5242511E+02  (-0.4904871E+02)
 number of electron      10.0000000 magnetization 
 augmentation part       10.0000000 magnetization 

 Free energy of the ion-electron system (eV)
  ---------------------------------------------------
  alpha Z        PSCENC =         5.26383816
  Ewald energy   TEWEN  =       378.22030483
  -Hartree energ DENC   =      -664.27977220
  -exchange      EXHF   =         0.00000000
  -V(xc)+E(xc)   XCENC  =       -23.94414329
  PAW double counting   =       294.12882363     -251.25503797
  entropy T*S    EENTRO =        -0.00000000
  eigenvalues    EBANDS =       -82.58868175
  atomic energy  EATOM  =       340.37129062
  Solvation  Ediel_sol  =         0.00000000
  ---------------------------------------------------
  free energy    TOTEN  =        -4.08337796 eV

  energy without entropy =       -4.08337796  energy(sigma->0) =       -4.08337796


--------------------------------------------------------------------------------------------------------




--------------------------------------- Iteration      1(   3)  ---------------------------------------


     EDDAV:  cpu time      1.1236: real time      1.1258
       DOS:  cpu time      0.0011: real time      0.0011
    --------------------------------------------
      LOOP:  cpu time      1.1247: real time      1.1269

 eigenvalue-minimisations  :  1852
 total energy-change (2. order) :-0.5139334E+01  (-0.5107552E+01)
 number of electron      10.0000000 magnetization 
 augmentation part       10.0000000 magnetization 

 Free energy of the ion-electron system (eV)
  ---------------------------------------------------
  alpha Z        PSCENC =         5.26383816
  Ewald energy   TEWEN  =       378.22030483
  -Hartree energ DENC   =      -664.27977220
  -exchange      EXHF   =         0.00000000
  -V(xc)+E(xc)   XCENC  =       -23.94414329
  PAW double counting   =       294.12882363     -251.25503797
  entropy T*S    EENTRO =        -0.00000000
  eigenvalues    EBANDS =       -87.72801616
  atomic energy  EATOM  =       340.37129062
  Solvation  Ediel_sol  =         0.00000000
  ---------------------------------------------------
  free energy    TOTEN  =        -9.22271237 eV

  energy without entropy =       -9.22271237  energy(sigma->0) =       -9.22271237


--------------------------------------------------------------------------------------------------------




--------------------------------------- Iteration      1(   4)  ---------------------------------------


     EDDAV:  cpu time      1.1412: real time      1.1439
       DOS:  cpu time      0.0012: real time      0.0012
    --------------------------------------------
      LOOP:  cpu time      1.1424: real time      1.1450

 eigenvalue-minimisations  :  1736
 total energy-change (2. order) :-0.1731243E+00  (-0.1730905E+00)
 number of electron      10.0000000 magnetization 
 augmentation part       10.0000000 magnetization 

 Free energy of the ion-electron system (eV)
  ---------------------------------------------------
  alpha Z        PSCENC =         5.26383816
  Ewald energy   TEWEN  =       378.22030483
  -Hartree energ DENC   =      -664.27977220
  -exchange      EXHF   =         0.00000000
  -V(xc)+E(xc)   XCENC  =       -23.94414329
  PAW double counting   =       294.12882363     -251.25503797
  entropy T*S    EENTRO =        -0.00000000
  eigenvalues    EBANDS =       -87.90114047
  atomic energy  EATOM  =       340.37129062
  Solvation  Ediel_sol  =         0.00000000
  ---------------------------------------------------
  free energy    TOTEN  =        -9.39583668 eV

  energy without entropy =       -9.39583668  energy(sigma->0) =       -9.39583668


--------------------------------------------------------------------------------------------------------




--------------------------------------- Iteration      1(   5)  ---------------------------------------


     EDDAV:  cpu time      1.2302: real time      1.2330
       DOS:  cpu time      0.0017: real time      0.0017
    --------------------------------------------
      LOOP:  cpu time      1.2319: real time      1.2347

 eigenvalue-minimisations  :  1936
 total energy-change (2. order) :-0.7451559E-02  (-0.7451466E-02)
 number of electron      10.0000000 magnetization 
 augmentation part       10.0000000 magnetization 

 Free energy of the ion-electron system (eV)
  ---------------------------------------------------
  alpha Z        PSCENC =         5.26383816
  Ewald energy   TEWEN  =       378.22030483
  -Hartree energ DENC   =      -664.27977220
  -exchange      EXHF   =         0.00000000
  -V(xc)+E(xc)   XCENC  =       -23.94414329
  PAW double counting   =       294.12882363     -251.25503797
  entropy T*S    EENTRO =        -0.00000000
  eigenvalues    EBANDS =       -87.90859203
  atomic energy  EATOM  =       340.37129062
  Solvation  Ediel_sol  =         0.00000000
  ---------------------------------------------------
  free energy    TOTEN  =        -9.40328824 eV

  energy without entropy =       -9.40328824  energy(sigma->0) =       -9.40328824


--------------------------------------------------------------------------------------------------------




--------------------------------------- Iteration      1(   6)  ---------------------------------------


     EDDAV:  cpu time      1.2677: real time      1.2703
       DOS:  cpu time      0.0011: real time      0.0011
    --------------------------------------------
      LOOP:  cpu time      1.2688: real time      1.2714

 eigenvalue-minimisations  :  1832
 total energy-change (2. order) :-0.1790170E-03  (-0.1790168E-03)
 number of electron      10.0000000 magnetization 
 augmentation part       10.0000000 magnetization 

 Free energy of the ion-electron system (eV)
  ---------------------------------------------------
  alpha Z        PSCENC =         5.26383816
  Ewald energy   TEWEN  =       378.22030483
  -Hartree energ DENC   =      -664.27977220
  -exchange      EXHF   =         0.00000000
  -V(xc)+E(xc)   XCENC  =       -23.94414329
  PAW double counting   =       294.12882363     -251.25503797
  entropy T*S    EENTRO =        -0.00000000
  eigenvalues    EBANDS =       -87.90877104
  atomic energy  EATOM  =       340.37129062
  Solvation  Ediel_sol  =         0.00000000
  ---------------------------------------------------
  free energy    TOTEN  =        -9.40346725 eV

  energy without entropy =       -9.40346725  energy(sigma->0) =       -9.40346725


--------------------------------------------------------------------------------------------------------




--------------------------------------- Iteration      1(   7)  ---------------------------------------


     EDDAV:  cpu time      1.0152: real time      1.0176
       DOS:  cpu time      0.0016: real time      0.0016
    --------------------------------------------
      LOOP:  cpu time      1.0168: real time      1.0192

 eigenvalue-minimisations  :  1944
 total energy-change (2. order) :-0.5028932E-05  (-0.5028929E-05)
 number of electron      10.0000000 magnetization 
 augmentation part       10.0000000 magnetization 

 Free energy of the ion-electron system (eV)
  ---------------------------------------------------
  alpha Z        PSCENC =         5.26383816
  Ewald energy   TEWEN  =       378.22030483
  -Hartree energ DENC   =      -664.27977220
  -exchange      EXHF   =         0.00000000
  -V(xc)+E(xc)   XCENC  =       -23.94414329
  PAW double counting   =       294.12882363     -251.25503797
  entropy T*S    EENTRO =        -0.00000000
  eigenvalues    EBANDS =       -87.90877607
  atomic energy  EATOM  =       340.37129062
  Solvation  Ediel_sol  =         0.00000000
  ---------------------------------------------------
  free energy    TOTEN  =        -9.40347228 eV

  energy without entropy =       -9.40347228  energy(sigma->0) =       -9.40347228


--------------------------------------------------------------------------------------------------------




--------------------------------------- Iteration      1(   8)  ---------------------------------------


     EDDAV:  cpu time      0.9776: real time      0.9802
       DOS:  cpu time      0.0011: real time      0.0011
    --------------------------------------------
      LOOP:  cpu time      0.9787: real time      0.9813

 eigenvalue-minimisations  :  1384
 total energy-change (2. order) :-0.6876621E-07  (-0.6876145E-07)
 number of electron      10.0000000 magnetization 
 augmentation part       10.0000000 magnetization 

 Free energy of the ion-electron system (eV)
  ---------------------------------------------------
  alpha Z        PSCENC =         5.26383816
  Ewald energy   TEWEN  =       378.22030483
  -Hartree energ DENC   =      -664.27977220
  -exchange      EXHF   =         0.00000000
  -V(xc)+E(xc)   XCENC  =       -23.94414329
  PAW double counting   =       294.12882363     -251.25503797
  entropy T*S    EENTRO =        -0.00000000
  eigenvalues    EBANDS =       -87.90877614
  atomic energy  EATOM  =       340.37129062
  Solvation  Ediel_sol  =         0.00000000
  ---------------------------------------------------
  free energy    TOTEN  =        -9.40347235 eV

  energy without entropy =       -9.40347235  energy(sigma->0) =       -9.40347235


--------------------------------------------------------------------------------------------------------




--------------------------------------- Iteration      1(   9)  ---------------------------------------


     EDDAV:  cpu time      0.7774: real time      0.7795
       DOS:  cpu time      0.0014: real time      0.0014
    --------------------------------------------
      LOOP:  cpu time      0.7788: real time      0.7809

 eigenvalue-minimisations  :  1000
 total energy-change (2. order) :-0.3791001E-08  (-0.3797353E-08)
 number of electron      10.0000000 magnetization 
 augmentation part       10.0000000 magnetization 

 Free energy of the ion-electron system (eV)
  ---------------------------------------------------
  alpha Z        PSCENC =         5.26383816
  Ewald energy   TEWEN  =       378.22030483
  -Hartree energ DENC   =      -664.27977220
  -exchange      EXHF   =         0.00000000
  -V(xc)+E(xc)   XCENC  =       -23.94414329
  PAW double counting   =       294.12882363     -251.25503797
  entropy T*S    EENTRO =        -0.00000000
  eigenvalues    EBANDS =       -87.90877614
  atomic energy  EATOM  =       340.37129062
  Solvation  Ediel_sol  =         0.00000000
  ---------------------------------------------------
  free energy    TOTEN  =        -9.40347235 eV

  energy without entropy =       -9.40347235  energy(sigma->0) =       -9.40347235


--------------------------------------------------------------------------------------------------------




--------------------------------------- Iteration      1(  10)  ---------------------------------------


     EDDAV:  cpu time      0.8241: real time      0.8264
       DOS:  cpu time      0.0012: real time      0.0012
    --------------------------------------------
      LOOP:  cpu time      0.8253: real time      0.8275

 eigenvalue-minimisations  :   900
 total energy-change (2. order) :-0.1419494E-08  (-0.1394710E-08)
 number of electron      10.0000000 magnetization 
 augmentation part       10.0000000 magnetization 

 Free energy of the ion-electron system (eV)
  ---------------------------------------------------
  alpha Z        PSCENC =         5.26383816
  Ewald energy   TEWEN  =       378.22030483
  -Hartree energ DENC   =      -664.27977220
  -exchange      EXHF   =         0.00000000
  -V(xc)+E(xc)   XCENC  =       -23.94414329
  PAW double counting   =       294.12882363     -251.25503797
  entropy T*S    EENTRO =        -0.00000000
  eigenvalues    EBANDS =       -87.90877615
  atomic energy  EATOM  =       340.37129062
  Solvation  Ediel_sol  =         0.00000000
  ---------------------------------------------------
  free energy    TOTEN  =        -9.40347236 eV

  energy without entropy =       -9.40347236  energy(sigma->0) =       -9.40347236


--------------------------------------------------------------------------------------------------------




--------------------------------------- Iteration      1(  11)  ---------------------------------------


     EDDAV:  cpu time      0.7136: real time      0.7158
       DOS:  cpu time      0.0014: real time      0.0014
    --------------------------------------------
      LOOP:  cpu time      0.7150: real time      0.7172

 eigenvalue-minimisations  :   816
 total energy-change (2. order) :-0.6457412E-09  (-0.6656122E-09)
 number of electron      10.0000000 magnetization 
 augmentation part       10.0000000 magnetization 

 Free energy of the ion-electron system (eV)
  ---------------------------------------------------
  alpha Z        PSCENC =         5.26383816
  Ewald energy   TEWEN  =       378.22030483
  -Hartree energ DENC   =      -664.27977220
  -exchange      EXHF   =         0.00000000
  -V(xc)+E(xc)   XCENC  =       -23.94414329
  PAW double counting   =       294.12882363     -251.25503797
  entropy T*S    EENTRO =        -0.00000000
  eigenvalues    EBANDS =       -87.90877615
  atomic energy  EATOM  =       340.37129062
  Solvation  Ediel_sol  =         0.00000000
  ---------------------------------------------------
  free energy    TOTEN  =        -9.40347236 eV

  energy without entropy =       -9.40347236  energy(sigma->0) =       -9.40347236


--------------------------------------------------------------------------------------------------------




--------------------------------------- Iteration      1(  12)  ---------------------------------------


     EDDAV:  cpu time      0.6920: real time      0.6939
       DOS:  cpu time      0.0012: real time      0.0012
    CHARGE:  cpu time      0.0795: real time      0.0796
    MIXING:  cpu time      0.0054: real time      0.0054
    --------------------------------------------
      LOOP:  cpu time      0.7782: real time      0.7801

 eigenvalue-minimisations  :   776
 total energy-change (2. order) :-0.3425384E-09  (-0.3317785E-09)
 number of electron      10.0000000 magnetization 
 augmentation part       -1.6463769 magnetization 

 Broyden mixing:
  rms(total) = 0.19282E+00    rms(broyden)= 0.19282E+00
  rms(prec ) = 0.21685E+00
  weight for this iteration     100.00

 Free energy of the ion-electron system (eV)
  ---------------------------------------------------
  alpha Z        PSCENC =         5.26383816
  Ewald energy   TEWEN  =       378.22030483
  -Hartree energ DENC   =      -664.27977220
  -exchange      EXHF   =         0.00000000
  -V(xc)+E(xc)   XCENC  =       -23.94414329
  PAW double counting   =       294.12882363     -251.25503797
  entropy T*S    EENTRO =        -0.00000000
  eigenvalues    EBANDS =       -87.90877615
  atomic energy  EATOM  =       340.37129062
  Solvation  Ediel_sol  =         0.00000000
  ---------------------------------------------------
  free energy    TOTEN  =        -9.40347236 eV

  energy without entropy =       -9.40347236  energy(sigma->0) =       -9.40347236


--------------------------------------------------------------------------------------------------------




--------------------------------------- Iteration      1(  13)  ---------------------------------------


    POTLOK:  cpu time      0.0253: real time      0.0254
    SETDIJ:  cpu time      0.2145: real time      0.2147
     EDDAV:  cpu time      1.2238: real time      1.2274
       DOS:  cpu time      0.0014: real time      0.0014
    CHARGE:  cpu time      0.0772: real time      0.0773
    MIXING:  cpu time      0.0023: real time      0.0023
    --------------------------------------------
      LOOP:  cpu time      1.5445: real time      1.5484

 eigenvalue-minimisations  :  1620
 total energy-change (2. order) : 0.1444951E-01  (-0.2400895E-03)
 number of electron      10.0000000 magnetization 
 augmentation part       -1.6433553 magnetization 

 Broyden mixing:
  rms(total) = 0.17195E+00    rms(broyden)= 0.17195E+00
  rms(prec ) = 0.19296E+00
  weight for this iteration     100.00

 eigenvalues of (default mixing * dielectric matrix)
  average eigenvalue GAMMA=   9.0610
  9.0610

 Free energy of the ion-electron system (eV)
  ---------------------------------------------------
  alpha Z        PSCENC =         5.26383816
  Ewald energy   TEWEN  =       378.22030483
  -Hartree energ DENC   =      -665.14251744
  -exchange      EXHF   =         0.00000000
  -V(xc)+E(xc)   XCENC  =       -23.89681984
  PAW double counting   =       298.34392073     -255.48639426
  entropy T*S    EENTRO =        -0.00000000
  eigenvalues    EBANDS =       -87.06264564
  atomic energy  EATOM  =       340.37129062
  Solvation  Ediel_sol  =         0.00000000
  ---------------------------------------------------
  free energy    TOTEN  =        -9.38902284 eV

  energy without entropy =       -9.38902284  energy(sigma->0) =       -9.38902284


--------------------------------------------------------------------------------------------------------




--------------------------------------- Iteration      1(  14)  ---------------------------------------


    POTLOK:  cpu time      0.0231: real time      0.0232
    SETDIJ:  cpu time      0.1830: real time      0.1832
     EDDAV:  cpu time      1.1293: real time      1.1991
       DOS:  cpu time      0.0015: real time      0.0015
    CHARGE:  cpu time      0.0741: real time      0.0742
    MIXING:  cpu time      0.0027: real time      0.0027
    --------------------------------------------
      LOOP:  cpu time      1.4136: real time      1.4839

 eigenvalue-minimisations  :  1612
 total energy-change (2. order) : 0.4284656E-01  (-0.1363213E-01)
 number of electron      10.0000000 magnetization 
 augmentation part       -1.6215621 magnetization 

 Broyden mixing:
  rms(total) = 0.22282E-01    rms(broyden)= 0.22282E-01
  rms(prec ) = 0.28531E-01
  weight for this iteration     100.00

 eigenvalues of (default mixing * dielectric matrix)
  average eigenvalue GAMMA=   7.1414
  6.0628  8.2199

 Free energy of the ion-electron system (eV)
  ---------------------------------------------------
  alpha Z        PSCENC =         5.26383816
  Ewald energy   TEWEN  =       378.22030483
  -Hartree energ DENC   =      -671.76434726
  -exchange      EXHF   =         0.00000000
  -V(xc)+E(xc)   XCENC  =       -23.49387699
  PAW double counting   =       332.20505678     -289.48178068
  entropy T*S    EENTRO =        -0.00000000
  eigenvalues    EBANDS =       -80.66666174
  atomic energy  EATOM  =       340.37129062
  Solvation  Ediel_sol  =         0.00000000
  ---------------------------------------------------
  free energy    TOTEN  =        -9.34617628 eV

  energy without entropy =       -9.34617628  energy(sigma->0) =       -9.34617628


--------------------------------------------------------------------------------------------------------




--------------------------------------- Iteration      1(  15)  ---------------------------------------


    POTLOK:  cpu time      0.0191: real time      0.0191
    SETDIJ:  cpu time      0.1940: real time      0.1941
     EDDAV:  cpu time      1.2168: real time      1.2201
       DOS:  cpu time      0.0013: real time      0.0013
    CHARGE:  cpu time      0.0729: real time      0.0731
    MIXING:  cpu time      0.0038: real time      0.0038
    --------------------------------------------
      LOOP:  cpu time      1.5079: real time      1.5116

 eigenvalue-minimisations  :  1576
 total energy-change (2. order) : 0.3608458E-02  (-0.1364650E-02)
 number of electron      10.0000000 magnetization 
 augmentation part       -1.6263051 magnetization 

 Broyden mixing:
  rms(total) = 0.11113E-01    rms(broyden)= 0.11113E-01
  rms(prec ) = 0.12191E-01
  weight for this iteration     100.00

 eigenvalues of (default mixing * dielectric matrix)
  average eigenvalue GAMMA=   5.5620
  9.4102  0.9130  6.3627

 Free energy of the ion-electron system (eV)
  ---------------------------------------------------
  alpha Z        PSCENC =         5.26383816
  Ewald energy   TEWEN  =       378.22030483
  -Hartree energ DENC   =      -670.10581535
  -exchange      EXHF   =         0.00000000
  -V(xc)+E(xc)   XCENC  =       -23.51601543
  PAW double counting   =       330.06255715     -287.33095544
  entropy T*S    EENTRO =        -0.00000000
  eigenvalues    EBANDS =       -82.30777237
  atomic energy  EATOM  =       340.37129062
  Solvation  Ediel_sol  =         0.00000000
  ---------------------------------------------------
  free energy    TOTEN  =        -9.34256782 eV

  energy without entropy =       -9.34256782  energy(sigma->0) =       -9.34256782


--------------------------------------------------------------------------------------------------------




--------------------------------------- Iteration      1(  16)  ---------------------------------------


    POTLOK:  cpu time      0.0262: real time      0.0263
    SETDIJ:  cpu time      0.2303: real time      0.2305
     EDDAV:  cpu time      1.4309: real time      1.4353
       DOS:  cpu time      0.0017: real time      0.0017
    CHARGE:  cpu time      0.0862: real time      0.0865
    MIXING:  cpu time      0.0048: real time      0.0048
    --------------------------------------------
      LOOP:  cpu time      1.7802: real time      1.7851

 eigenvalue-minimisations  :  1896
 total energy-change (2. order) :-0.1450350E-03  (-0.1070332E-03)
 number of electron      10.0000000 magnetization 
 augmentation part       -1.6283306 magnetization 

 Broyden mixing:
  rms(total) = 0.49910E-02    rms(broyden)= 0.49910E-02
  rms(prec ) = 0.60901E-02
  weight for this iteration     100.00

 eigenvalues of (default mixing * dielectric matrix)
  average eigenvalue GAMMA=   4.8149
  8.8911  1.0322  4.6682  4.6682

 Free energy of the ion-electron system (eV)
  ---------------------------------------------------
  alpha Z        PSCENC =         5.26383816
  Ewald energy   TEWEN  =       378.22030483
  -Hartree energ DENC   =      -669.96425015
  -exchange      EXHF   =         0.00000000
  -V(xc)+E(xc)   XCENC  =       -23.50111521
  PAW double counting   =       331.05127132     -288.32306900
  entropy T*S    EENTRO =        -0.00000000
  eigenvalues    EBANDS =       -82.46098343
  atomic energy  EATOM  =       340.37129062
  Solvation  Ediel_sol  =         0.00000000
  ---------------------------------------------------
  free energy    TOTEN  =        -9.34271286 eV

  energy without entropy =       -9.34271286  energy(sigma->0) =       -9.34271286


--------------------------------------------------------------------------------------------------------




--------------------------------------- Iteration      1(  17)  ---------------------------------------


    POTLOK:  cpu time      0.0325: real time      0.0326
    SETDIJ:  cpu time      0.2344: real time      0.2347
     EDDAV:  cpu time      1.0688: real time      1.0798
       DOS:  cpu time      0.0014: real time      0.0014
    CHARGE:  cpu time      0.0891: real time      0.0895
    MIXING:  cpu time      0.0057: real time      0.0058
    --------------------------------------------
      LOOP:  cpu time      1.4319: real time      1.4437

 eigenvalue-minimisations  :  1652
 total energy-change (2. order) : 0.1112853E-03  (-0.6231843E-04)
 number of electron      10.0000000 magnetization 
 augmentation part       -1.6275401 magnetization 

 Broyden mixing:
  rms(total) = 0.40085E-02    rms(broyden)= 0.40085E-02
  rms(prec ) = 0.44608E-02
  weight for this iteration     100.00

 eigenvalues of (default mixing * dielectric matrix)
  average eigenvalue GAMMA=   5.0387
 10.2393  8.0000  4.9036  1.0252  1.0252

 Free energy of the ion-electron system (eV)
  ---------------------------------------------------
  alpha Z        PSCENC =         5.26383816
  Ewald energy   TEWEN  =       378.22030483
  -Hartree energ DENC   =      -670.19789772
  -exchange      EXHF   =         0.00000000
  -V(xc)+E(xc)   XCENC  =       -23.50052841
  PAW double counting   =       330.99053436     -288.26205697
  entropy T*S    EENTRO =        -0.00000000
  eigenvalues    EBANDS =       -82.22808644
  atomic energy  EATOM  =       340.37129062
  Solvation  Ediel_sol  =         0.00000000
  ---------------------------------------------------
  free energy    TOTEN  =        -9.34260157 eV

  energy without entropy =       -9.34260157  energy(sigma->0) =       -9.34260157


--------------------------------------------------------------------------------------------------------




--------------------------------------- Iteration      1(  18)  ---------------------------------------


    POTLOK:  cpu time      0.0324: real time      0.0325
    SETDIJ:  cpu time      0.2533: real time      0.2537
     EDDAV:  cpu time      1.2103: real time      1.2143
       DOS:  cpu time      0.0016: real time      0.0016
    CHARGE:  cpu time      0.0876: real time      0.0878
    MIXING:  cpu time      0.0046: real time      0.0047
    --------------------------------------------
      LOOP:  cpu time      1.5898: real time      1.5946

 eigenvalue-minimisations  :  1504
 total energy-change (2. order) : 0.6497585E-05  (-0.1394277E-04)
 number of electron      10.0000000 magnetization 
 augmentation part       -1.6284873 magnetization 

 Broyden mixing:
  rms(total) = 0.64809E-03    rms(broyden)= 0.64807E-03
  rms(prec ) = 0.74892E-03
  weight for this iteration     100.00

 eigenvalues of (default mixing * dielectric matrix)
  average eigenvalue GAMMA=   4.4198
 10.1982  7.3495  4.8488  2.0968  0.9333  1.0923

 Free energy of the ion-electron system (eV)
  ---------------------------------------------------
  alpha Z        PSCENC =         5.26383816
  Ewald energy   TEWEN  =       378.22030483
  -Hartree energ DENC   =      -670.07155832
  -exchange      EXHF   =         0.00000000
  -V(xc)+E(xc)   XCENC  =       -23.49680154
  PAW double counting   =       331.03958358     -288.31102894
  entropy T*S    EENTRO =        -0.00000000
  eigenvalues    EBANDS =       -82.35822347
  atomic energy  EATOM  =       340.37129062
  Solvation  Ediel_sol  =         0.00000000
  ---------------------------------------------------
  free energy    TOTEN  =        -9.34259507 eV

  energy without entropy =       -9.34259507  energy(sigma->0) =       -9.34259507


--------------------------------------------------------------------------------------------------------




--------------------------------------- Iteration      1(  19)  ---------------------------------------


    POTLOK:  cpu time      0.0350: real time      0.0351
    SETDIJ:  cpu time      0.2519: real time      0.2524
     EDDAV:  cpu time      1.3308: real time      1.3337
       DOS:  cpu time      0.0017: real time      0.0017
    --------------------------------------------
      LOOP:  cpu time      1.6194: real time      1.6228

 eigenvalue-minimisations  :  1704
 total energy-change (2. order) : 0.4710714E-06  (-0.9198220E-06)
 number of electron      10.0000000 magnetization 
 augmentation part       -1.6284873 magnetization 

 Free energy of the ion-electron system (eV)
  ---------------------------------------------------
  alpha Z        PSCENC =         5.26383816
  Ewald energy   TEWEN  =       378.22030483
  -Hartree energ DENC   =      -670.08548556
  -exchange      EXHF   =         0.00000000
  -V(xc)+E(xc)   XCENC  =       -23.49629865
  PAW double counting   =       331.11249480     -288.38420711
  entropy T*S    EENTRO =        -0.00000000
  eigenvalues    EBANDS =       -82.34453170
  atomic energy  EATOM  =       340.37129062
  Solvation  Ediel_sol  =         0.00000000
  ---------------------------------------------------
  free energy    TOTEN  =        -9.34259460 eV

  energy without entropy =       -9.34259460  energy(sigma->0) =       -9.34259460


--------------------------------------------------------------------------------------------------------




 average (electrostatic) potential at core
  the test charge radii are     1.0621
  (the norm of the test charge is              1.0000)
       1 -57.2630       2 -57.2630
 
 
 
 E-fermi :  -2.9715     XC(G=0):  -3.2477     alpha+bet : -2.4472

 Fermi energy:        -2.9715245688

 k-point     1 :       0.0000    0.0000    0.0000
  band No.  band energies     occupation 
      1     -16.4739      2.00000
      2     -10.1870      2.00000
      3      -3.5635      2.00000
      4      -3.0145      2.00000
      5      -3.0145      2.00000
      6      -1.0926      0.00000
      7       0.4759      0.00000
      8       0.4759      0.00000
      9       1.9033      0.00000
     10       1.9992      0.00000
     11       3.3826      0.00000
     12       4.3055      0.00000

 k-point     2 :       0.0769    0.0000    0.0000
  band No.  band energies     occupation 
      1     -16.3955      2.00000
      2     -10.1765      2.00000
      3      -3.8047      2.00000
      4      -3.5254      2.00000
      5      -3.1917      2.00000
      6      -0.5087      0.00000
      7       0.3543      0.00000
      8       0.6568      0.00000
      9       2.0158      0.00000
     10       2.0951      0.00000
     11       3.4685      0.00000
     12       4.3990      0.00000

 k-point     3 :       0.1538    0.0000    0.0000
  band No.  band energies     occupation 
      1     -16.1623      2.00000
      2     -10.1789      2.00000
      3      -5.0254      2.00000
      4      -3.5993      2.00000
      5      -3.4383      2.00000
      6      -0.6753      0.00000
      7       0.9236      0.00000
      8       1.0341      0.00000
      9       2.2882      0.00000
     10       2.4060      0.00000
     11       3.6837      0.00000
     12       4.6448      0.00000

 k-point     4 :       0.2308   -0.0000    0.0000
  band No.  band energies     occupation 
      1     -15.7812      2.00000
      2     -10.3079      2.00000
      3      -6.0281      2.00000
      4      -4.0518      2.00000
      5      -3.4094      2.00000
      6      -1.1991      0.00000
      7       1.3094      0.00000
      8       1.3451      0.00000
      9       2.5966      0.00000
     10       2.8608      0.00000
     11       4.0325      0.00000
     12       4.8967      0.00000

 k-point     5 :       0.3077    0.0000    0.0000
  band No.  band energies     occupation 
      1     -15.2691      2.00000
      2     -10.7190      2.00000
      3      -6.5583      2.00000
      4      -4.4427      2.00000
      5      -3.6313      2.00000
      6      -1.4180      0.00000
      7       0.9877      0.00000
      8       1.4844      0.00000
      9       3.1299      0.00000
     10       3.3448      0.00000
     11       4.2900      0.00000
     12       5.3690      0.00000

 k-point     6 :       0.3846    0.0000    0.0000
  band No.  band energies     occupation 
      1     -14.6710      2.00000
      2     -11.3899      2.00000
      3      -6.6062      2.00000
      4      -4.7220      2.00000
      5      -4.0989      2.00000
      6      -1.2901      0.00000
      7       0.4967      0.00000
      8       1.5048      0.00000
      9       3.5021      0.00000
     10       3.9097      0.00000
     11       4.5760      0.00000
     12       5.7996      0.00000

 k-point     7 :       0.4615   -0.0000    0.0000
  band No.  band energies     occupation 
      1     -14.1454      2.00000
      2     -12.0086      2.00000
      3      -6.4469      2.00000
      4      -4.8663      2.00000
      5      -4.5114      2.00000
      6      -1.0855      0.00000
      7       0.1713      0.00000
      8       1.4914      0.00000
      9       3.3011      0.00000
     10       4.8554      0.00000
     11       5.3009      0.00000
     12       5.9079      0.00000

 k-point     8 :       0.0769    0.0769    0.0000
  band No.  band energies     occupation 
      1     -16.2397      2.00000
      2     -10.1718      2.00000
      3      -4.6616      2.00000
      4      -3.5893      2.00000
      5      -3.4558      2.00000
      6      -0.0077      0.00000
      7       0.0322      0.00000
      8       1.1437      0.00000
      9       2.2423      0.00000
     10       2.2710      0.00000
     11       3.6087      0.00000
     12       4.5787      0.00000

 k-point     9 :       0.1538    0.0769    0.0000
  band No.  band energies     occupation 
      1     -15.9321      2.00000
      2     -10.2335      2.00000
      3      -5.6299      2.00000
      4      -4.1688      2.00000
      5      -3.3833      2.00000
      6      -0.5360      0.00000
      7       0.6406      0.00000
      8       1.5609      0.00000
      9       2.5300      0.00000
     10       2.6600      0.00000
     11       3.8345      0.00000
     12       4.8448      0.00000

 k-point    10 :       0.2308    0.0769    0.0000
  band No.  band energies     occupation 
      1     -15.4836      2.00000
      2     -10.5031      2.00000
      3      -6.3271      2.00000
      4      -4.6822      2.00000
      5      -3.4402      2.00000
      6      -0.9483      0.00000
      7       1.0465      0.00000
      8       1.4103      0.00000
      9       2.9102      0.00000
     10       3.1633      0.00000
     11       4.1870      0.00000
     12       5.1493      0.00000

 k-point    11 :       0.3077    0.0769    0.0000
  band No.  band energies     occupation 
      1     -14.9204      2.00000
      2     -11.0655      2.00000
      3      -6.5801      2.00000
      4      -5.0373      2.00000
      5      -3.7735      2.00000
      6      -1.0045      0.00000
      7       0.8637      0.00000
      8       1.2144      0.00000
      9       3.5654      0.00000
     10       3.6301      0.00000
     11       4.4246      0.00000
     12       5.6272      0.00000

 k-point    12 :       0.3846    0.0769    0.0000
  band No.  band energies     occupation 
      1     -14.3220      2.00000
      2     -11.7587      2.00000
      3      -6.5239      2.00000
      4      -5.1780      2.00000
      5      -4.2727      2.00000
      6      -0.7752      0.00000
      7       0.3318      0.00000
      8       1.2903      0.00000
      9       3.5203      0.00000
     10       4.4491      0.00000
     11       4.9860      0.00000
     12       6.1083      0.00000

 k-point    13 :       0.4615    0.0769    0.0000
  band No.  band energies     occupation 
      1     -13.9900      2.00000
      2     -12.1400      2.00000
      3      -6.4543      2.00000
      4      -5.1461      2.00000
      5      -4.5714      2.00000
      6      -0.5672      0.00000
      7       0.0444      0.00000
      8       1.3240      0.00000
      9       3.3609      0.00000
     10       5.4323      0.00000
     11       5.4722      0.00000
     12       5.7820      0.00000

 k-point    14 :       0.1538    0.1538    0.0000
  band No.  band energies     occupation 
      1     -15.5559      2.00000
      2     -10.4312      2.00000
      3      -6.1118      2.00000
      4      -4.9975      2.00000
      5      -3.3822      2.00000
      6      -0.2608      0.00000
      7       0.4631      0.00000
      8       1.6932      0.00000
      9       2.9433      0.00000
     10       2.9984      0.00000
     11       3.9609      0.00000
     12       5.0244      0.00000

 k-point    15 :       0.2308    0.1538    0.0000
  band No.  band energies     occupation 
      1     -15.0496      2.00000
      2     -10.8696      2.00000
      3      -6.3630      2.00000
      4      -5.6205      2.00000
      5      -3.5674      2.00000
      6      -0.3449      0.00000
      7       0.5238      0.00000
      8       1.5459      0.00000
      9       3.4426      0.00000
     10       3.5803      0.00000
     11       4.3277      0.00000
     12       5.4438      0.00000

 k-point    16 :       0.3077    0.1538    0.0000
  band No.  band energies     occupation 
      1     -14.4532      2.00000
      2     -11.5116      2.00000
      3      -6.5273      2.00000
      4      -5.7657      2.00000
      5      -3.9906      2.00000
      6      -0.3482      0.00000
      7       0.4847      0.00000
      8       1.3139      0.00000
      9       3.9191      0.00000
     10       4.2192      0.00000
     11       4.8032      0.00000
     12       5.9998      0.00000

 k-point    17 :       0.3846    0.1538    0.0000
  band No.  band energies     occupation 
      1     -13.9116      2.00000
      2     -12.1145      2.00000
      3      -6.6728      2.00000
      4      -5.5202      2.00000
      5      -4.4722      2.00000
      6      -0.2848      0.00000
      7       0.4499      0.00000
      8       1.1720      0.00000
      9       3.7422      0.00000
     10       5.1719      0.00000
     11       5.5781      0.00000
     12       6.1786      0.00000

 k-point    18 :       0.2308    0.2308    0.0000
  band No.  band energies     occupation 
      1     -14.5007      2.00000
      2     -11.4064      2.00000
      3      -6.4372      2.00000
      4      -6.1075      2.00000
      5      -3.8679      2.00000
      6      -0.1428      0.00000
      7       0.2295      0.00000
      8       1.8111      0.00000
      9       4.0891      0.00000
     10       4.1712      0.00000
     11       4.7720      0.00000
     12       5.5113      0.00000

 k-point    19 :       0.3077    0.2308    0.0000
  band No.  band energies     occupation 
      1     -13.8945      2.00000
      2     -12.0319      2.00000
      3      -6.9290      2.00000
      4      -5.7042      2.00000
      5      -4.3171      2.00000
      6      -0.5698      0.00000
      7       0.7432      0.00000
      8       1.7001      0.00000
      9       4.4889      0.00000
     10       5.0046      0.00000
     11       5.3077      0.00000
     12       5.7292      0.00000

 k-point    20 :       0.3846    0.2308    0.0000
  band No.  band energies     occupation 
      1     -13.5110      2.00000
      2     -12.4277      2.00000
      3      -7.0974      2.00000
      4      -5.3889      2.00000
      5      -4.6478      2.00000
      6      -0.7223      0.00000
      7       1.2307      0.00000
      8       1.3269      0.00000
      9       4.4348      0.00000
     10       5.4462      0.00000
     11       6.0461      0.00000
     12       6.0977      0.00000

 k-point    21 :       0.3077    0.3077    0.0000
  band No.  band energies     occupation 
      1     -13.2986      2.00000
      2     -12.5970      2.00000
      3      -7.2925      2.00000
      4      -5.2698      2.00000
      5      -4.7267      2.00000
      6      -0.9379      0.00000
      7       1.2815      0.00000
      8       1.6956      0.00000
      9       5.1311      0.00000
     10       5.5419      0.00000
     11       5.6230      0.00000
     12       6.1624      0.00000

 k-point    22 :       0.0000    0.0000    0.3333
  band No.  band energies     occupation 
      1     -16.4739      2.00000
      2     -10.1870      2.00000
      3      -3.5635      2.00000
      4      -3.0145      2.00000
      5      -3.0145      2.00000
      6      -1.0927      0.00000
      7       0.4759      0.00000
      8       0.4759      0.00000
      9       1.7927      0.00000
     10       2.1899      0.00000
     11       3.1454      0.00000
     12       4.6090      0.00000

 k-point    23 :       0.0769    0.0000    0.3333
  band No.  band energies     occupation 
      1     -16.3955      2.00000
      2     -10.1765      2.00000
      3      -3.8047      2.00000
      4      -3.5254      2.00000
      5      -3.1917      2.00000
      6      -0.5088      0.00000
      7       0.3541      0.00000
      8       0.6569      0.00000
      9       1.9052      0.00000
     10       2.2817      0.00000
     11       3.2436      0.00000
     12       4.6807      0.00000

 k-point    24 :       0.0000    0.0769    0.3333
  band No.  band energies     occupation 
      1     -16.3955      2.00000
      2     -10.1765      2.00000
      3      -3.8046      2.00000
      4      -3.5254      2.00000
      5      -3.1917      2.00000
      6      -0.5089      0.00000
      7       0.3543      0.00000
      8       0.6569      0.00000
      9       1.9000      0.00000
     10       2.2910      0.00000
     11       3.2351      0.00000
     12       4.6946      0.00000

 k-point    25 :       0.1538    0.0000    0.3333
  band No.  band energies     occupation 
      1     -16.1623      2.00000
      2     -10.1789      2.00000
      3      -5.0254      2.00000
      4      -3.5993      2.00000
      5      -3.4383      2.00000
      6      -0.6753      0.00000
      7       0.9217      0.00000
      8       1.0341      0.00000
      9       2.2245      0.00000
     10       2.5260      0.00000
     11       3.5360      0.00000
     12       4.6650      0.00000

 k-point    26 :       0.0000    0.1538    0.3333
  band No.  band energies     occupation 
      1     -16.1623      2.00000
      2     -10.1789      2.00000
      3      -5.0254      2.00000
      4      -3.5993      2.00000
      5      -3.4383      2.00000
      6      -0.6754      0.00000
      7       0.9231      0.00000
      8       1.0341      0.00000
      9       2.1846      0.00000
     10       2.5970      0.00000
     11       3.4619      0.00000
     12       4.8122      0.00000

 k-point    27 :       0.2308   -0.0000    0.3333
  band No.  band energies     occupation 
      1     -15.7812      2.00000
      2     -10.3079      2.00000
      3      -6.0281      2.00000
      4      -4.0518      2.00000
      5      -3.4094      2.00000
      6      -1.1991      0.00000
      7       1.3084      0.00000
      8       1.3451      0.00000
      9       2.5472      0.00000
     10       2.9674      0.00000
     11       3.9462      0.00000
     12       4.7029      0.00000

 k-point    28 :       0.0000    0.2308    0.3333
  band No.  band energies     occupation 
      1     -15.7812      2.00000
      2     -10.3079      2.00000
      3      -6.0281      2.00000
      4      -4.0518      2.00000
      5      -3.4094      2.00000
      6      -1.1991      0.00000
      7       1.3099      0.00000
      8       1.3451      0.00000
      9       2.5108      0.00000
     10       3.0548      0.00000
     11       3.7989      0.00000
     12       4.9754      0.00000

 k-point    29 :       0.3077    0.0000    0.3333
  band No.  band energies     occupation 
      1     -15.2691      2.00000
      2     -10.7190      2.00000
      3      -6.5583      2.00000
      4      -4.4427      2.00000
      5      -3.6313      2.00000
      6      -1.4180      0.00000
      7       0.9878      0.00000
      8       1.4844      0.00000
      9       3.0666      0.00000
     10       3.4387      0.00000
     11       4.4145      0.00000
     12       4.8072      0.00000

 k-point    30 :       0.0000    0.3077    0.3333
  band No.  band energies     occupation 
      1     -15.2691      2.00000
      2     -10.7190      2.00000
      3      -6.5583      2.00000
      4      -4.4427      2.00000
      5      -3.6313      2.00000
      6      -1.4180      0.00000
      7       0.9879      0.00000
      8       1.4844      0.00000
      9       3.0578      0.00000
     10       3.4634      0.00000
     11       4.3026      0.00000
     12       4.9907      0.00000

 k-point    31 :       0.3846    0.0000    0.3333
  band No.  band energies     occupation 
      1     -14.6710      2.00000
      2     -11.3899      2.00000
      3      -6.6062      2.00000
      4      -4.7220      2.00000
      5      -4.0989      2.00000
      6      -1.2901      0.00000
      7       0.4967      0.00000
      8       1.5048      0.00000
      9       3.5106      0.00000
     10       3.8501      0.00000
     11       4.8325      0.00000
     12       5.3093      0.00000

 k-point    32 :       0.0000    0.3846    0.3333
  band No.  band energies     occupation 
      1     -14.6710      2.00000
      2     -11.3899      2.00000
      3      -6.6062      2.00000
      4      -4.7220      2.00000
      5      -4.0989      2.00000
      6      -1.2901      0.00000
      7       0.4967      0.00000
      8       1.5048      0.00000
      9       3.5147      0.00000
     10       3.8484      0.00000
     11       4.7618      0.00000
     12       5.4660      0.00000

 k-point    33 :       0.4615   -0.0000    0.3333
  band No.  band energies     occupation 
      1     -14.1454      2.00000
      2     -12.0085      2.00000
      3      -6.4469      2.00000
      4      -4.8663      2.00000
      5      -4.5114      2.00000
      6      -1.0855      0.00000
      7       0.1713      0.00000
      8       1.4914      0.00000
      9       3.3018      0.00000
     10       4.7966      0.00000
     11       5.4489      0.00000
     12       5.9589      0.00000

 k-point    34 :       0.0000    0.4615    0.3333
  band No.  band energies     occupation 
      1     -14.1454      2.00000
      2     -12.0085      2.00000
      3      -6.4469      2.00000
      4      -4.8663      2.00000
      5      -4.5114      2.00000
      6      -1.0855      0.00000
      7       0.1713      0.00000
      8       1.4914      0.00000
      9       3.3020      0.00000
     10       4.8109      0.00000
     11       5.3719      0.00000
     12       5.9393      0.00000

 k-point    35 :       0.0769    0.0769    0.3333
  band No.  band energies     occupation 
      1     -16.2397      2.00000
      2     -10.1718      2.00000
      3      -4.6616      2.00000
      4      -3.5893      2.00000
      5      -3.4558      2.00000
      6      -0.0079      0.00000
      7       0.0322      0.00000
      8       1.1423      0.00000
      9       2.1241      0.00000
     10       2.4605      0.00000
     11       3.4164      0.00000
     12       4.7285      0.00000

 k-point    36 :       0.1538    0.0769    0.3333
  band No.  band energies     occupation 
      1     -15.9321      2.00000
      2     -10.2335      2.00000
      3      -5.6299      2.00000
      4      -4.1688      2.00000
      5      -3.3833      2.00000
      6      -0.5359      0.00000
      7       0.6403      0.00000
      8       1.5580      0.00000
      9       2.4764      0.00000
     10       2.7621      0.00000
     11       3.7753      0.00000
     12       4.5441      0.00000

 k-point    37 :      -0.0769    0.2308    0.3333
  band No.  band energies     occupation 
      1     -15.9321      2.00000
      2     -10.2335      2.00000
      3      -5.6299      2.00000
      4      -4.1688      2.00000
      5      -3.3833      2.00000
      6      -0.5360      0.00000
      7       0.6406      0.00000
      8       1.5594      0.00000
      9       2.4355      0.00000
     10       2.8357      0.00000
     11       3.6798      0.00000
     12       4.6846      0.00000

 k-point    38 :       0.2308    0.0769    0.3333
  band No.  band energies     occupation 
      1     -15.4836      2.00000
      2     -10.5031      2.00000
      3      -6.3270      2.00000
      4      -4.6822      2.00000
      5      -3.4402      2.00000
      6      -0.9483      0.00000
      7       1.0464      0.00000
      8       1.4101      0.00000
      9       2.8550      0.00000
     10       3.2603      0.00000
     11       4.2533      0.00000
     12       4.6788      0.00000

 k-point    39 :      -0.0769    0.3077    0.3333
  band No.  band energies     occupation 
      1     -15.4836      2.00000
      2     -10.5031      2.00000
      3      -6.3270      2.00000
      4      -4.6822      2.00000
      5      -3.4402      2.00000
      6      -0.9483      0.00000
      7       1.0466      0.00000
      8       1.4105      0.00000
      9       2.8300      0.00000
     10       3.3263      0.00000
     11       4.0858      0.00000
     12       4.9126      0.00000

 k-point    40 :       0.3077    0.0769    0.3333
  band No.  band energies     occupation 
      1     -14.9204      2.00000
      2     -11.0655      2.00000
      3      -6.5801      2.00000
      4      -5.0373      2.00000
      5      -3.7735      2.00000
      6      -1.0045      0.00000
      7       0.8638      0.00000
      8       1.2144      0.00000
      9       3.5125      0.00000
     10       3.6622      0.00000
     11       4.6669      0.00000
     12       5.0392      0.00000

 k-point    41 :      -0.0769    0.3846    0.3333
  band No.  band energies     occupation 
      1     -14.9204      2.00000
      2     -11.0655      2.00000
      3      -6.5801      2.00000
      4      -5.0373      2.00000
      5      -3.7735      2.00000
      6      -1.0045      0.00000
      7       0.8638      0.00000
      8       1.2144      0.00000
      9       3.4984      0.00000
     10       3.6881      0.00000
     11       4.5675      0.00000
     12       5.1957      0.00000

 k-point    42 :       0.3846    0.0769    0.3333
  band No.  band energies     occupation 
      1     -14.3220      2.00000
      2     -11.7587      2.00000
      3      -6.5240      2.00000
      4      -5.1780      2.00000
      5      -4.2727      2.00000
      6      -0.7752      0.00000
      7       0.3319      0.00000
      8       1.2904      0.00000
      9       3.5225      0.00000
     10       4.3860      0.00000
     11       5.2129      0.00000
     12       5.7958      0.00000

 k-point    43 :      -0.0769    0.4615    0.3333
  band No.  band energies     occupation 
      1     -14.3220      2.00000
      2     -11.7587      2.00000
      3      -6.5240      2.00000
      4      -5.1780      2.00000
      5      -4.2727      2.00000
      6      -0.7752      0.00000
      7       0.3318      0.00000
      8       1.2904      0.00000
      9       3.5232      0.00000
     10       4.3909      0.00000
     11       5.1516      0.00000
     12       5.9318      0.00000

 k-point    44 :       0.4615    0.0769    0.3333
  band No.  band energies     occupation 
      1     -13.9900      2.00000
      2     -12.1400      2.00000
      3      -6.4543      2.00000
      4      -5.1461      2.00000
      5      -4.5714      2.00000
      6      -0.5672      0.00000
      7       0.0444      0.00000
      8       1.3240      0.00000
      9       3.3613      0.00000
     10       5.3998      0.00000
     11       5.4255      0.00000
     12       5.8245      0.00000

 k-point    45 :       0.1538    0.1538    0.3333
  band No.  band energies     occupation 
      1     -15.5559      2.00000
      2     -10.4312      2.00000
      3      -6.1118      2.00000
      4      -4.9975      2.00000
      5      -3.3822      2.00000
      6      -0.2607      0.00000
      7       0.4631      0.00000
      8       1.6923      0.00000
      9       2.8478      0.00000
     10       3.1248      0.00000
     11       4.0514      0.00000
     12       4.5304      0.00000

 k-point    46 :       0.2308    0.1538    0.3333
  band No.  band energies     occupation 
      1     -15.0496      2.00000
      2     -10.8696      2.00000
      3      -6.3630      2.00000
      4      -5.6205      2.00000
      5      -3.5674      2.00000
      6      -0.3449      0.00000
      7       0.5238      0.00000
      8       1.5458      0.00000
      9       3.3947      0.00000
     10       3.6174      0.00000
     11       4.5529      0.00000
     12       4.9000      0.00000

 k-point    47 :      -0.1538    0.3846    0.3333
  band No.  band energies     occupation 
      1     -15.0496      2.00000
      2     -10.8696      2.00000
      3      -6.3630      2.00000
      4      -5.6205      2.00000
      5      -3.5674      2.00000
      6      -0.3449      0.00000
      7       0.5239      0.00000
      8       1.5459      0.00000
      9       3.3685      0.00000
     10       3.6690      0.00000
     11       4.4384      0.00000
     12       5.0339      0.00000

 k-point    48 :       0.3077    0.1538    0.3333
  band No.  band energies     occupation 
      1     -14.4532      2.00000
      2     -11.5116      2.00000
      3      -6.5273      2.00000
      4      -5.7657      2.00000
      5      -3.9906      2.00000
      6      -0.3481      0.00000
      7       0.4847      0.00000
      8       1.3139      0.00000
      9       3.9319      0.00000
     10       4.1512      0.00000
     11       5.0274      0.00000
     12       5.5970      0.00000

 k-point    49 :      -0.1538    0.4615    0.3333
  band No.  band energies     occupation 
      1     -14.4532      2.00000
      2     -11.5116      2.00000
      3      -6.5273      2.00000
      4      -5.7657      2.00000
      5      -3.9906      2.00000
      6      -0.3482      0.00000
      7       0.4847      0.00000
      8       1.3139      0.00000
      9       3.9303      0.00000
     10       4.1573      0.00000
     11       4.9883      0.00000
     12       5.6661      0.00000

 k-point    50 :       0.3846    0.1538    0.3333
  band No.  band energies     occupation 
      1     -13.9116      2.00000
      2     -12.1145      2.00000
      3      -6.6728      2.00000
      4      -5.5202      2.00000
      5      -4.4722      2.00000
      6      -0.2848      0.00000
      7       0.4499      0.00000
      8       1.1720      0.00000
      9       3.7429      0.00000
     10       5.1096      0.00000
     11       5.7433      0.00000
     12       6.1771      0.00000

 k-point    51 :      -0.1538   -0.4615    0.3333
  band No.  band energies     occupation 
      1     -13.9116      2.00000
      2     -12.1145      2.00000
      3      -6.6728      2.00000
      4      -5.5202      2.00000
      5      -4.4722      2.00000
      6      -0.2848      0.00000
      7       0.4499      0.00000
      8       1.1720      0.00000
      9       3.7431      0.00000
     10       5.1144      0.00000
     11       5.7028      0.00000
     12       6.1521      0.00000

 k-point    52 :       0.2308    0.2308    0.3333
  band No.  band energies     occupation 
      1     -14.5007      2.00000
      2     -11.4064      2.00000
      3      -6.4372      2.00000
      4      -6.1075      2.00000
      5      -3.8679      2.00000
      6      -0.1428      0.00000
      7       0.2295      0.00000
      8       1.8110      0.00000
      9       4.0828      0.00000
     10       4.1381      0.00000
     11       4.9494      0.00000
     12       5.4783      0.00000

 k-point    53 :       0.3077    0.2308    0.3333
  band No.  band energies     occupation 
      1     -13.8945      2.00000
      2     -12.0319      2.00000
      3      -6.9289      2.00000
      4      -5.7042      2.00000
      5      -4.3171      2.00000
      6      -0.5698      0.00000
      7       0.7433      0.00000
      8       1.7001      0.00000
      9       4.4904      0.00000
     10       4.9526      0.00000
     11       5.3915      0.00000
     12       5.7142      0.00000

 k-point    54 :      -0.2308   -0.4615    0.3333
  band No.  band energies     occupation 
      1     -13.8945      2.00000
      2     -12.0319      2.00000
      3      -6.9289      2.00000
      4      -5.7042      2.00000
      5      -4.3171      2.00000
      6      -0.5698      0.00000
      7       0.7433      0.00000
      8       1.7001      0.00000
      9       4.4947      0.00000
     10       4.9404      0.00000
     11       5.3795      0.00000
     12       5.7710      0.00000

 k-point    55 :       0.3846    0.2308    0.3333
  band No.  band energies     occupation 
      1     -13.5110      2.00000
      2     -12.4277      2.00000
      3      -7.0974      2.00000
      4      -5.3889      2.00000
      5      -4.6478      2.00000
      6      -0.7223      0.00000
      7       1.2308      0.00000
      8       1.3269      0.00000
      9       4.4353      0.00000
     10       5.4514      0.00000
     11       5.9909      0.00000
     12       6.0430      0.00000

 k-point    56 :       0.3077    0.3077    0.3333
  band No.  band energies     occupation 
      1     -13.2986      2.00000
      2     -12.5970      2.00000
      3      -7.2925      2.00000
      4      -5.2698      2.00000
      5      -4.7267      2.00000
      6      -0.9379      0.00000
      7       1.2815      0.00000
      8       1.6956      0.00000
      9       5.1337      0.00000
     10       5.5344      0.00000
     11       5.6315      0.00000
     12       6.1015      0.00000


--------------------------------------------------------------------------------------------------------


 soft charge-density along one line, spin component           1
         0         1         2         3         4         5         6         7         8         9
 total charge-density along one line
 
 pseudopotential strength for first ion, spin component:           1
 25.466 -40.478   0.000   0.081  -0.000  -0.000  -0.178   0.000
-40.478  41.306  -0.000  -0.165   0.000   0.000   0.449  -0.000
  0.000  -0.000   5.892   0.000  -0.000  -7.417  -0.000   0.000
  0.081  -0.165   0.000   5.884  -0.000  -0.000  -7.405   0.000
 -0.000   0.000  -0.000  -0.000   5.892   0.000   0.000  -7.417
 -0.000   0.000  -7.417  -0.000   0.000  11.035   0.000  -0.000
 -0.178   0.449  -0.000  -7.405   0.000   0.000  11.006  -0.000
  0.000  -0.000   0.000   0.000  -7.417  -0.000  -0.000  11.035
 -0.000   0.000  -0.000   0.000  -0.003   0.000  -0.000   0.003
  0.000  -0.000   0.018  -0.000   0.000  -0.037   0.000  -0.000
 -0.009   0.013  -0.000   0.025   0.000   0.000  -0.047  -0.000
 -0.000   0.000   0.000   0.000   0.018  -0.000  -0.000  -0.037
  0.000  -0.000  -0.003  -0.000  -0.000   0.003   0.000   0.000
 total augmentation occupancy for first ion, spin component:           1
  1.950   0.003  -0.000  -0.231  -0.000  -0.000  -0.001   0.000  -0.000   0.000  -0.012  -0.000   0.000
  0.003   0.001   0.000   0.021   0.000   0.000   0.000   0.000  -0.000  -0.000  -0.000   0.000   0.000
 -0.000   0.000   1.064   0.000   0.000   0.015  -0.000   0.000  -0.000   0.114  -0.000   0.000   0.064
 -0.231   0.021   0.000   1.207   0.000   0.000   0.014   0.000  -0.000  -0.000   0.030  -0.000  -0.000
  0.000   0.000   0.000  -0.000   1.064   0.000  -0.000   0.015   0.064   0.000  -0.000   0.114   0.000
 -0.000  -0.000   0.015  -0.000   0.000   0.000   0.000   0.000  -0.000   0.002  -0.000   0.000   0.001
 -0.001   0.000  -0.000   0.014  -0.000   0.000   0.000   0.000  -0.000   0.000   0.001   0.000  -0.000
 -0.000  -0.000   0.000   0.000   0.015   0.000  -0.000   0.000   0.001   0.000  -0.000   0.002   0.000
 -0.000  -0.000  -0.000  -0.000   0.064  -0.000  -0.000   0.001   0.013  -0.000  -0.000   0.007   0.000
  0.000  -0.000   0.114   0.000   0.000   0.002   0.000   0.000  -0.000   0.019  -0.000   0.000   0.007
 -0.012  -0.000  -0.000   0.030  -0.000  -0.000   0.001  -0.000  -0.000  -0.000   0.008  -0.000  -0.000
  0.000   0.000  -0.000  -0.000   0.114   0.000   0.000   0.002   0.007   0.000  -0.000   0.019   0.000
  0.000   0.000   0.064  -0.000   0.000   0.001  -0.000   0.000  -0.000   0.007  -0.000   0.000   0.013


------------------------ aborting loop because EDIFF is reached ----------------------------------------





 total charge

# of ion       s       p       d       tot
------------------------------------------
    1        1.291   1.348   0.041   2.679
    2        1.291   1.348   0.041   2.679
--------------------------------------------------
tot          2.582   2.695   0.082   5.359
 
    CHARGE:  cpu time      0.1077: real time      0.1080
    FORLOC:  cpu time      0.0046: real time      0.0046
    FORNL :  cpu time      0.3038: real time      0.3046
    STRESS:  cpu time      0.8386: real time      0.8399
    FORCOR:  cpu time      0.0324: real time      0.0325
    FORHAR:  cpu time      0.0072: real time      0.0072
    MIXING:  cpu time      0.0013: real time      0.0013
    OFIELD:  cpu time      0.0001: real time      0.0001

  FORCE on cell =-STRESS in cart. coord.  units (eV):
  Direction    XX          YY          ZZ          XY          YZ          ZX
  --------------------------------------------------------------------------------------
  Alpha Z     5.26384     5.26384     5.26384
  Ewald     617.16201   617.16201  -856.10369    -0.00000     0.00000    -0.00000
  Hartree   656.18733   656.18733  -642.28024    -0.00000    -0.00000    -0.00000
  E(xc)     -36.99246   -36.99246   -37.41359     0.00000     0.00000    -0.00000
  Local   -1402.09193 -1402.09194  1363.65057    -0.00000    -0.00000     0.00000
  n-local    74.07134    74.07726    74.83197    -0.35752     0.34424    -0.51402
  augment    -2.79224    -2.79223    -3.19474     0.00001    -0.00000     0.00000
  Kinetic    88.04310    90.31574    95.23650     0.52538     0.25617    -1.19900
  Fock        0.00000     0.00000     0.00000     0.00000     0.00000     0.00000
  -------------------------------------------------------------------------------------
  Total      -0.00973    -0.00973    -0.00938     0.00000     0.00000     0.00000
  in kB      -0.08647    -0.08647    -0.08335     0.00000     0.00000     0.00000
  external pressure =       -0.09 kB  Pullay stress =        0.00 kB


 VOLUME and BASIS-vectors are now :
 -----------------------------------------------------------------------------
  energy-cutoff  :      417.40
  volume of cell :      180.27
      direct lattice vectors                 reciprocal lattice vectors
     3.606892539  0.000000000  0.000000000     0.277246962  0.160068608  0.000000000
    -1.803446269  3.123660567  0.000000000     0.000000000  0.320137217  0.000000000
     0.000000000  0.000000000 16.000000000     0.000000000  0.000000000  0.062500000

  length of vectors
     3.606892539  3.606892539 16.000000000     0.320137217  0.320137217  0.062500000


 FORCES acting on ions
    electron-ion (+dipol)            ewald-force                    non-local-force                 convergence-correction
 -----------------------------------------------------------------------------------------------
   0.577E-07 -.176E-07 0.130E+03   0.264E-11 -.149E-11 -.136E+03   0.173E-16 -.139E-16 0.588E+01   -.155E-08 0.897E-09 -.125E-02
   -.577E-07 0.176E-07 -.130E+03   -.264E-11 0.148E-11 0.136E+03   -.173E-16 0.139E-16 -.588E+01   0.155E-08 -.897E-09 0.125E-02
 -----------------------------------------------------------------------------------------------
   -.733E-13 -.799E-13 -.591E-11   -.111E-14 -.253E-14 0.000E+00   0.000E+00 0.000E+00 0.000E+00   -.668E-15 -.196E-14 -.114E-13
 
 
 POSITION                                       TOTAL-FORCE (eV/Angst)
 -----------------------------------------------------------------------------------
      1.80345      1.04122      7.30149         0.000000      0.000000      0.008368
      0.00000      2.08244      8.69851         0.000000      0.000000     -0.008368
 -----------------------------------------------------------------------------------
    total drift:                               -0.000000     -0.000000     -0.000000


--------------------------------------------------------------------------------------------------------



  FREE ENERGIE OF THE ION-ELECTRON SYSTEM (eV)
  ---------------------------------------------------
  free  energy   TOTEN  =        -9.34259460 eV

  energy  without entropy=       -9.34259460  energy(sigma->0) =       -9.34259460
 


--------------------------------------------------------------------------------------------------------


    POTLOK:  cpu time      0.2486: real time      0.2490


--------------------------------------------------------------------------------------------------------




--------------------------------------------------------------------------------------------------------


  
 reached required accuracy - stopping structural energy minimisation
     LOOP+:  cpu time     25.1730: real time     25.9184
    4ORBIT:  cpu time      0.0000: real time      0.0000



 total charge

# of ion       s       p       d       tot
------------------------------------------
    1        1.291   1.348   0.041   2.679
    2        1.291   1.348   0.041   2.679
--------------------------------------------------
tot          2.582   2.695   0.082   5.359
 

 total amount of memory used by VASP MPI-rank0    44844. kBytes
=======================================================================

   base      :      30000. kBytes
   nonl-proj :       5246. kBytes
   fftplans  :       5013. kBytes
   grid      :       2126. kBytes
   one-center:          8. kBytes
   wavefun   :       2451. kBytes
 
  
  
 General timing and accounting informations for this job:
 ========================================================
  
                  Total CPU time used (sec):       26.471
                            User time (sec):       26.212
                          System time (sec):        0.259
                         Elapsed time (sec):       28.662
  
                   Maximum memory used (kb):      162304.
                   Average memory used (kb):          N/A
  
                          Minor page faults:        21036
                          Major page faults:         2803
                 Voluntary context switches:          170
