PROCAR new format
# of k-points:   56         # of bands:   12         # of ions:    2

 k-point     1 :    0.00000000 0.00000000 0.00000000     weight = 0.00197239

band     1 # energy  -16.47391424 # occ.  2.00000000
 
ion      s      p      d    tot
    1  0.268  0.011  0.000  0.279
    2  0.268  0.011  0.000  0.279
tot    0.536  0.021  0.000  0.557
 
band     2 # energy  -10.18699660 # occ.  2.00000000
 
ion      s      p      d    tot
    1  0.284  0.025  0.001  0.309
    2  0.284  0.025  0.001  0.309
tot    0.567  0.050  0.001  0.619
 
band     3 # energy   -3.56348564 # occ.  2.00000000
 
ion      s      p      d    tot
    1  0.006  0.193  0.002  0.200
    2  0.006  0.193  0.002  0.200
tot    0.011  0.386  0.003  0.400
 
band     4 # energy   -3.01452988 # occ.  2.00000000
 
ion      s      p      d    tot
    1  0.000  0.283  0.014  0.297
    2  0.000  0.283  0.014  0.297
tot    0.000  0.565  0.028  0.594
 
band     5 # energy   -3.01452958 # occ.  2.00000000
 
ion      s      p      d    tot
    1  0.000  0.283  0.014  0.297
    2  0.000  0.283  0.014  0.297
tot    0.000  0.565  0.028  0.594
 
band     6 # energy   -1.09258362 # occ.  0.00000000
 
ion      s      p      d    tot
    1  0.144  0.118  0.011  0.273
    2  0.144  0.118  0.011  0.273
tot    0.288  0.236  0.021  0.545
 
band     7 # energy    0.47591669 # occ.  0.00000000
 
ion      s      p      d    tot
    1  0.000  0.259  0.019  0.278
    2  0.000  0.259  0.019  0.278
tot    0.000  0.519  0.037  0.556
 
band     8 # energy    0.47591698 # occ.  0.00000000
 
ion      s      p      d    tot
    1  0.000  0.259  0.019  0.278
    2  0.000  0.259  0.019  0.278
tot    0.000  0.519  0.037  0.556
 
band     9 # energy    1.90334613 # occ.  0.00000000
 
ion      s      p      d    tot
    1  0.000  0.014  0.012  0.026
    2  0.000  0.014  0.012  0.026
tot    0.000  0.027  0.025  0.052
 
band    10 # energy    1.99921516 # occ.  0.00000000
 
ion      s      p      d    tot
    1  0.005  0.017  0.000  0.022
    2  0.005  0.017  0.000  0.022
tot    0.010  0.034  0.000  0.044
 
band    11 # energy    3.38258935 # occ.  0.00000000
 
ion      s      p      d    tot
    1  0.012  0.025  0.000  0.037
    2  0.012  0.025  0.000  0.037
tot    0.024  0.051  0.000  0.074
 
band    12 # energy    4.30549286 # occ.  0.00000000
 
ion      s      p      d    tot
    1  0.002  0.002  0.017  0.021
    2  0.002  0.002  0.017  0.021
tot    0.003  0.004  0.034  0.042
 

 k-point     2 :    0.07692308 0.00000000 0.00000000     weight = 0.01183432

band     1 # energy  -16.39551935 # occ.  2.00000000
 
ion      s      p      d    tot
    1  0.268  0.011  0.000  0.279
    2  0.268  0.011  0.000  0.279
tot    0.536  0.023  0.000  0.559
 
band     2 # energy  -10.17648831 # occ.  2.00000000
 
ion      s      p      d    tot
    1  0.289  0.024  0.001  0.314
    2  0.289  0.024  0.001  0.314
tot    0.579  0.047  0.002  0.627
 
band     3 # energy   -3.80465649 # occ.  2.00000000
 
ion      s      p      d    tot
    1  0.020  0.240  0.013  0.274
    2  0.020  0.240  0.013  0.274
tot    0.041  0.480  0.027  0.548
 
band     4 # energy   -3.52543905 # occ.  2.00000000
 
ion      s      p      d    tot
    1  0.007  0.195  0.002  0.203
    2  0.007  0.195  0.002  0.203
tot    0.013  0.391  0.003  0.407
 
band     5 # energy   -3.19174345 # occ.  2.00000000
 
ion      s      p      d    tot
    1  0.000  0.277  0.014  0.291
    2  0.000  0.277  0.014  0.291
tot    0.000  0.555  0.028  0.582
 
band     6 # energy   -0.50869634 # occ.  0.00000000
 
ion      s      p      d    tot
    1  0.107  0.159  0.011  0.277
    2  0.107  0.159  0.011  0.277
tot    0.213  0.318  0.022  0.553
 
band     7 # energy    0.35425177 # occ.  0.00000000
 
ion      s      p      d    tot
    1  0.020  0.238  0.015  0.273
    2  0.020  0.238  0.015  0.273
tot    0.041  0.475  0.029  0.546
 
band     8 # energy    0.65684969 # occ.  0.00000000
 
ion      s      p      d    tot
    1  0.000  0.268  0.017  0.285
    2  0.000  0.268  0.017  0.285
tot    0.000  0.536  0.034  0.570
 
band     9 # energy    2.01580492 # occ.  0.00000000
 
ion      s      p      d    tot
    1  0.001  0.019  0.013  0.032
    2  0.001  0.019  0.013  0.032
tot    0.001  0.038  0.025  0.064
 
band    10 # energy    2.09509814 # occ.  0.00000000
 
ion      s      p      d    tot
    1  0.003  0.019  0.001  0.023
    2  0.003  0.019  0.001  0.023
tot    0.007  0.039  0.001  0.047
 
band    11 # energy    3.46848947 # occ.  0.00000000
 
ion      s      p      d    tot
    1  0.009  0.027  0.001  0.037
    2  0.009  0.027  0.001  0.037
tot    0.018  0.054  0.003  0.074
 
band    12 # energy    4.39901990 # occ.  0.00000000
 
ion      s      p      d    tot
    1  0.001  0.003  0.017  0.021
    2  0.001  0.003  0.017  0.021
tot    0.003  0.005  0.035  0.043
 

 k-point     3 :    0.15384615 0.00000000 0.00000000     weight = 0.01183432

band     1 # energy  -16.16227978 # occ.  2.00000000
 
ion      s      p      d    tot
    1  0.268  0.013  0.000  0.282
    2  0.268  0.013  0.000  0.282
tot    0.537  0.026  0.001  0.563
 
band     2 # energy  -10.17888279 # occ.  2.00000000
 
ion      s      p      d    tot
    1  0.305  0.020  0.001  0.326
    2  0.305  0.020  0.001  0.326
tot    0.611  0.039  0.003  0.652
 
band     3 # energy   -5.02544078 # occ.  2.00000000
 
ion      s      p      d    tot
    1  0.017  0.216  0.011  0.243
    2  0.017  0.216  0.011  0.243
tot    0.033  0.431  0.023  0.487
 
band     4 # energy   -3.59932713 # occ.  2.00000000
 
ion      s      p      d    tot
    1  0.000  0.268  0.013  0.281
    2  0.000  0.268  0.013  0.281
tot    0.000  0.536  0.026  0.562
 
band     5 # energy   -3.43831025 # occ.  2.00000000
 
ion      s      p      d    tot
    1  0.010  0.203  0.002  0.215
    2  0.010  0.203  0.002  0.215
tot    0.020  0.406  0.003  0.429
 
band     6 # energy   -0.67532700 # occ.  0.00000000
 
ion      s      p      d    tot
    1  0.053  0.175  0.015  0.244
    2  0.053  0.175  0.015  0.244
tot    0.107  0.351  0.030  0.487
 
band     7 # energy    0.92356829 # occ.  0.00000000
 
ion      s      p      d    tot
    1  0.067  0.196  0.004  0.267
    2  0.067  0.196  0.004  0.267
tot    0.134  0.392  0.009  0.534
 
band     8 # energy    1.03413050 # occ.  0.00000000
 
ion      s      p      d    tot
    1  0.000  0.283  0.014  0.297
    2  0.000  0.283  0.014  0.297
tot    0.000  0.566  0.028  0.593
 
band     9 # energy    2.28817327 # occ.  0.00000000
 
ion      s      p      d    tot
    1  0.002  0.023  0.010  0.034
    2  0.002  0.023  0.010  0.034
tot    0.003  0.046  0.020  0.069
 
band    10 # energy    2.40600411 # occ.  0.00000000
 
ion      s      p      d    tot
    1  0.002  0.038  0.005  0.045
    2  0.002  0.038  0.005  0.045
tot    0.004  0.076  0.010  0.090
 
band    11 # energy    3.68366035 # occ.  0.00000000
 
ion      s      p      d    tot
    1  0.005  0.030  0.007  0.042
    2  0.005  0.030  0.007  0.042
tot    0.011  0.059  0.013  0.083
 
band    12 # energy    4.64478737 # occ.  0.00000000
 
ion      s      p      d    tot
    1  0.003  0.004  0.018  0.025
    2  0.003  0.004  0.018  0.025
tot    0.005  0.009  0.036  0.050
 

 k-point     4 :    0.23076923-0.00000000 0.00000000     weight = 0.01183432

band     1 # energy  -15.78118138 # occ.  2.00000000
 
ion      s      p      d    tot
    1  0.270  0.016  0.001  0.286
    2  0.270  0.016  0.001  0.286
tot    0.539  0.031  0.001  0.571
 
band     2 # energy  -10.30793212 # occ.  2.00000000
 
ion      s      p      d    tot
    1  0.324  0.016  0.002  0.343
    2  0.324  0.016  0.002  0.343
tot    0.649  0.032  0.004  0.685
 
band     3 # energy   -6.02814316 # occ.  2.00000000
 
ion      s      p      d    tot
    1  0.004  0.203  0.008  0.215
    2  0.004  0.203  0.008  0.215
tot    0.007  0.406  0.016  0.430
 
band     4 # energy   -4.05176021 # occ.  2.00000000
 
ion      s      p      d    tot
    1  0.000  0.260  0.012  0.272
    2  0.000  0.260  0.012  0.272
tot    0.000  0.520  0.023  0.544
 
band     5 # energy   -3.40943334 # occ.  2.00000000
 
ion      s      p      d    tot
    1  0.020  0.214  0.001  0.235
    2  0.020  0.214  0.001  0.235
tot    0.039  0.427  0.002  0.469
 
band     6 # energy   -1.19910014 # occ.  0.00000000
 
ion      s      p      d    tot
    1  0.049  0.152  0.016  0.217
    2  0.049  0.152  0.016  0.217
tot    0.097  0.305  0.031  0.433
 
band     7 # energy    1.30939564 # occ.  0.00000000
 
ion      s      p      d    tot
    1  0.048  0.174  0.012  0.234
    2  0.048  0.174  0.012  0.234
tot    0.095  0.348  0.024  0.468
 
band     8 # energy    1.34508804 # occ.  0.00000000
 
ion      s      p      d    tot
    1  0.000  0.288  0.012  0.300
    2  0.000  0.288  0.012  0.300
tot    0.000  0.577  0.024  0.600
 
band     9 # energy    2.59662630 # occ.  0.00000000
 
ion      s      p      d    tot
    1  0.002  0.011  0.014  0.026
    2  0.002  0.011  0.014  0.026
tot    0.003  0.023  0.027  0.053
 
band    10 # energy    2.86079197 # occ.  0.00000000
 
ion      s      p      d    tot
    1  0.001  0.040  0.002  0.044
    2  0.001  0.040  0.002  0.044
tot    0.002  0.080  0.005  0.087
 
band    11 # energy    4.03253168 # occ.  0.00000000
 
ion      s      p      d    tot
    1  0.005  0.048  0.011  0.064
    2  0.005  0.048  0.011  0.064
tot    0.009  0.097  0.022  0.129
 
band    12 # energy    4.89669954 # occ.  0.00000000
 
ion      s      p      d    tot
    1  0.012  0.011  0.025  0.048
    2  0.012  0.011  0.025  0.048
tot    0.024  0.022  0.050  0.096
 

 k-point     5 :    0.30769231 0.00000000 0.00000000     weight = 0.01183432

band     1 # energy  -15.26908617 # occ.  2.00000000
 
ion      s      p      d    tot
    1  0.272  0.018  0.001  0.292
    2  0.272  0.018  0.001  0.292
tot    0.545  0.037  0.002  0.584
 
band     2 # energy  -10.71895490 # occ.  2.00000000
 
ion      s      p      d    tot
    1  0.324  0.020  0.003  0.348
    2  0.324  0.020  0.003  0.348
tot    0.649  0.041  0.007  0.696
 
band     3 # energy   -6.55830519 # occ.  2.00000000
 
ion      s      p      d    tot
    1  0.009  0.189  0.005  0.203
    2  0.009  0.189  0.005  0.203
tot    0.017  0.378  0.010  0.405
 
band     4 # energy   -4.44268151 # occ.  2.00000000
 
ion      s      p      d    tot
    1  0.000  0.255  0.010  0.265
    2  0.000  0.255  0.010  0.265
tot    0.000  0.510  0.020  0.530
 
band     5 # energy   -3.63132227 # occ.  2.00000000
 
ion      s      p      d    tot
    1  0.036  0.214  0.001  0.251
    2  0.036  0.214  0.001  0.251
tot    0.071  0.429  0.002  0.501
 
band     6 # energy   -1.41798012 # occ.  0.00000000
 
ion      s      p      d    tot
    1  0.038  0.141  0.018  0.197
    2  0.038  0.141  0.018  0.197
tot    0.076  0.283  0.035  0.395
 
band     7 # energy    0.98772581 # occ.  0.00000000
 
ion      s      p      d    tot
    1  0.024  0.147  0.027  0.198
    2  0.024  0.147  0.027  0.198
tot    0.048  0.294  0.053  0.395
 
band     8 # energy    1.48441627 # occ.  0.00000000
 
ion      s      p      d    tot
    1  0.000  0.281  0.012  0.294
    2  0.000  0.281  0.012  0.294
tot    0.000  0.563  0.025  0.588
 
band     9 # energy    3.12989415 # occ.  0.00000000
 
ion      s      p      d    tot
    1  0.007  0.007  0.011  0.025
    2  0.007  0.007  0.011  0.025
tot    0.013  0.015  0.022  0.050
 
band    10 # energy    3.34481677 # occ.  0.00000000
 
ion      s      p      d    tot
    1  0.002  0.043  0.006  0.051
    2  0.002  0.043  0.006  0.051
tot    0.004  0.086  0.013  0.102
 
band    11 # energy    4.29004676 # occ.  0.00000000
 
ion      s      p      d    tot
    1  0.002  0.043  0.025  0.070
    2  0.002  0.043  0.025  0.070
tot    0.005  0.085  0.051  0.141
 
band    12 # energy    5.36899667 # occ.  0.00000000
 
ion      s      p      d    tot
    1  0.007  0.029  0.026  0.062
    2  0.007  0.029  0.026  0.062
tot    0.015  0.058  0.052  0.124
 

 k-point     6 :    0.38461538 0.00000000 0.00000000     weight = 0.01183432

band     1 # energy  -14.67103667 # occ.  2.00000000
 
ion      s      p      d    tot
    1  0.278  0.021  0.002  0.300
    2  0.278  0.021  0.002  0.300
tot    0.556  0.041  0.003  0.601
 
band     2 # energy  -11.38991018 # occ.  2.00000000
 
ion      s      p      d    tot
    1  0.302  0.030  0.004  0.336
    2  0.302  0.030  0.004  0.336
tot    0.604  0.060  0.007  0.671
 
band     3 # energy   -6.60621886 # occ.  2.00000000
 
ion      s      p      d    tot
    1  0.036  0.174  0.002  0.213
    2  0.036  0.174  0.002  0.213
tot    0.073  0.348  0.005  0.425
 
band     4 # energy   -4.72195070 # occ.  2.00000000
 
ion      s      p      d    tot
    1  0.000  0.252  0.009  0.261
    2  0.000  0.252  0.009  0.261
tot    0.000  0.504  0.018  0.522
 
band     5 # energy   -4.09892929 # occ.  2.00000000
 
ion      s      p      d    tot
    1  0.042  0.203  0.001  0.246
    2  0.042  0.203  0.001  0.246
tot    0.083  0.406  0.002  0.491
 
band     6 # energy   -1.29014760 # occ.  0.00000000
 
ion      s      p      d    tot
    1  0.032  0.143  0.022  0.197
    2  0.032  0.143  0.022  0.197
tot    0.063  0.285  0.044  0.393
 
band     7 # energy    0.49673017 # occ.  0.00000000
 
ion      s      p      d    tot
    1  0.012  0.145  0.027  0.185
    2  0.012  0.145  0.027  0.185
tot    0.024  0.290  0.055  0.369
 
band     8 # energy    1.50483775 # occ.  0.00000000
 
ion      s      p      d    tot
    1  0.000  0.271  0.014  0.286
    2  0.000  0.271  0.014  0.286
tot    0.000  0.543  0.028  0.571
 
band     9 # energy    3.50214671 # occ.  0.00000000
 
ion      s      p      d    tot
    1  0.002  0.045  0.037  0.085
    2  0.002  0.045  0.037  0.085
tot    0.005  0.090  0.075  0.169
 
band    10 # energy    3.90970501 # occ.  0.00000000
 
ion      s      p      d    tot
    1  0.009  0.008  0.010  0.027
    2  0.009  0.008  0.010  0.027
tot    0.017  0.017  0.020  0.054
 
band    11 # energy    4.57598075 # occ.  0.00000000
 
ion      s      p      d    tot
    1  0.000  0.013  0.015  0.028
    2  0.000  0.013  0.015  0.028
tot    0.000  0.025  0.030  0.056
 
band    12 # energy    5.79959118 # occ.  0.00000000
 
ion      s      p      d    tot
    1  0.008  0.025  0.014  0.047
    2  0.008  0.025  0.014  0.047
tot    0.015  0.051  0.029  0.095
 

 k-point     7 :    0.46153846-0.00000000 0.00000000     weight = 0.01183432

band     1 # energy  -14.14539789 # occ.  2.00000000
 
ion      s      p      d    tot
    1  0.288  0.021  0.002  0.311
    2  0.288  0.021  0.002  0.311
tot    0.576  0.041  0.005  0.622
 
band     2 # energy  -12.00855097 # occ.  2.00000000
 
ion      s      p      d    tot
    1  0.279  0.037  0.003  0.319
    2  0.279  0.037  0.003  0.319
tot    0.557  0.075  0.006  0.638
 
band     3 # energy   -6.44694312 # occ.  2.00000000
 
ion      s      p      d    tot
    1  0.063  0.165  0.001  0.229
    2  0.063  0.165  0.001  0.229
tot    0.126  0.330  0.002  0.458
 
band     4 # energy   -4.86628628 # occ.  2.00000000
 
ion      s      p      d    tot
    1  0.000  0.251  0.008  0.259
    2  0.000  0.251  0.008  0.259
tot    0.000  0.502  0.017  0.518
 
band     5 # energy   -4.51139887 # occ.  2.00000000
 
ion      s      p      d    tot
    1  0.035  0.195  0.001  0.232
    2  0.035  0.195  0.001  0.232
tot    0.071  0.390  0.003  0.464
 
band     6 # energy   -1.08546541 # occ.  0.00000000
 
ion      s      p      d    tot
    1  0.034  0.137  0.029  0.200
    2  0.034  0.137  0.029  0.200
tot    0.068  0.275  0.058  0.401
 
band     7 # energy    0.17132608 # occ.  0.00000000
 
ion      s      p      d    tot
    1  0.004  0.162  0.021  0.187
    2  0.004  0.162  0.021  0.187
tot    0.008  0.325  0.042  0.375
 
band     8 # energy    1.49140493 # occ.  0.00000000
 
ion      s      p      d    tot
    1  0.000  0.265  0.015  0.281
    2  0.000  0.265  0.015  0.281
tot    0.000  0.531  0.031  0.561
 
band     9 # energy    3.30111412 # occ.  0.00000000
 
ion      s      p      d    tot
    1  0.000  0.020  0.053  0.073
    2  0.000  0.020  0.053  0.073
tot    0.001  0.041  0.106  0.147
 
band    10 # energy    4.85537700 # occ.  0.00000000
 
ion      s      p      d    tot
    1  0.011  0.008  0.010  0.030
    2  0.011  0.008  0.010  0.030
tot    0.022  0.017  0.020  0.059
 
band    11 # energy    5.30085057 # occ.  0.00000000
 
ion      s      p      d    tot
    1  0.004  0.019  0.006  0.028
    2  0.004  0.019  0.006  0.028
tot    0.007  0.037  0.012  0.057
 
band    12 # energy    5.90792551 # occ.  0.00000000
 
ion      s      p      d    tot
    1  0.014  0.007  0.012  0.033
    2  0.014  0.007  0.012  0.033
tot    0.027  0.015  0.025  0.067
 

 k-point     8 :    0.07692308 0.07692308 0.00000000     weight = 0.01183432

band     1 # energy  -16.23966230 # occ.  2.00000000
 
ion      s      p      d    tot
    1  0.268  0.012  0.000  0.281
    2  0.268  0.012  0.000  0.281
tot    0.536  0.025  0.001  0.562
 
band     2 # energy  -10.17178000 # occ.  2.00000000
 
ion      s      p      d    tot
    1  0.300  0.021  0.001  0.322
    2  0.300  0.021  0.001  0.322
tot    0.600  0.042  0.002  0.644
 
band     3 # energy   -4.66161455 # occ.  2.00000000
 
ion      s      p      d    tot
    1  0.020  0.221  0.012  0.253
    2  0.020  0.221  0.012  0.253
tot    0.040  0.442  0.024  0.507
 
band     4 # energy   -3.58930715 # occ.  2.00000000
 
ion      s      p      d    tot
    1  0.003  0.261  0.013  0.277
    2  0.003  0.261  0.013  0.277
tot    0.006  0.521  0.026  0.553
 
band     5 # energy   -3.45577747 # occ.  2.00000000
 
ion      s      p      d    tot
    1  0.007  0.203  0.002  0.212
    2  0.007  0.203  0.002  0.212
tot    0.014  0.406  0.004  0.424
 
band     6 # energy   -0.00765118 # occ.  0.00000000
 
ion      s      p      d    tot
    1  0.078  0.186  0.012  0.275
    2  0.078  0.186  0.012  0.275
tot    0.156  0.371  0.024  0.551
 
band     7 # energy    0.03217216 # occ.  0.00000000
 
ion      s      p      d    tot
    1  0.023  0.223  0.014  0.259
    2  0.023  0.223  0.014  0.259
tot    0.045  0.446  0.028  0.519
 
band     8 # energy    1.14369151 # occ.  0.00000000
 
ion      s      p      d    tot
    1  0.021  0.255  0.009  0.285
    2  0.021  0.255  0.009  0.285
tot    0.042  0.510  0.019  0.570
 
band     9 # energy    2.24234678 # occ.  0.00000000
 
ion      s      p      d    tot
    1  0.002  0.038  0.013  0.052
    2  0.002  0.038  0.013  0.052
tot    0.003  0.075  0.026  0.104
 
band    10 # energy    2.27099185 # occ.  0.00000000
 
ion      s      p      d    tot
    1  0.002  0.020  0.002  0.024
    2  0.002  0.020  0.002  0.024
tot    0.004  0.041  0.003  0.048
 
band    11 # energy    3.60873902 # occ.  0.00000000
 
ion      s      p      d    tot
    1  0.006  0.027  0.005  0.038
    2  0.006  0.027  0.005  0.038
tot    0.012  0.054  0.011  0.076
 
band    12 # energy    4.57865653 # occ.  0.00000000
 
ion      s      p      d    tot
    1  0.002  0.004  0.017  0.022
    2  0.002  0.004  0.017  0.022
tot    0.003  0.008  0.034  0.045
 

 k-point     9 :    0.15384615 0.07692308 0.00000000     weight = 0.02366864

band     1 # energy  -15.93209459 # occ.  2.00000000
 
ion      s      p      d    tot
    1  0.269  0.015  0.001  0.284
    2  0.269  0.015  0.001  0.284
tot    0.538  0.029  0.001  0.568
 
band     2 # energy  -10.23348141 # occ.  2.00000000
 
ion      s      p      d    tot
    1  0.319  0.017  0.002  0.337
    2  0.319  0.017  0.002  0.337
tot    0.637  0.033  0.004  0.675
 
band     3 # energy   -5.62986214 # occ.  2.00000000
 
ion      s      p      d    tot
    1  0.008  0.209  0.010  0.227
    2  0.008  0.209  0.010  0.227
tot    0.016  0.418  0.019  0.453
 
band     4 # energy   -4.16880748 # occ.  2.00000000
 
ion      s      p      d    tot
    1  0.005  0.246  0.012  0.263
    2  0.005  0.246  0.012  0.263
tot    0.010  0.493  0.024  0.526
 
band     5 # energy   -3.38331713 # occ.  2.00000000
 
ion      s      p      d    tot
    1  0.013  0.211  0.002  0.225
    2  0.013  0.211  0.002  0.225
tot    0.025  0.422  0.003  0.450
 
band     6 # energy   -0.53596377 # occ.  0.00000000
 
ion      s      p      d    tot
    1  0.042  0.186  0.014  0.242
    2  0.042  0.186  0.014  0.242
tot    0.083  0.373  0.027  0.483
 
band     7 # energy    0.64055155 # occ.  0.00000000
 
ion      s      p      d    tot
    1  0.038  0.225  0.012  0.274
    2  0.038  0.225  0.012  0.274
tot    0.076  0.449  0.023  0.549
 
band     8 # energy    1.56087472 # occ.  0.00000000
 
ion      s      p      d    tot
    1  0.029  0.230  0.007  0.266
    2  0.029  0.230  0.007  0.266
tot    0.059  0.461  0.013  0.533
 
band     9 # energy    2.52995954 # occ.  0.00000000
 
ion      s      p      d    tot
    1  0.001  0.026  0.012  0.039
    2  0.001  0.026  0.012  0.039
tot    0.001  0.052  0.023  0.077
 
band    10 # energy    2.65996151 # occ.  0.00000000
 
ion      s      p      d    tot
    1  0.002  0.042  0.005  0.048
    2  0.002  0.042  0.005  0.048
tot    0.003  0.083  0.010  0.097
 
band    11 # energy    3.83454627 # occ.  0.00000000
 
ion      s      p      d    tot
    1  0.004  0.030  0.017  0.050
    2  0.004  0.030  0.017  0.050
tot    0.007  0.059  0.034  0.100
 
band    12 # energy    4.84476413 # occ.  0.00000000
 
ion      s      p      d    tot
    1  0.005  0.007  0.026  0.037
    2  0.005  0.007  0.026  0.037
tot    0.010  0.013  0.051  0.075
 

 k-point    10 :    0.23076923 0.07692308 0.00000000     weight = 0.02366864

band     1 # energy  -15.48360273 # occ.  2.00000000
 
ion      s      p      d    tot
    1  0.271  0.017  0.001  0.289
    2  0.271  0.017  0.001  0.289
tot    0.542  0.035  0.002  0.578
 
band     2 # energy  -10.50307129 # occ.  2.00000000
 
ion      s      p      d    tot
    1  0.330  0.017  0.003  0.349
    2  0.330  0.017  0.003  0.349
tot    0.659  0.034  0.006  0.699
 
band     3 # energy   -6.32705386 # occ.  2.00000000
 
ion      s      p      d    tot
    1  0.002  0.197  0.006  0.206
    2  0.002  0.197  0.006  0.206
tot    0.004  0.395  0.013  0.412
 
band     4 # energy   -4.68219596 # occ.  2.00000000
 
ion      s      p      d    tot
    1  0.007  0.236  0.011  0.253
    2  0.007  0.236  0.011  0.253
tot    0.013  0.472  0.021  0.506
 
band     5 # energy   -3.44022893 # occ.  2.00000000
 
ion      s      p      d    tot
    1  0.023  0.221  0.001  0.245
    2  0.023  0.221  0.001  0.245
tot    0.046  0.442  0.002  0.491
 
band     6 # energy   -0.94829156 # occ.  0.00000000
 
ion      s      p      d    tot
    1  0.039  0.163  0.015  0.217
    2  0.039  0.163  0.015  0.217
tot    0.077  0.326  0.030  0.433
 
band     7 # energy    1.04648590 # occ.  0.00000000
 
ion      s      p      d    tot
    1  0.022  0.231  0.013  0.266
    2  0.022  0.231  0.013  0.266
tot    0.044  0.463  0.026  0.532
 
band     8 # energy    1.41029427 # occ.  0.00000000
 
ion      s      p      d    tot
    1  0.021  0.201  0.019  0.241
    2  0.021  0.201  0.019  0.241
tot    0.041  0.402  0.038  0.481
 
band     9 # energy    2.91017677 # occ.  0.00000000
 
ion      s      p      d    tot
    1  0.003  0.010  0.013  0.026
    2  0.003  0.010  0.013  0.026
tot    0.007  0.020  0.026  0.053
 
band    10 # energy    3.16329997 # occ.  0.00000000
 
ion      s      p      d    tot
    1  0.001  0.041  0.003  0.045
    2  0.001  0.041  0.003  0.045
tot    0.002  0.082  0.007  0.090
 
band    11 # energy    4.18701245 # occ.  0.00000000
 
ion      s      p      d    tot
    1  0.003  0.050  0.024  0.077
    2  0.003  0.050  0.024  0.077
tot    0.006  0.101  0.048  0.155
 
band    12 # energy    5.14934696 # occ.  0.00000000
 
ion      s      p      d    tot
    1  0.009  0.026  0.029  0.064
    2  0.009  0.026  0.029  0.064
tot    0.017  0.051  0.059  0.127
 

 k-point    11 :    0.30769231 0.07692308 0.00000000     weight = 0.02366864

band     1 # energy  -14.92041298 # occ.  2.00000000
 
ion      s      p      d    tot
    1  0.275  0.020  0.001  0.296
    2  0.275  0.020  0.001  0.296
tot    0.550  0.040  0.003  0.593
 
band     2 # energy  -11.06546838 # occ.  2.00000000
 
ion      s      p      d    tot
    1  0.316  0.025  0.004  0.345
    2  0.316  0.025  0.004  0.345
tot    0.633  0.049  0.007  0.689
 
band     3 # energy   -6.58010814 # occ.  2.00000000
 
ion      s      p      d    tot
    1  0.021  0.182  0.004  0.207
    2  0.021  0.182  0.004  0.207
tot    0.042  0.364  0.007  0.413
 
band     4 # energy   -5.03728386 # occ.  2.00000000
 
ion      s      p      d    tot
    1  0.006  0.231  0.009  0.246
    2  0.006  0.231  0.009  0.246
tot    0.012  0.461  0.019  0.492
 
band     5 # energy   -3.77347650 # occ.  2.00000000
 
ion      s      p      d    tot
    1  0.034  0.218  0.001  0.253
    2  0.034  0.218  0.001  0.253
tot    0.068  0.436  0.002  0.506
 
band     6 # energy   -1.00451347 # occ.  0.00000000
 
ion      s      p      d    tot
    1  0.030  0.156  0.017  0.204
    2  0.030  0.156  0.017  0.204
tot    0.061  0.313  0.035  0.409
 
band     7 # energy    0.86374683 # occ.  0.00000000
 
ion      s      p      d    tot
    1  0.015  0.166  0.027  0.208
    2  0.015  0.166  0.027  0.208
tot    0.030  0.332  0.054  0.417
 
band     8 # energy    1.21436664 # occ.  0.00000000
 
ion      s      p      d    tot
    1  0.010  0.234  0.015  0.259
    2  0.010  0.234  0.015  0.259
tot    0.020  0.468  0.030  0.518
 
band     9 # energy    3.56543457 # occ.  0.00000000
 
ion      s      p      d    tot
    1  0.006  0.016  0.017  0.039
    2  0.006  0.016  0.017  0.039
tot    0.012  0.033  0.033  0.078
 
band    10 # energy    3.63010784 # occ.  0.00000000
 
ion      s      p      d    tot
    1  0.002  0.052  0.013  0.066
    2  0.002  0.052  0.013  0.066
tot    0.004  0.103  0.025  0.133
 
band    11 # energy    4.42458867 # occ.  0.00000000
 
ion      s      p      d    tot
    1  0.000  0.027  0.027  0.054
    2  0.000  0.027  0.027  0.054
tot    0.001  0.053  0.055  0.109
 
band    12 # energy    5.62722970 # occ.  0.00000000
 
ion      s      p      d    tot
    1  0.003  0.031  0.019  0.054
    2  0.003  0.031  0.019  0.054
tot    0.006  0.062  0.039  0.107
 

 k-point    12 :    0.38461538 0.07692308 0.00000000     weight = 0.02366864

band     1 # energy  -14.32196531 # occ.  2.00000000
 
ion      s      p      d    tot
    1  0.283  0.021  0.002  0.306
    2  0.283  0.021  0.002  0.306
tot    0.566  0.043  0.004  0.613
 
band     2 # energy  -11.75865580 # occ.  2.00000000
 
ion      s      p      d    tot
    1  0.292  0.033  0.003  0.329
    2  0.292  0.033  0.003  0.329
tot    0.584  0.066  0.007  0.657
 
band     3 # energy   -6.52394993 # occ.  2.00000000
 
ion      s      p      d    tot
    1  0.050  0.170  0.002  0.222
    2  0.050  0.170  0.002  0.222
tot    0.099  0.341  0.004  0.444
 
band     4 # energy   -5.17800963 # occ.  2.00000000
 
ion      s      p      d    tot
    1  0.003  0.230  0.008  0.242
    2  0.003  0.230  0.008  0.242
tot    0.007  0.461  0.017  0.484
 
band     5 # energy   -4.27265666 # occ.  2.00000000
 
ion      s      p      d    tot
    1  0.036  0.206  0.002  0.243
    2  0.036  0.206  0.002  0.243
tot    0.071  0.411  0.003  0.486
 
band     6 # energy   -0.77523836 # occ.  0.00000000
 
ion      s      p      d    tot
    1  0.028  0.158  0.022  0.209
    2  0.028  0.158  0.022  0.209
tot    0.057  0.317  0.044  0.418
 
band     7 # energy    0.33184528 # occ.  0.00000000
 
ion      s      p      d    tot
    1  0.009  0.166  0.025  0.200
    2  0.009  0.166  0.025  0.200
tot    0.017  0.333  0.049  0.399
 
band     8 # energy    1.29034395 # occ.  0.00000000
 
ion      s      p      d    tot
    1  0.007  0.232  0.016  0.255
    2  0.007  0.232  0.016  0.255
tot    0.014  0.464  0.032  0.509
 
band     9 # energy    3.52032690 # occ.  0.00000000
 
ion      s      p      d    tot
    1  0.000  0.037  0.050  0.087
    2  0.000  0.037  0.050  0.087
tot    0.001  0.073  0.099  0.173
 
band    10 # energy    4.44909362 # occ.  0.00000000
 
ion      s      p      d    tot
    1  0.008  0.010  0.009  0.027
    2  0.008  0.010  0.009  0.027
tot    0.016  0.020  0.018  0.055
 
band    11 # energy    4.98601240 # occ.  0.00000000
 
ion      s      p      d    tot
    1  0.000  0.015  0.009  0.025
    2  0.000  0.015  0.009  0.025
tot    0.001  0.031  0.017  0.049
 
band    12 # energy    6.10825314 # occ.  0.00000000
 
ion      s      p      d    tot
    1  0.009  0.031  0.012  0.052
    2  0.009  0.031  0.012  0.052
tot    0.017  0.062  0.024  0.103
 

 k-point    13 :    0.46153846 0.07692308 0.00000000     weight = 0.01183432

band     1 # energy  -13.99002591 # occ.  2.00000000
 
ion      s      p      d    tot
    1  0.291  0.021  0.003  0.314
    2  0.291  0.021  0.003  0.314
tot    0.582  0.041  0.005  0.628
 
band     2 # energy  -12.13998028 # occ.  2.00000000
 
ion      s      p      d    tot
    1  0.277  0.037  0.003  0.318
    2  0.277  0.037  0.003  0.318
tot    0.555  0.075  0.006  0.636
 
band     3 # energy   -6.45427300 # occ.  2.00000000
 
ion      s      p      d    tot
    1  0.063  0.167  0.002  0.231
    2  0.063  0.167  0.002  0.231
tot    0.125  0.334  0.003  0.462
 
band     4 # energy   -5.14611499 # occ.  2.00000000
 
ion      s      p      d    tot
    1  0.002  0.235  0.008  0.245
    2  0.002  0.235  0.008  0.245
tot    0.003  0.470  0.016  0.490
 
band     5 # energy   -4.57139006 # occ.  2.00000000
 
ion      s      p      d    tot
    1  0.034  0.195  0.002  0.231
    2  0.034  0.195  0.002  0.231
tot    0.068  0.390  0.003  0.462
 
band     6 # energy   -0.56716741 # occ.  0.00000000
 
ion      s      p      d    tot
    1  0.034  0.155  0.028  0.218
    2  0.034  0.155  0.028  0.218
tot    0.068  0.310  0.056  0.435
 
band     7 # energy    0.04435907 # occ.  0.00000000
 
ion      s      p      d    tot
    1  0.001  0.173  0.019  0.194
    2  0.001  0.173  0.019  0.194
tot    0.002  0.347  0.038  0.387
 