<?xml version="1.0" encoding="ISO-8859-1"?>
<modeling>
 <generator>
  <i name="program" type="string">vasp </i>
  <i name="version" type="string">6.4.2  </i>
  <i name="subversion" type="string">20Jul23 (build Nov 14 2023 12:59:38) complex                          parallel </i>
  <i name="platform" type="string">LinuxIFC </i>
  <i name="date" type="string">2023 12 16 </i>
  <i name="time" type="string">19:20:24 </i>
 </generator>
 <incar>
  <i type="string" name="PREC">Accurate</i>
  <i type="string" name="ALGO">Normal</i>
  <i type="logical" name="ADDGRID"> T  </i>
  <i type="int" name="ISPIN">     1</i>
  <i name="AMIX">      0.10000000</i>
  <i name="BMIX">      0.00010000</i>
  <i type="int" name="NELM">   200</i>
  <i type="int" name="NELMDL">   -12</i>
  <i type="int" name="NELMIN">     6</i>
  <i type="int" name="IBRION">     2</i>
  <i name="EDIFF">      0.00000100</i>
  <i name="EDIFFG">     -0.01000000</i>
  <i type="int" name="NSW">    30</i>
  <i type="int" name="ISIF">     3</i>
  <i name="ENCUT">    417.40400000</i>
  <i name="POTIM">      0.50000000</i>
  <i type="int" name="NEDOS">  6001</i>
  <i type="logical" name="LPLANE"> T  </i>
  <i type="int" name="ISMEAR">     0</i>
  <i name="SIGMA">      0.01000000</i>
  <i type="int" name="NWRITE">     1</i>
  <i type="logical" name="LWAVE"> F  </i>
  <i type="logical" name="LCHARG"> F  </i>
  <i type="int" name="LORBIT">    10</i>
  <i type="logical" name="LASPH"> T  </i>
  <i type="int" name="IVDW">     0</i>
 </incar>
 <primitive_cell>
  <structure name="primitive_cell" >
   <crystal>
    <varray name="basis" >
     <v>       3.60689254       0.00000000       0.00000000 </v>
     <v>      -1.80344627       3.12366057       0.00000000 </v>
     <v>       0.00000000       0.00000000      16.00000000 </v>
    </varray>
    <i name="volume">    180.26732792 </i>
    <varray name="rec_basis" >
     <v>       0.27724696       0.16006861       0.00000000 </v>
     <v>       0.00000000       0.32013722       0.00000000 </v>
     <v>       0.00000000       0.00000000       0.06250000 </v>
    </varray>
   </crystal>
   <varray name="positions" >
    <v>       0.66666667       0.33333333       0.45634314 </v>
    <v>       0.33333333       0.66666667       0.54365686 </v>
   </varray>
  </structure>
  <varray name="primitive_index" >
   <v type="int" >        1 </v>
   <v type="int" >        2 </v>
  </varray>
 </primitive_cell>
 <kpoints>
  <generation param="Auto">
   <i name="subdivisionlength">     40.00000000 </i>
   <v type="int" name="divisions">      13       13        3 </v>
   <v name="usershift">      0.00000000       0.00000000       0.00000000 </v>
   <v name="genvec1">      0.07692308       0.00000000       0.00000000 </v>
   <v name="genvec2">      0.00000000       0.07692308       0.00000000 </v>
   <v name="genvec3">      0.00000000       0.00000000       0.33333333 </v>
   <v name="shift">      0.00000000       0.00000000       0.00000000 </v>
  </generation>
  <varray name="kpointlist" >
   <v>       0.00000000       0.00000000       0.00000000 </v>
   <v>       0.07692308       0.00000000       0.00000000 </v>
   <v>       0.15384615       0.00000000       0.00000000 </v>
   <v>       0.23076923      -0.00000000       0.00000000 </v>
   <v>       0.30769231       0.00000000       0.00000000 </v>
   <v>       0.38461538       0.00000000       0.00000000 </v>
   <v>       0.46153846      -0.00000000       0.00000000 </v>
   <v>       0.07692308       0.07692308       0.00000000 </v>
   <v>       0.15384615       0.07692308       0.00000000 </v>
   <v>       0.23076923       0.07692308       0.00000000 </v>
   <v>       0.30769231       0.07692308       0.00000000 </v>
   <v>       0.38461538       0.07692308       0.00000000 </v>
   <v>       0.46153846       0.07692308       0.00000000 </v>
   <v>       0.15384615       0.15384615       0.00000000 </v>
   <v>       0.23076923       0.15384615       0.00000000 </v>
   <v>       0.30769231       0.15384615       0.00000000 </v>
   <v>       0.38461538       0.15384615       0.00000000 </v>
   <v>       0.23076923       0.23076923       0.00000000 </v>
   <v>       0.30769231       0.23076923       0.00000000 </v>
   <v>       0.38461538       0.23076923       0.00000000 </v>
   <v>       0.30769231       0.30769231       0.00000000 </v>
   <v>       0.00000000       0.00000000       0.33333333 </v>
   <v>       0.07692308       0.00000000       0.33333333 </v>
   <v>       0.00000000       0.07692308       0.33333333 </v>
   <v>       0.15384615       0.00000000       0.33333333 </v>
   <v>       0.00000000       0.15384615       0.33333333 </v>
   <v>       0.23076923      -0.00000000       0.33333333 </v>
   <v>       0.00000000       0.23076923       0.33333333 </v>
   <v>       0.30769231       0.00000000       0.33333333 </v>
   <v>       0.00000000       0.30769231       0.33333333 </v>
   <v>       0.38461538       0.00000000       0.33333333 </v>
   <v>       0.00000000       0.38461538       0.33333333 </v>
   <v>       0.46153846      -0.00000000       0.33333333 </v>
   <v>       0.00000000       0.46153846       0.33333333 </v>
   <v>       0.07692308       0.07692308       0.33333333 </v>
   <v>       0.15384615       0.07692308       0.33333333 </v>
   <v>      -0.07692308       0.23076923       0.33333333 </v>
   <v>       0.23076923       0.07692308       0.33333333 </v>
   <v>      -0.07692308       0.30769231       0.33333333 </v>
   <v>       0.30769231       0.07692308       0.33333333 </v>
   <v>      -0.07692308       0.38461538       0.33333333 </v>
   <v>       0.38461538       0.07692308       0.33333333 </v>
   <v>      -0.07692308       0.46153846       0.33333333 </v>
   <v>       0.46153846       0.07692308       0.33333333 </v>
   <v>       0.15384615       0.15384615       0.33333333 </v>
   <v>       0.23076923       0.15384615       0.33333333 </v>
   <v>      -0.15384615       0.38461538       0.33333333 </v>
   <v>       0.30769231       0.15384615       0.33333333 </v>
   <v>      -0.15384615       0.46153846       0.33333333 </v>
   <v>       0.38461538       0.15384615       0.33333333 </v>
   <v>      -0.15384615      -0.46153846       0.33333333 </v>
   <v>       0.23076923       0.23076923       0.33333333 </v>
   <v>       0.30769231       0.23076923       0.33333333 </v>
   <v>      -0.23076923      -0.46153846       0.33333333 </v>
   <v>       0.38461538       0.23076923       0.33333333 </v>
   <v>       0.30769231       0.30769231       0.33333333 </v>
  </varray>
  <varray name="weights" >
   <v>       0.00197239 </v>
   <v>       0.01183432 </v>
   <v>       0.01183432 </v>
   <v>       0.01183432 </v>
   <v>       0.01183432 </v>
   <v>       0.01183432 </v>
   <v>       0.01183432 </v>
   <v>       0.01183432 </v>
   <v>       0.02366864 </v>
   <v>       0.02366864 </v>
   <v>       0.02366864 </v>
   <v>       0.02366864 </v>
   <v>       0.01183432 </v>
   <v>       0.01183432 </v>
   <v>       0.02366864 </v>
   <v>       0.02366864 </v>
   <v>       0.02366864 </v>
   <v>       0.01183432 </v>
   <v>       0.02366864 </v>
   <v>       0.01183432 </v>
   <v>       0.01183432 </v>
   <v>       0.00394477 </v>
   <v>       0.01183432 </v>
   <v>       0.01183432 </v>
   <v>       0.01183432 </v>
   <v>       0.01183432 </v>
   <v>       0.01183432 </v>
   <v>       0.01183432 </v>
   <v>       0.01183432 </v>
   <v>       0.01183432 </v>
   <v>       0.01183432 </v>
   <v>       0.01183432 </v>
   <v>       0.01183432 </v>
   <v>       0.01183432 </v>
   <v>       0.02366864 </v>
   <v>       0.02366864 </v>
   <v>       0.02366864 </v>
   <v>       0.02366864 </v>
   <v>       0.02366864 </v>
   <v>       0.02366864 </v>
   <v>       0.02366864 </v>
   <v>       0.02366864 </v>
   <v>       0.02366864 </v>
   <v>       0.02366864 </v>
   <v>       0.02366864 </v>
   <v>       0.02366864 </v>
   <v>       0.02366864 </v>
   <v>       0.02366864 </v>
   <v>       0.02366864 </v>
   <v>       0.02366864 </v>
   <v>       0.02366864 </v>
   <v>       0.02366864 </v>
   <v>       0.02366864 </v>
   <v>       0.02366864 </v>
   <v>       0.02366864 </v>
   <v>       0.02366864 </v>
  </varray>
 </kpoints>
 <parameters>
  <separator name="general" >
   <i type="string" name="SYSTEM">unknown system</i>
   <i type="logical" name="LCOMPAT"> F  </i>
  </separator>
  <separator name="electronic" >
   <i type="string" name="PREC">accura</i>
   <i name="ENMAX">    417.40400000</i>
   <i name="ENAUG">    462.75800000</i>
   <i name="EDIFF">      0.00000100</i>
   <i type="int" name="IALGO">    38</i>
   <i type="int" name="IWAVPR">    11</i>
   <i type="int" name="NBANDS">    12</i>
   <i type="int" name="NBANDSLOW">    -1</i>
   <i type="int" name="NBANDSHIGH">    -1</i>
   <i name="NELECT">     10.00000000</i>
   <i type="int" name="TURBO">     0</i>
   <i type="int" name="IRESTART">     0</i>
   <i type="int" name="NREBOOT">     0</i>
   <i type="int" name="NMIN">     0</i>
   <i name="EREF">      0.00000000</i>
   <separator name="electronic smearing" >
    <i type="int" name="ISMEAR">     0</i>
    <i name="SIGMA">      0.01000000</i>
    <i name="KSPACING">      0.50000000</i>
    <i type="logical" name="KGAMMA"> T  </i>
    <i type="logical" name="KBLOWUP"> T  </i>
   </separator>
   <separator name="electronic projectors" >
    <i type="logical" name="LREAL"> F  </i>
    <v name="ROPT">      0.00000000</v>
    <i type="int" name="LMAXPAW">  -100</i>
    <i type="int" name="LMAXMIX">     2</i>
    <i type="logical" name="NLSPLINE"> F  </i>
   </separator>
   <separator name="electronic startup" >
    <i type="int" name="ISTART">     0</i>
    <i type="int" name="ICHARG">     2</i>
    <i type="int" name="INIWAV">     1</i>
   </separator>
   <separator name="electronic spin" >
    <i type="int" name="ISPIN">     1</i>
    <i type="logical" name="LNONCOLLINEAR"> F  </i>
    <v name="MAGMOM">      1.00000000      1.00000000</v>
    <i name="NUPDOWN">     -1.00000000</i>
    <i type="logical" name="LSORBIT"> F  </i>
    <v name="SAXIS">      0.00000000      0.00000000      1.00000000</v>
    <i type="logical" name="LSPIRAL"> F  </i>
    <v name="QSPIRAL">      0.00000000      0.00000000      0.00000000</v>
    <i type="logical" name="LZEROZ"> F  </i>
   </separator>
   <separator name="electronic exchange-correlation" >
    <i type="logical" name="LASPH"> T  </i>
    <i type="logical" name="LMETAGGA"> F  </i>
   </separator>
   <separator name="electronic convergence" >
    <i type="int" name="NELM">   200</i>
    <i type="int" name="NELMDL">   -12</i>
    <i type="int" name="NELMIN">     6</i>
    <i name="ENINI">    417.40400000</i>
    <separator name="electronic convergence detail" >
     <i type="logical" name="LDIAG"> T  </i>
     <i type="logical" name="LSUBROT"> F  </i>
     <i name="WEIMIN">      0.00100000</i>
     <i name="EBREAK">      0.00000002</i>
     <i name="DEPER">      0.30000000</i>
     <i type="int" name="NRMM">     4</i>
     <i name="TIME">      0.40000000</i>
    </separator>
   </separator>
   <separator name="electronic mixer" >
    <i name="AMIX">      0.10000000</i>
    <i name="BMIX">      0.00010000</i>
    <i name="AMIN">      0.10000000</i>
    <i name="AMIX_MAG">      0.40000000</i>
    <i name="BMIX_MAG">      0.00010000</i>
    <separator name="electronic mixer details" >
     <i type="int" name="IMIX">     4</i>
     <i type="logical" name="MIXFIRST"> F  </i>
     <i type="int" name="MAXMIX">   -45</i>
     <i name="WC">    100.00000000</i>
     <i type="int" name="INIMIX">     1</i>
     <i type="int" name="MIXPRE">     1</i>
     <i type="int" name="MREMOVE">     5</i>
    </separator>
   </separator>
   <separator name="electronic dipolcorrection" >
    <i type="logical" name="LDIPOL"> F  </i>
    <i type="logical" name="LMONO"> F  </i>
    <i type="int" name="IDIPOL">     0</i>
    <i name="EPSILON">      1.00000000</i>
    <v name="DIPOL">   -100.00000000   -100.00000000   -100.00000000</v>
    <i name="EFIELD">      0.00000000</i>
   </separator>
  </separator>
  <separator name="grids" >
   <i type="int" name="NGX">    24</i>
   <i type="int" name="NGY">    24</i>
   <i type="int" name="NGZ">   108</i>
   <i type="int" name="NGXF">    48</i>
   <i type="int" name="NGYF">    48</i>
   <i type="int" name="NGZF">   216</i>
   <i type="logical" name="ADDGRID"> T  </i>
  </separator>
  <separator name="ionic" >
   <i type="int" name="NSW">    30</i>
   <i type="int" name="IBRION">     2</i>
   <i type="int" name="MDALGO">     0</i>
   <i type="int" name="ISIF">     3</i>
   <i name="PSTRESS">      0.00000000</i>
   <i name="EDIFFG">     -0.01000000</i>
   <i type="int" name="NFREE">     1</i>
   <i name="POTIM">      0.50000000</i>
   <i name="SMASS">     -3.00000000</i>
   <i name="SCALEE">      1.00000000</i>
  </separator>
  <separator name="ionic md" >
   <i name="TEBEG">      0.00010000</i>
   <i name="TEEND">      0.00010000</i>
   <i type="int" name="NBLOCK">     1</i>
   <i type="int" name="KBLOCK">    30</i>
   <i type="int" name="NPACO">   256</i>
   <i name="APACO">     10.00000000</i>
  </separator>
  <separator name="symmetry" >
   <i type="int" name="ISYM">     2</i>
   <i name="SYMPREC">      0.00001000</i>
  </separator>
  <separator name="dos" >
   <i type="int" name="LORBIT">    10</i>
   <v name="RWIGS">     -1.00000000</v>
   <i type="int" name="NEDOS">  6001</i>
   <i name="EMIN">     10.00000000</i>
   <i name="EMAX">    -10.00000000</i>
   <i name="EFERMI">      0.00000000</i>
  </separator>
  <separator name="writing" >
   <i type="int" name="NWRITE">     1</i>
   <i type="logical" name="LWAVE"> F  </i>
   <i type="logical" name="LDOWNSAMPLE"> F  </i>
   <i type="logical" name="LCHARG"> F  </i>
   <i type="logical" name="LPARD"> F  </i>
   <i type="logical" name="LVTOT"> F  </i>
   <i type="logical" name="LVHAR"> F  </i>
   <i type="logical" name="LELF"> F  </i>
   <i type="logical" name="LOPTICS"> F  </i>
   <v name="STM">      0.00000000      0.00000000      0.00000000      0.00000000      0.00000000      0.00000000      0.00000000</v>
  </separator>
  <separator name="performance" >
   <i type="int" name="NPAR">     4</i>
   <i type="int" name="NSIM">     4</i>
   <i type="int" name="NBLK">    -1</i>
   <i type="logical" name="LPLANE"> T  </i>
   <i type="logical" name="LSCALAPACK"> T  </i>
   <i type="logical" name="LSCAAWARE"> F  </i>
   <i type="logical" name="LSCALU"> F  </i>
   <i type="logical" name="LASYNC"> F  </i>
   <i type="logical" name="LORBITALREAL"> F  </i>
  </separator>
  <separator name="miscellaneous" >
   <i type="int" name="IDIOT">     3</i>
   <i type="int" name="PHON_NSTRUCT">    -1</i>
   <i type="logical" name="LMUSIC"> F  </i>
   <v name="POMASS">     74.92200000</v>
   <v name="DARWINR">      0.00000000</v>
   <v name="DARWINV">      1.00000000</v>
   <i type="logical" name="LCORR"> T  </i>
  </separator>
  <i type="logical" name="GGA_COMPAT"> T  </i>
  <i type="logical" name="LBERRY"> F  </i>
  <i type="int" name="ICORELEVEL">     0</i>
  <i type="logical" name="LDAU"> F  </i>
  <i type="int" name="I_CONSTRAINED_M">     0</i>
  <separator name="electronic exchange-correlation" >
   <i type="string" name="GGA">--</i>
   <i type="int" name="VOSKOWN">     0</i>
   <i type="logical" name="LHFCALC"> F  </i>
   <i type="string" name="PRECFOCK"></i>
   <i type="logical" name="LSYMGRAD"> F  </i>
   <i type="logical" name="LHFONE"> F  </i>
   <i type="logical" name="LRHFCALC"> F  </i>
   <i type="logical" name="LTHOMAS"> F  </i>
   <i type="logical" name="LMODELHF"> F  </i>
   <i type="logical" name="LFOCKACE"> F  </i>
   <i name="ENCUT4O">     -1.00000000</i>
   <i type="int" name="EXXOEP">     0</i>
   <i type="int" name="FOURORBIT">     0</i>
   <i name="AEXX">      0.00000000</i>
   <i name="HFALPHA">      0.00000000</i>
   <i name="MCALPHA">      0.00000000</i>
   <i name="ALDAX">      1.00000000</i>
   <i name="AGGAX">      1.00000000</i>
   <i name="ALDAC">      1.00000000</i>
   <i name="AGGAC">      1.00000000</i>
   <i type="int" name="NKREDX">     1</i>
   <i type="int" name="NKREDY">     1</i>
   <i type="int" name="NKREDZ">     1</i>
   <i type="logical" name="SHIFTRED"> F  </i>
   <i type="logical" name="ODDONLY"> F  </i>
   <i type="logical" name="EVENONLY"> F  </i>
   <i type="int" name="LMAXFOCK">     0</i>
   <i type="int" name="NMAXFOCKAE">     0</i>
   <i type="logical" name="LFOCKAEDFT"> F  </i>
   <i name="HFSCREEN">      0.00000000</i>
   <i name="HFSCREENC">      0.00000000</i>
   <i type="int" name="NBANDSGWLOW">     0</i>
  </separator>
  <separator name="vdW DFT" >
   <i type="logical" name="LUSE_VDW"> F  </i>
   <i type="int" name="IVDW_NL">     1</i>
   <i type="logical" name="LSPIN_VDW"> F  </i>
   <i name="Zab_VDW">     -0.84910000</i>
   <i name="PARAM1">      0.12340000</i>
   <i name="PARAM2">      1.00000000</i>
   <i name="PARAM3">      0.00000000</i>
  </separator>
  <separator name="model GW" >
   <i type="int" name="MODEL_GW">     0</i>
   <i name="MODEL_EPS0">     54.08019838</i>
   <i name="MODEL_ALPHA">      1.00000000</i>
  </separator>
  <separator name="linear response parameters" >
   <i type="logical" name="LEPSILON"> F  </i>
   <i type="logical" name="LRPA"> F  </i>
   <i type="logical" name="LNABLA"> F  </i>
   <i type="logical" name="LVEL"> F  </i>
   <i name="CSHIFT">      0.10000000</i>
   <i name="OMEGAMAX">     -1.00000000</i>
   <i name="DEG_THRESHOLD">      0.00200000</i>
   <i name="RTIME">     -0.10000000</i>
   <i name="WPLASMAI">      0.00000000</i>
   <v name="DFIELD">      0.00000000      0.00000000      0.00000000</v>
   <v name="WPLASMA">      0.00000000      0.00000000      0.00000000      0.00000000      0.00000000      0.00000000      0.00000000      0.00000000      0.00000000</v>
  </separator>
  <separator name="orbital magnetization" >
   <i type="logical" name="NUCIND"> F  </i>
   <v name="MAGPOS">      0.00000000      0.00000000      0.00000000</v>
   <i type="logical" name="LNICSALL"> T  </i>
   <i type="logical" name="ORBITALMAG"> F  </i>
   <i type="logical" name="LMAGBLOCH"> F  </i>
   <i type="logical" name="LCHIMAG"> F  </i>
   <i type="logical" name="LGAUGE"> T  </i>
   <i type="int" name="MAGATOM">     0</i>
   <v name="MAGDIPOL">      0.00000000      0.00000000      0.00000000</v>
   <v name="AVECCONST">      0.00000000      0.00000000      0.00000000</v>
  </separator>
  <separator name="response functions" >
   <i type="logical" name="LALL_IN_ONE"> F  </i>
   <i type="int" name="IALL_IN_ONE">    -1</i>
   <i type="int" name="NBANDS_WAVE">    -1</i>
   <i type="logical" name="LFINITE_TEMPERATURE"> F  </i>
   <i type="logical" name="LADDER"> F  </i>
   <i type="logical" name="LRPAFORCE"> F  </i>
   <i type="logical" name="LFXC"> F  </i>
   <i type="logical" name="LHARTREE"> T  </i>
   <i type="int" name="IBSE">     0</i>
   <v type="int" name="KPOINT">    -1     0     0     0</v>
   <i type="logical" name="LTCTC"> F  </i>
   <i type="logical" name="LTCTE"> F  </i>
   <i type="logical" name="LTETE"> F  </i>
   <i type="logical" name="LTRIPLET"> F  </i>
   <i type="logical" name="LFXCEPS"> F  </i>
   <i type="logical" name="LFXHEG"> F  </i>
   <i type="int" name="NATURALO">     2</i>
   <i type="logical" name="LHOLEGF"> F  </i>
   <i type="logical" name="L2ORDER"> F  </i>
   <i type="logical" name="LDMP1"> F  </i>
   <i type="logical" name="LMP2LT"> F  </i>
   <i type="logical" name="LSMP2LT"> F  </i>
   <i type="logical" name="LGWLF"> F  </i>
   <i name="ENCUTGW">     -1.60000002</i>
   <i name="ENCUTGWSOFT">     -1.60000002</i>
   <i name="ENCUTLF">     -1.00000000</i>
   <i type="logical" name="LESF_SPLINES"> F  </i>
   <i type="int" name="LMAXMP2">    -1</i>
   <i name="SCISSOR">      0.00000000</i>
   <i type="int" name="NOMEGA">     0</i>
   <i type="int" name="NOMEGAR">     0</i>
   <i type="int" name="NBANDSGW">    -1</i>
   <i type="int" name="NBANDSO">    -1</i>
   <i type="int" name="NBANDSV">    -1</i>
   <i type="int" name="NELMGW">     1</i>
   <i type="int" name="NELMHF">     1</i>
   <i type="int" name="DIM">     3</i>
   <i type="int" name="IESPILON">     4</i>
   <i type="int" name="ANTIRES">     0</i>
   <i name="OMEGAMAX">    -30.00000000</i>
   <i name="OMEGAMIN">    -30.00000000</i>
   <i name="OMEGATL">   -200.00000000</i>
   <i type="int" name="OMEGAGRID">     0</i>
   <i name="CSHIFT">     -0.10000000</i>
   <i type="logical" name="LSELFENERGY"> F  </i>
   <i type="logical" name="LSPECTRAL"> F  </i>
   <i type="logical" name="LSPECTRALGW"> F  </i>
   <i type="logical" name="LSINGLES"> F  </i>
   <i type="logical" name="LFERMIGW"> F  </i>
   <i type="logical" name="ODDONLYGW"> F  </i>
   <i type="logical" name="EVENONLYGW"> F  </i>
   <i type="int" name="NKREDLFX">     1</i>
   <i type="int" name="NKREDLFY">     1</i>
   <i type="int" name="NKREDLFZ">     1</i>
   <i type="int" name="MAXMEM">  2800</i>
   <i type="int" name="TELESCOPE">     0</i>
   <i type="int" name="NTAUPAR">    -1</i>
   <i type="int" name="NOMEGAPAR">    -1</i>
   <i name="DAMP_NEWTON">      0.80000001</i>
   <i name="LAMBDA">      1.00000000</i>
  </separator>
  <separator name="External order field" >
   <i name="OFIELD_KAPPA">      0.00000000</i>
   <v name="OFIELD_K">      0.00000000      0.00000000      0.00000000</v>
   <i name="OFIELD_Q6_NEAR">      0.00000000</i>
   <i name="OFIELD_Q6_FAR">      0.00000000</i>
   <i name="OFIELD_A">      0.00000000</i>
  </separator>
  <separator name="optional k-points parameters" >
   <i type="int" name="KPOINTS_OPT_MODE">     1</i>
   <i type="logical" name="LKPOINTS_OPT"> F  </i>
  </separator>
 </parameters>
 <atominfo>
  <atoms>       2 </atoms>
  <types>       1 </types>
  <array name="atoms" >
   <dimension dim="1">ion</dimension>
   <field type="string">element</field>
   <field type="int">atomtype</field>
   <set>
    <rc><c>As</c><c>   1</c></rc>
    <rc><c>As</c><c>   1</c></rc>
   </set>
  </array>
  <array name="atomtypes" >
   <dimension dim="1">type</dimension>
   <field type="int">atomspertype</field>
   <field type="string">element</field>
   <field>mass</field>
   <field>valence</field>
   <field type="string">pseudopotential</field>
   <set>
    <rc><c>   2</c><c>As</c><c>     74.92200000</c><c>      5.00000000</c><c>  PAW_PBE As_GW 20Mar2012               </c></rc>
   </set>
  </array>
 </atominfo>
 <structure name="initialpos" >
  <crystal>
   <varray name="basis" >
    <v>       3.60689254       0.00000000       0.00000000 </v>
    <v>      -1.80344627       3.12366057       0.00000000 </v>
    <v>       0.00000000       0.00000000      16.00000000 </v>
   </varray>
   <i name="volume">    180.26732792 </i>
   <varray name="rec_basis" >
    <v>       0.27724696       0.16006861       0.00000000 </v>
    <v>       0.00000000       0.32013722       0.00000000 </v>
    <v>       0.00000000       0.00000000       0.06250000 </v>
   </varray>
  </crystal>
  <varray name="positions" >
   <v>       0.66666667       0.33333333       0.45634314 </v>
   <v>       0.33333333       0.66666667       0.54365686 </v>
  </varray>
 </structure>
 <calculation>
  <scstep>
   <time name="dav">    1.00    1.00</time>
   <time name="total">    1.29    1.39</time>
   <energy>
    <i name="alphaZ">      5.26383816 </i>
    <i name="ewald">    378.22030483 </i>
    <i name="hartreedc">   -664.27977220 </i>
    <i name="XCdc">    -23.94414329 </i>
    <i name="pawpsdc">    294.12882363 </i>
    <i name="pawaedc">   -251.25503797 </i>
    <i name="eentropy">     -0.00044495 </i>
    <i name="bandstr">    -30.16312600 </i>
    <i name="atom">    340.37129062 </i>
    <i name="e_fr_energy">     48.34173284 </i>
    <i name="e_wo_entrp">     48.34217779 </i>
    <i name="e_0_energy">     48.34195532 </i>
   </energy>
  </scstep>
  <scstep>
   <time name="dav">    1.35    1.35</time>
   <time name="total">    1.35    1.35</time>
   <energy>
    <i name="e_fr_energy">     -4.08337796 </i>
    <i name="e_wo_entrp">     -4.08337796 </i>
    <i name="e_0_energy">     -4.08337796 </i>
   </energy>
  </scstep>
  <scstep>
   <time name="dav">    1.12    1.13</time>
   <time name="total">    1.12    1.13</time>
   <energy>
    <i name="e_fr_energy">     -9.22271237 </i>
    <i name="e_wo_entrp">     -9.22271237 </i>
    <i name="e_0_energy">     -9.22271237 </i>
   </energy>
  </scstep>
  <scstep>
   <time name="dav">    1.14    1.14</time>
   <time name="total">    1.14    1.15</time>
   <energy>
    <i name="e_fr_energy">     -9.39583668 </i>
    <i name="e_wo_entrp">     -9.39583668 </i>
    <i name="e_0_energy">     -9.39583668 </i>
   </energy>
  </scstep>
  <scstep>
   <time name="dav">    1.23    1.23</time>
   <time name="total">    1.23    1.23</time>
   <energy>
    <i name="e_fr_energy">     -9.40328824 </i>
    <i name="e_wo_entrp">     -9.40328824 </i>
    <i name="e_0_energy">     -9.40328824 </i>
   </energy>
  </scstep>
  <scstep>
   <time name="dav">    1.27    1.27</time>
   <time name="total">    1.27    1.27</time>
   <energy>
    <i name="e_fr_energy">     -9.40346725 </i>
    <i name="e_wo_entrp">     -9.40346725 </i>
    <i name="e_0_energy">     -9.40346725 </i>
   </energy>
  </scstep>
  <scstep>
   <time name="dav">    1.02    1.02</time>
   <time name="total">    1.02    1.02</time>
   <energy>
    <i name="e_fr_energy">     -9.40347228 </i>
    <i name="e_wo_entrp">     -9.40347228 </i>
    <i name="e_0_energy">     -9.40347228 </i>
   </energy>
  </scstep>
  <scstep>
   <time name="dav">    0.98    0.98</time>
   <time name="total">    0.98    0.98</time>
   <energy>
    <i name="e_fr_energy">     -9.40347235 </i>
    <i name="e_wo_entrp">     -9.40347235 </i>
    <i name="e_0_energy">     -9.40347235 </i>
   </energy>
  </scstep>
  <scstep>
   <time name="dav">    0.78    0.78</time>
   <time name="total">    0.78    0.78</time>
   <energy>
    <i name="e_fr_energy">     -9.40347235 </i>
    <i name="e_wo_entrp">     -9.40347235 </i>
    <i name="e_0_energy">     -9.40347235 </i>
   </energy>
  </scstep>
  <scstep>
   <time name="dav">    0.82    0.83</time>
   <time name="total">    0.83    0.83</time>
   <energy>
    <i name="e_fr_energy">     -9.40347236 </i>
    <i name="e_wo_entrp">     -9.40347236 </i>
    <i name="e_0_energy">     -9.40347236 </i>
   </energy>
  </scstep>
  <scstep>
   <time name="dav">    0.71    0.72</time>
   <time name="total">    0.72    0.72</time>
   <energy>
    <i name="e_fr_energy">     -9.40347236 </i>
    <i name="e_wo_entrp">     -9.40347236 </i>
    <i name="e_0_energy">     -9.40347236 </i>
   </energy>
  </scstep>
  <scstep>
   <time name="dav">    0.69    0.69</time>
   <time name="total">    0.78    0.78</time>
   <energy>
    <i name="e_fr_energy">     -9.40347236 </i>
    <i name="e_wo_entrp">     -9.40347236 </i>
    <i name="e_0_energy">     -9.40347236 </i>
   </energy>
  </scstep>
  <scstep>
   <time name="dav">    1.22    1.23</time>
   <time name="total">    1.54    1.55</time>
   <energy>
    <i name="e_fr_energy">     -9.38902284 </i>
    <i name="e_wo_entrp">     -9.38902284 </i>
    <i name="e_0_energy">     -9.38902284 </i>
   </energy>
  </scstep>
  <scstep>
   <time name="dav">    1.13    1.20</time>
   <time name="total">    1.41    1.48</time>
   <energy>
    <i name="e_fr_energy">     -9.34617628 </i>
    <i name="e_wo_entrp">     -9.34617628 </i>
    <i name="e_0_energy">     -9.34617628 </i>
   </energy>
  </scstep>
  <scstep>
   <time name="dav">    1.22    1.22</time>
   <time name="total">    1.51    1.51</time>
   <energy>
    <i name="e_fr_energy">     -9.34256782 </i>
    <i name="e_wo_entrp">     -9.34256782 </i>
    <i name="e_0_energy">     -9.34256782 </i>
   </energy>
  </scstep>
  <scstep>
   <time name="dav">    1.43    1.44</time>
   <time name="total">    1.78    1.79</time>
   <energy>
    <i name="e_fr_energy">     -9.34271286 </i>
    <i name="e_wo_entrp">     -9.34271286 </i>
    <i name="e_0_energy">     -9.34271286 </i>
   </energy>
  </scstep>
  <scstep>
   <time name="dav">    1.07    1.08</time>
   <time name="total">    1.43    1.44</time>
   <energy>
    <i name="e_fr_energy">     -9.34260157 </i>
    <i name="e_wo_entrp">     -9.34260157 </i>
    <i name="e_0_energy">     -9.34260157 </i>
   </energy>
  </scstep>
  <scstep>
   <time name="dav">    1.21    1.21</time>
   <time name="total">    1.59    1.59</time>
   <energy>
    <i name="e_fr_energy">     -9.34259507 </i>
    <i name="e_wo_entrp">     -9.34259507 </i>
    <i name="e_0_energy">     -9.34259507 </i>
   </energy>
  </scstep>
  <scstep>
   <time name="dav">    1.33    1.33</time>
   <time name="total">    1.62    1.62</time>
   <energy>
    <i name="alphaZ">      5.26383816 </i>
    <i name="ewald">    378.22030483 </i>
    <i name="hartreedc">   -670.08548556 </i>
    <i name="XCdc">    -23.49629865 </i>
    <i name="pawpsdc">    331.11249480 </i>
    <i name="pawaedc">   -288.38420711 </i>
    <i name="eentropy">     -0.00000000 </i>
    <i name="bandstr">    -82.34453170 </i>
    <i name="atom">    340.37129062 </i>
    <i name="e_fr_energy">     -9.34259460 </i>
    <i name="e_wo_entrp">     -9.34259460 </i>
    <i name="e_0_energy">     -9.34259460 </i>
   </energy>
  </scstep>
  <structure>
   <crystal>
    <varray name="basis" >
     <v>       3.60689254       0.00000000       0.00000000 </v>
     <v>      -1.80344627       3.12366057       0.00000000 </v>
     <v>       0.00000000       0.00000000      16.00000000 </v>
    </varray>
    <i name="volume">    180.26732792 </i>
    <varray name="rec_basis" >
     <v>       0.27724696       0.16006861       0.00000000 </v>
     <v>       0.00000000       0.32013722       0.00000000 </v>
     <v>       0.00000000       0.00000000       0.06250000 </v>
    </varray>
   </crystal>
   <varray name="positions" >
    <v>       0.66666667       0.33333333       0.45634314 </v>
    <v>       0.33333333       0.66666667       0.54365686 </v>
   </varray>
  </structure>
  <varray name="forces" >
   <v>       0.00000000       0.00000000       0.00836812 </v>
   <v>       0.00000000       0.00000000      -0.00836812 </v>
  </varray>
  <varray name="stress" >
   <v>      -0.08646589      -0.00000000       0.00000000 </v>
   <v>       0.00000000      -0.08646589       0.00000000 </v>
   <v>       0.00000000       0.00000000      -0.08334671 </v>
  </varray>
  <energy>
   <i name="e_fr_energy">     -9.34259460 </i>
   <i name="e_wo_entrp">     -9.34259460 </i>
   <i name="e_0_energy">     -9.34259460 </i>
  </energy>
  <time name="totalsc">   25.17   25.92</time>
  <eigenvalues>
   <array>
    <dimension dim="1">band</dimension>
    <dimension dim="2">kpoint</dimension>
    <dimension dim="3">spin</dimension>
    <field>eigene</field>
    <field>occ</field>
    <set>
     <set comment="spin 1">
      <set comment="kpoint 1">
       <r>  -16.4739    1.0000 </r>
       <r>  -10.1870    1.0000 </r>
       <r>   -3.5635    1.0000 </r>
       <r>   -3.0145    1.0000 </r>
       <r>   -3.0145    1.0000 </r>
       <r>   -1.0926    0.0000 </r>
       <r>    0.4759    0.0000 </r>
       <r>    0.4759    0.0000 </r>
       <r>    1.9033    0.0000 </r>
       <r>    1.9992    0.0000 </r>
       <r>    3.3826    0.0000 </r>
       <r>    4.3055    0.0000 </r>
      </set>
      <set comment="kpoint 2">
       <r>  -16.3955    1.0000 </r>
       <r>  -10.1765    1.0000 </r>
       <r>   -3.8047    1.0000 </r>
       <r>   -3.5254    1.0000 </r>
       <r>   -3.1917    1.0000 </r>
       <r>   -0.5087    0.0000 </r>
       <r>    0.3543    0.0000 </r>
       <r>    0.6568    0.0000 </r>
       <r>    2.0158    0.0000 </r>
       <r>    2.0951    0.0000 </r>
       <r>    3.4685    0.0000 </r>
       <r>    4.3990    0.0000 </r>
      </set>
      <set comment="kpoint 3">
       <r>  -16.1623    1.0000 </r>
       <r>  -10.1789    1.0000 </r>
       <r>   -5.0254    1.0000 </r>
       <r>   -3.5993    1.0000 </r>
       <r>   -3.4383    1.0000 </r>
       <r>   -0.6753    0.0000 </r>
       <r>    0.9236    0.0000 </r>
       <r>    1.0341    0.0000 </r>
       <r>    2.2882    0.0000 </r>
       <r>    2.4060    0.0000 </r>
       <r>    3.6837    0.0000 </r>
       <r>    4.6448    0.0000 </r>
      </set>
      <set comment="kpoint 4">
       <r>  -15.7812    1.0000 </r>
       <r>  -10.3079    1.0000 </r>
       <r>   -6.0281    1.0000 </r>
       <r>   -4.0518    1.0000 </r>
       <r>   -3.4094    1.0000 </r>
       <r>   -1.1991    0.0000 </r>
       <r>    1.3094    0.0000 </r>
       <r>    1.3451    0.0000 </r>
       <r>    2.5966    0.0000 </r>
       <r>    2.8608    0.0000 </r>
       <r>    4.0325    0.0000 </r>
       <r>    4.8967    0.0000 </r>
      </set>
      <set comment="kpoint 5">
       <r>  -15.2691    1.0000 </r>
       <r>  -10.7190    1.0000 </r>
       <r>   -6.5583    1.0000 </r>
       <r>   -4.4427    1.0000 </r>
       <r>   -3.6313    1.0000 </r>
       <r>   -1.4180    0.0000 </r>
       <r>    0.9877    0.0000 </r>
       <r>    1.4844    0.0000 </r>
       <r>    3.1299    0.0000 </r>
       <r>    3.3448    0.0000 </r>
       <r>    4.2900    0.0000 </r>
       <r>    5.3690    0.0000 </r>
      </set>
      <set comment="kpoint 6">
       <r>  -14.6710    1.0000 </r>
       <r>  -11.3899    1.0000 </r>
       <r>   -6.6062    1.0000 </r>
       <r>   -4.7220    1.0000 </r>
       <r>   -4.0989    1.0000 </r>
       <r>   -1.2901    0.0000 </r>
       <r>    0.4967    0.0000 </r>
       <r>    1.5048    0.0000 </r>
       <r>    3.5021    0.0000 </r>
       <r>    3.9097    0.0000 </r>
       <r>    4.5760    0.0000 </r>
       <r>    5.7996    0.0000 </r>
      </set>
      <set comment="kpoint 7">
       <r>  -14.1454    1.0000 </r>
       <r>  -12.0086    1.0000 </r>
       <r>   -6.4469    1.0000 </r>
       <r>   -4.8663    1.0000 </r>
       <r>   -4.5114    1.0000 </r>
       <r>   -1.0855    0.0000 </r>
       <r>    0.1713    0.0000 </r>
       <r>    1.4914    0.0000 </r>
       <r>    3.3011    0.0000 </r>
       <r>    4.8554    0.0000 </r>
       <r>    5.3009    0.0000 </r>
       <r>    5.9079    0.0000 </r>
      </set>
      <set comment="kpoint 8">
       <r>  -16.2397    1.0000 </r>
       <r>  -10.1718    1.0000 </r>
       <r>   -4.6616    1.0000 </r>
       <r>   -3.5893    1.0000 </r>
       <r>   -3.4558    1.0000 </r>
       <r>   -0.0077    0.0000 </r>
       <r>    0.0322    0.0000 </r>
       <r>    1.1437    0.0000 </r>
       <r>    2.2423    0.0000 </r>
       <r>    2.2710    0.0000 </r>
       <r>    3.6087    0.0000 </r>
       <r>    4.5787    0.0000 </r>
      </set>
      <set comment="kpoint 9">
       <r>  -15.9321    1.0000 </r>
       <r>  -10.2335    1.0000 </r>
       <r>   -5.6299    1.0000 </r>
       <r>   -4.1688    1.0000 </r>
       <r>   -3.3833    1.0000 </r>
       <r>   -0.5360    0.0000 </r>
       <r>    0.6406    0.0000 </r>
       <r>    1.5609    0.0000 </r>
       <r>    2.5300    0.0000 </r>
       <r>    2.6600    0.0000 </r>
       <r>    3.8345    0.0000 </r>
       <r>    4.8448    0.0000 </r>
      </set>
      <set comment="kpoint 10">
       <r>  -15.4836    1.0000 </r>
       <r>  -10.5031    1.0000 </r>
       <r>   -6.3271    1.0000 </r>
       <r>   -4.6822    1.0000 </r>
       <r>   -3.4402    1.0000 </r>
       <r>   -0.9483    0.0000 </r>
       <r>    1.0465    0.0000 </r>
       <r>    1.4103    0.0000 </r>
       <r>    2.9102    0.0000 </r>
       <r>    3.1633    0.0000 </r>
       <r>    4.1870    0.0000 </r>
       <r>    5.1493    0.0000 </r>
      </set>
      <set comment="kpoint 11">
       <r>  -14.9204    1.0000 </r>
       <r>  -11.0655    1.0000 </r>
       <r>   -6.5801    1.0000 </r>
       <r>   -5.0373    1.0000 </r>
       <r>   -3.7735    1.0000 </r>
       <r>   -1.0045    0.0000 </r>
       <r>    0.8637    0.0000 </r>
       <r>    1.2144    0.0000 </r>
       <r>    3.5654    0.0000 </r>
       <r>    3.6301    0.0000 </r>
       <r>    4.4246    0.0000 </r>
       <r>    5.6272    0.0000 </r>
      </set>
      <set comment="kpoint 12">
       <r>  -14.3220    1.0000 </r>
       <r>  -11.7587    1.0000 </r>
       <r>   -6.5239    1.0000 </r>
       <r>   -5.1780    1.0000 </r>
       <r>   -4.2727    1.0000 </r>
       <r>   -0.7752    0.0000 </r>
       <r>    0.3318    0.0000 </r>
       <r>    1.2903    0.0000 </r>
       <r>    3.5203    0.0000 </r>
       <r>    4.4491    0.0000 </r>
       <r>    4.9860    0.0000 </r>
       <r>    6.1083    0.0000 </r>
      </set>
      <set comment="kpoint 13">
       <r>  -13.9900    1.0000 </r>
       <r>  -12.1400    1.0000 </r>
       <r>   -6.4543    1.0000 </r>
       <r>   -5.1461    1.0000 </r>
       <r>   -4.5714    1.0000 </r>
       <r>   -0.5672    0.0000 </r>
       <r>    0.0444    0.0000 </r>
       <r>    1.3240    0.0000 </r>
       <r>    3.3609    0.0000 </r>
       <r>    5.4323    0.0000 </r>
       <r>    5.4722    0.0000 </r>
       <r>    5.7820    0.0000 </r>
      </set>
      <set comment="kpoint 14">
       <r>  -15.5559    1.0000 </r>
       <r>  -10.4312    1.0000 </r>
       <r>   -6.1118    1.0000 </r>
       <r>   -4.9975    1.0000 </r>
       <r>   -3.3822    1.0000 </r>
       <r>   -0.2608    0.0000 </r>
       <r>    0.4631    0.0000 </r>
       <r>    1.6932    0.0000 </r>
       <r>    2.9433    0.0000 </r>
       <r>    2.9984    0.0000 </r>
       <r>    3.9609    0.0000 </r>
       <r>    5.0244    0.0000 </r>
      </set>
      <set comment="kpoint 15">
       <r>  -15.0496    1.0000 </r>
       <r>  -10.8696    1.0000 </r>
       <r>   -6.3630    1.0000 </r>
       <r>   -5.6205    1.0000 </r>
       <r>   -3.5674    1.0000 </r>
       <r>   -0.3449    0.0000 </r>
       <r>    0.5238    0.0000 </r>
       <r>    1.5459    0.0000 </r>
       <r>    3.4426    0.0000 </r>
       <r>    3.5803    0.0000 </r>
       <r>    4.3277    0.0000 </r>
       <r>    5.4438    0.0000 </r>
      </set>
      <set comment="kpoint 16">
       <r>  -14.4532    1.0000 </r>
       <r>  -11.5116    1.0000 </r>
       <r>   -6.5273    1.0000 </r>
       <r>   -5.7657    1.0000 </r>
       <r>   -3.9906    1.0000 </r>
       <r>   -0.3482    0.0000 </r>
       <r>    0.4847    0.0000 </r>
       <r>    1.3139    0.0000 </r>
       <r>    3.9191    0.0000 </r>
       <r>    4.2192    0.0000 </r>
       <r>    4.8032    0.0000 </r>
       <r>    5.9998    0.0000 </r>
      </set>
      <set comment="kpoint 17">
       <r>  -13.9116    1.0000 </r>
       <r>  -12.1145    1.0000 </r>
       <r>   -6.6728    1.0000 </r>
       <r>   -5.5202    1.0000 </r>
       <r>   -4.4722    1.0000 </r>
       <r>   -0.2848    0.0000 </r>
       <r>    0.4499    0.0000 </r>
       <r>    1.1720    0.0000 </r>
       <r>    3.7422    0.0000 </r>
       <r>    5.1719    0.0000 </r>
       <r>    5.5781    0.0000 </r>
       <r>    6.1786    0.0000 </r>
      </set>
      <set comment="kpoint 18">
       <r>  -14.5007    1.0000 </r>
       <r>  -11.4064    1.0000 </r>
       <r>   -6.4372    1.0000 </r>
       <r>   -6.1075    1.0000 </r>
       <r>   -3.8679    1.0000 </r>
       <r>   -0.1428    0.0000 </r>
       <r>    0.2295    0.0000 </r>
       <r>    1.8111    0.0000 </r>
       <r>    4.0891    0.0000 </r>
       <r>    4.1712    0.0000 </r>
       <r>    4.7720    0.0000 </r>
       <r>    5.5113    0.0000 </r>
      </set>
      <set comment="kpoint 19">
       <r>  -13.8945    1.0000 </r>
       <r>  -12.0319    1.0000 </r>
       <r>   -6.9290    1.0000 </r>
       <r>   -5.7042    1.0000 </r>
       <r>   -4.3171    1.0000 </r>
       <r>   -0.5698    0.0000 </r>
       <r>    0.7432    0.0000 </r>
       <r>    1.7001    0.0000 </r>
       <r>    4.4889    0.0000 </r>
       <r>    5.0046    0.0000 </r>
       <r>    5.3077    0.0000 </r>
       <r>    5.7292    0.0000 </r>
      </set>
      <set comment="kpoint 20">
       <r>  -13.5110    1.0000 </r>
       <r>  -12.4277    1.0000 </r>
       <r>   -7.0974    1.0000 </r>
       <r>   -5.3889    1.0000 </r>
       <r>   -4.6478    1.0000 </r>
       <r>   -0.7223    0.0000 </r>
       <r>    1.2307    0.0000 </r>
       <r>    1.3269    0.0000 </r>
       <r>    4.4348    0.0000 </r>
       <r>    5.4462    0.0000 </r>
       <r>    6.0461    0.0000 </r>
       <r>    6.0977    0.0000 </r>
      </set>
      <set comment="kpoint 21">
       <r>  -13.2986    1.0000 </r>
       <r>  -12.5970    1.0000 </r>
       <r>   -7.2925    1.0000 </r>
       <r>   -5.2698    1.0000 </r>
       <r>   -4.7267    1.0000 </r>
       <r>   -0.9379    0.0000 </r>
       <r>    1.2815    0.0000 </r>
       <r>    1.6956    0.0000 </r>
       <r>    5.1311    0.0000 </r>
       <r>    5.5419    0.0000 </r>
       <r>    5.6230    0.0000 </r>
       <r>    6.1624    0.0000 </r>
      </set>
      <set comment="kpoint 22">
       <r>  -16.4739    1.0000 </r>
       <r>  -10.1870    1.0000 </r>
       <r>   -3.5635    1.0000 </r>
       <r>   -3.0145    1.0000 </r>
       <r>   -3.0145    1.0000 </r>
       <r>   -1.0927    0.0000 </r>
       <r>    0.4759    0.0000 </r>
       <r>    0.4759    0.0000 </r>
       <r>    1.7927    0.0000 </r>
       <r>    2.1899    0.0000 </r>
       <r>    3.1454    0.0000 </r>
       <r>    4.6090    0.0000 </r>
      </set>
      <set comment="kpoint 23">
       <r>  -16.3955    1.0000 </r>
       <r>  -10.1765    1.0000 </r>
       <r>   -3.8047    1.0000 </r>
       <r>   -3.5254    1.0000 </r>
       <r>   -3.1917    1.0000 </r>
       <r>   -0.5088    0.0000 </r>
       <r>    0.3541    0.0000 </r>
       <r>    0.6569    0.0000 </r>
       <r>    1.9052    0.0000 </r>
       <r>    2.2817    0.0000 </r>
       <r>    3.2436    0.0000 </r>
       <r>    4.6807    0.0000 </r>
      </set>
      <set comment="kpoint 24">
       <r>  -16.3955    1.0000 </r>
       <r>  -10.1765    1.0000 </r>
       <r>   -3.8046    1.0000 </r>
       <r>   -3.5254    1.0000 </r>
       <r>   -3.1917    1.0000 </r>
       <r>   -0.5089    0.0000 </r>
       <r>    0.3543    0.0000 </r>
       <r>    0.6569    0.0000 </r>
       <r>    1.9000    0.0000 </r>
       <r>    2.2910    0.0000 </r>
       <r>    3.2351    0.0000 </r>
       <r>    4.6946    0.0000 </r>
      </set>
      <set comment="kpoint 25">
       <r>  -16.1623    1.0000 </r>
       <r>  -10.1789    1.0000 </r>
       <r>   -5.0254    1.0000 </r>
       <r>   -3.5993    1.0000 </r>
       <r>   -3.4383    1.0000 </r>
       <r>   -0.6753    0.0000 </r>
       <r>    0.9217    0.0000 </r>
       <r>    1.0341    0.0000 </r>
       <r>    2.2245    0.0000 </r>
       <r>    2.5260    0.0000 </r>
       <r>    3.5360    0.0000 </r>
       <r>    4.6650    0.0000 </r>
      </set>
      <set comment="kpoint 26">
       <r>  -16.1623    1.0000 </r>
       <r>  -10.1789    1.0000 </r>
       <r>   -5.0254    1.0000 </r>
       <r>   -3.5993    1.0000 </r>
       <r>   -3.4383    1.0000 </r>
       <r>   -0.6754    0.0000 </r>
       <r>    0.9231    0.0000 </r>
       <r>    1.0341    0.0000 </r>
       <r>    2.1846    0.0000 </r>
       <r>    2.5970    0.0000 </r>
       <r>    3.4619    0.0000 </r>
       <r>    4.8122    0.0000 </r>
      </set>
      <set comment="kpoint 27">
       <r>  -15.7812    1.0000 </r>
       <r>  -10.3079    1.0000 </r>
       <r>   -6.0281    1.0000 </r>
       <r>   -4.0518    1.0000 </r>
       <r>   -3.4094    1.0000 </r>
       <r>   -1.1991    0.0000 </r>
       <r>    1.3084    0.0000 </r>
       <r>    1.3451    0.0000 </r>
       <r>    2.5472    0.0000 </r>
       <r>    2.9674    0.0000 </r>
       <r>    3.9462    0.0000 </r>
       <r>    4.7029    0.0000 </r>
      </set>
      <set comment="kpoint 28">
       <r>  -15.7812    1.0000 </r>
       <r>  -10.3079    1.0000 </r>
       <r>   -6.0281    1.0000 </r>
       <r>   -4.0518    1.0000 </r>
       <r>   -3.4094    1.0000 </r>
       <r>   -1.1991    0.0000 </r>
       <r>    1.3099    0.0000 </r>
       <r>    1.3451    0.0000 </r>
       <r>    2.5108    0.0000 </r>
       <r>    3.0548    0.0000 </r>
       <r>    3.7989    0.0000 </r>
       <r>    4.9754    0.0000 </r>
      </set>
      <set comment="kpoint 29">
       <r>  -15.2691    1.0000 </r>
       <r>  -10.7190    1.0000 </r>
       <r>   -6.5583    1.0000 </r>
       <r>   -4.4427    1.0000 </r>
       <r>   -3.6313    1.0000 </r>
       <r>   -1.4180    0.0000 </r>
       <r>    0.9878    0.0000 </r>
       <r>    1.4844    0.0000 </r>
       <r>    3.0666    0.0000 </r>
       <r>    3.4387    0.0000 </r>
       <r>    4.4145    0.0000 </r>
       <r>    4.8072    0.0000 </r>
      </set>
      <set comment="kpoint 30">
       <r>  -15.2691    1.0000 </r>
       <r>  -10.7190    1.0000 </r>
       <r>   -6.5583    1.0000 </r>
       <r>   -4.4427    1.0000 </r>
       <r>   -3.6313    1.0000 </r>
       <r>   -1.4180    0.0000 </r>
       <r>    0.9879    0.0000 </r>
       <r>    1.4844    0.0000 </r>
       <r>    3.0578    0.0000 </r>
       <r>    3.4634    0.0000 </r>
       <r>    4.3026    0.0000 </r>
       <r>    4.9907    0.0000 </r>
      </set>
      <set comment="kpoint 31">
       <r>  -14.6710    1.0000 </r>
       <r>  -11.3899    1.0000 </r>
       <r>   -6.6062    1.0000 </r>
       <r>   -4.7220    1.0000 </r>
       <r>   -4.0989    1.0000 </r>
       <r>   -1.2901    0.0000 </r>
       <r>    0.4967    0.0000 </r>
       <r>    1.5048    0.0000 </r>
       <r>    3.5106    0.0000 </r>
       <r>    3.8501    0.0000 </r>
       <r>    4.8325    0.0000 </r>
       <r>    5.3093    0.0000 </r>
      </set>
      <set comment="kpoint 32">
       <r>  -14.6710    1.0000 </r>
       <r>  -11.3899    1.0000 </r>
       <r>   -6.6062    1.0000 </r>
       <r>   -4.7220    1.0000 </r>
       <r>   -4.0989    1.0000 </r>
       <r>   -1.2901    0.0000 </r>
       <r>    0.4967    0.0000 </r>
       <r>    1.5048    0.0000 </r>
       <r>    3.5147    0.0000 </r>
       <r>    3.8484    0.0000 </r>
       <r>    4.7618    0.0000 </r>
       <r>    5.4660    0.0000 </r>
      </set>
      <set comment="kpoint 33">
       <r>  -14.1454    1.0000 </r>
       <r>  -12.0085    1.0000 </r>
       <r>   -6.4469    1.0000 </r>
       <r>   -4.8663    1.0000 </r>
       <r>   -4.5114    1.0000 </r>
       <r>   -1.0855    0.0000 </r>
       <r>    0.1713    0.0000 </r>
       <r>    1.4914    0.0000 </r>
       <r>    3.3018    0.0000 </r>
       <r>    4.7966    0.0000 </r>
       <r>    5.4489    0.0000 </r>
       <r>    5.9589    0.0000 </r>
      </set>
      <set comment="kpoint 34">
       <r>  -14.1454    1.0000 </r>
       <r>  -12.0085    1.0000 </r>
       <r>   -6.4469    1.0000 </r>
       <r>   -4.8663    1.0000 </r>
       <r>   -4.5114    1.0000 </r>
       <r>   -1.0855    0.0000 </r>
       <r>    0.1713    0.0000 </r>
       <r>    1.4914    0.0000 </r>
       <r>    3.3020    0.0000 </r>
       <r>    4.8109    0.0000 </r>
       <r>    5.3719    0.0000 </r>
       <r>    5.9393    0.0000 </r>
      </set>
      <set comment="kpoint 35">
       <r>  -16.2397    1.0000 </r>
       <r>  -10.1718    1.0000 </r>
       <r>   -4.6616    1.0000 </r>
       <r>   -3.5893    1.0000 </r>
       <r>   -3.4558    1.0000 </r>
       <r>   -0.0079    0.0000 </r>
       <r>    0.0322    0.0000 </r>
       <r>    1.1423    0.0000 </r>
       <r>    2.1241    0.0000 </r>
       <r>    2.4605    0.0000 </r>
       <r>    3.4164    0.0000 </r>
       <r>    4.7285    0.0000 </r>
      </set>
      <set comment="kpoint 36">
       <r>  -15.9321    1.0000 </r>
       <r>  -10.2335    1.0000 </r>
       <r>   -5.6299    1.0000 </r>
       <r>   -4.1688    1.0000 </r>
       <r>   -3.3833    1.0000 </r>
       <r>   -0.5359    0.0000 </r>
       <r>    0.6403    0.0000 </r>
       <r>    1.5580    0.0000 </r>
       <r>    2.4764    0.0000 </r>
       <r>    2.7621    0.0000 </r>
       <r>    3.7753    0.0000 </r>
       <r>    4.5441    0.0000 </r>
      </set>
      <set comment="kpoint 37">
       <r>  -15.9321    1.0000 </r>
       <r>  -10.2335    1.0000 </r>
       <r>   -5.6299    1.0000 </r>
       <r>   -4.1688    1.0000 </r>
       <r>   -3.3833    1.0000 </r>
       <r>   -0.5360    0.0000 </r>
       <r>    0.6406    0.0000 </r>
       <r>    1.5594    0.0000 </r>
       <r>    2.4355    0.0000 </r>
       <r>    2.8357    0.0000 </r>
       <r>    3.6798    0.0000 </r>
       <r>    4.6846    0.0000 </r>
      </set>
      <set comment="kpoint 38">
       <r>  -15.4836    1.0000 </r>
       <r>  -10.5031    1.0000 </r>
       <r>   -6.3270    1.0000 </r>
       <r>   -4.6822    1.0000 </r>
       <r>   -3.4402    1.0000 </r>
       <r>   -0.9483    0.0000 </r>
       <r>    1.0464    0.0000 </r>
       <r>    1.4101    0.0000 </r>
       <r>    2.8550    0.0000 </r>
       <r>    3.2603    0.0000 </r>
       <r>    4.2533    0.0000 </r>
       <r>    4.6788    0.0000 </r>
      </set>
      <set comment="kpoint 39">
       <r>  -15.4836    1.0000 </r>
       <r>  -10.5031    1.0000 </r>
       <r>   -6.3270    1.0000 </r>
       <r>   -4.6822    1.0000 </r>
       <r>   -3.4402    1.0000 </r>
       <r>   -0.9483    0.0000 </r>
       <r>    1.0466    0.0000 </r>
       <r>    1.4105    0.0000 </r>
       <r>    2.8300    0.0000 </r>
       <r>    3.3263    0.0000 </r>
       <r>    4.0858    0.0000 </r>
       <r>    4.9126    0.0000 </r>
      </set>
      <set comment="kpoint 40">
       <r>  -14.9204    1.0000 </r>
       <r>  -11.0655    1.0000 </r>
       <r>   -6.5801    1.0000 </r>
       <r>   -5.0373    1.0000 </r>
       <r>   -3.7735    1.0000 </r>
       <r>   -1.0045    0.0000 </r>
       <r>    0.8638    0.0000 </r>
       <r>    1.2144    0.0000 </r>
       <r>    3.5125    0.0000 </r>
       <r>    3.6622    0.0000 </r>
       <r>    4.6669    0.0000 </r>
       <r>    5.0392    0.0000 </r>
      </set>
      <set comment="kpoint 41">
       <r>  -14.9204    1.0000 </r>
       <r>  -11.0655    1.0000 </r>
       <r>   -6.5801    1.0000 </r>
       <r>   -5.0373    1.0000 </r>
       <r>   -3.7735    1.0000 </r>
       <r>   -1.0045    0.0000 </r>
       <r>    0.8638    0.0000 </r>
       <r>    1.2144    0.0000 </r>
       <r>    3.4984    0.0000 </r>
       <r>    3.6881    0.0000 </r>
       <r>    4.5675    0.0000 </r>
       <r>    5.1957    0.0000 </r>
      </set>
      <set comment="kpoint 42">
       <r>  -14.3220    1.0000 </r>
       <r>  -11.7587    1.0000 </r>
       <r>   -6.5240    1.0000 </r>
       <r>   -5.1780    1.0000 </r>
       <r>   -4.2727    1.0000 </r>
       <r>   -0.7752    0.0000 </r>
       <r>    0.3319    0.0000 </r>
       <r>    1.2904    0.0000 </r>
       <r>    3.5225    0.0000 </r>
       <r>    4.3860    0.0000 </r>
       <r>    5.2129    0.0000 </r>
       <r>    5.7958    0.0000 </r>
      </set>
      <set comment="kpoint 43">
       <r>  -14.3220    1.0000 </r>
       <r>  -11.7587    1.0000 </r>
       <r>   -6.5240    1.0000 </r>
       <r>   -5.1780    1.0000 </r>
       <r>   -4.2727    1.0000 </r>
       <r>   -0.7752    0.0000 </r>
       <r>    0.3318    0.0000 </r>
       <r>    1.2904    0.0000 </r>
       <r>    3.5232    0.0000 </r>
       <r>    4.3909    0.0000 </r>
       <r>    5.1516    0.0000 </r>
       <r>    5.9318    0.0000 </r>
      </set>
      <set comment="kpoint 44">
       <r>  -13.9900    1.0000 </r>
       <r>  -12.1400    1.0000 </r>
       <r>   -6.4543    1.0000 </r>
       <r>   -5.1461    1.0000 </r>
       <r>   -4.5714    1.0000 </r>
       <r>   -0.5672    0.0000 </r>
       <r>    0.0444    0.0000 </r>
       <r>    1.3240    0.0000 </r>
       <r>    3.3613    0.0000 </r>
       <r>    5.3998    0.0000 </r>
       <r>    5.4255    0.0000 </r>
       <r>    5.8245    0.0000 </r>
      </set>
      <set comment="kpoint 45">
       <r>  -15.5559    1.0000 </r>
       <r>  -10.4312    1.0000 </r>
       <r>   -6.1118    1.0000 </r>
       <r>   -4.9975    1.0000 </r>
       <r>   -3.3822    1.0000 </r>
       <r>   -0.2607    0.0000 </r>
       <r>    0.4631    0.0000 </r>
       <r>    1.6923    0.0000 </r>
       <r>    2.8478    0.0000 </r>
       <r>    3.1248    0.0000 </r>
       <r>    4.0514    0.0000 </r>
       <r>    4.5304    0.0000 </r>
      </set>
      <set comment="kpoint 46">
       <r>  -15.0496    1.0000 </r>
       <r>  -10.8696    1.0000 </r>
       <r>   -6.3630    1.0000 </r>
       <r>   -5.6205    1.0000 </r>
       <r>   -3.5674    1.0000 </r>
       <r>   -0.3449    0.0000 </r>
       <r>    0.5238    0.0000 </r>
       <r>    1.5458    0.0000 </r>
       <r>    3.3947    0.0000 </r>
       <r>    3.6174    0.0000 </r>
       <r>    4.5529    0.0000 </r>
       <r>    4.9000    0.0000 </r>
      </set>
      <set comment="kpoint 47">
       <r>  -15.0496    1.0000 </r>
       <r>  -10.8696    1.0000 </r>
       <r>   -6.3630    1.0000 </r>
       <r>   -5.6205    1.0000 </r>
       <r>   -3.5674    1.0000 </r>
       <r>   -0.3449    0.0000 </r>
       <r>    0.5239    0.0000 </r>
       <r>    1.5459    0.0000 </r>
       <r>    3.3685    0.0000 </r>
       <r>    3.6690    0.0000 </r>
       <r>    4.4384    0.0000 </r>
       <r>    5.0339    0.0000 </r>
      </set>
      <set comment="kpoint 48">
       <r>  -14.4532    1.0000 </r>
       <r>  -11.5116    1.0000 </r>
       <r>   -6.5273    1.0000 </r>
       <r>   -5.7657    1.0000 </r>
       <r>   -3.9906    1.0000 </r>
       <r>   -0.3481    0.0000 </r>
       <r>    0.4847    0.0000 </r>
       <r>    1.3139    0.0000 </r>
       <r>    3.9319    0.0000 </r>
       <r>    4.1512    0.0000 </r>
       <r>    5.0274    0.0000 </r>
       <r>    5.5970    0.0000 </r>
      </set>
      <set comment="kpoint 49">
       <r>  -14.4532    1.0000 </r>
       <r>  -11.5116    1.0000 </r>
       <r>   -6.5273    1.0000 </r>
       <r>   -5.7657    1.0000 </r>
       <r>   -3.9906    1.0000 </r>
       <r>   -0.3482    0.0000 </r>
       <r>    0.4847    0.0000 </r>
       <r>    1.3139    0.0000 </r>
       <r>    3.9303    0.0000 </r>
       <r>    4.1573    0.0000 </r>
       <r>    4.9883    0.0000 </r>
       <r>    5.6661    0.0000 </r>
      </set>
      <set comment="kpoint 50">
       <r>  -13.9116    1.0000 </r>
       <r>  -12.1145    1.0000 </r>
       <r>   -6.6728    1.0000 </r>
       <r>   -5.5202    1.0000 </r>
       <r>   -4.4722    1.0000 </r>
       <r>   -0.2848    0.0000 </r>
       <r>    0.4499    0.0000 </r>
       <r>    1.1720    0.0000 </r>
       <r>    3.7429    0.0000 </r>
       <r>    5.1096    0.0000 </r>
       <r>    5.7433    0.0000 </r>
       <r>    6.1771    0.0000 </r>
      </set>
      <set comment="kpoint 51">
       <r>  -13.9116    1.0000 </r>
       <r>  -12.1145    1.0000 </r>
       <r>   -6.6728    1.0000 </r>
       <r>   -5.5202    1.0000 </r>
       <r>   -4.4722    1.0000 </r>
       <r>   -0.2848    0.0000 </r>
       <r>    0.4499    0.0000 </r>
       <r>    1.1720    0.0000 </r>
       <r>    3.7431    0.0000 </r>
       <r>    5.1144    0.0000 </r>
       <r>    5.7028    0.0000 </r>
       <r>    6.1521    0.0000 </r>
      </set>
      <set comment="kpoint 52">
       <r>  -14.5007    1.0000 </r>
       <r>  -11.4064    1.0000 </r>
       <r>   -6.4372    1.0000 </r>
       <r>   -6.1075    1.0000 </r>
       <r>   -3.8679    1.0000 </r>
       <r>   -0.1428    0.0000 </r>
       <r>    0.2295    0.0000 </r>
       <r>    1.8110    0.0000 </r>
       <r>    4.0828    0.0000 </r>
       <r>    4.1381    0.0000 </r>
       <r>    4.9494    0.0000 </r>
       <r>    5.4783    0.0000 </r>
      </set>
      <set comment="kpoint 53">
       <r>  -13.8945    1.0000 </r>
       <r>  -12.0319    1.0000 </r>
       <r>   -6.9289    1.0000 </r>
       <r>   -5.7042    1.0000 </r>
       <r>   -4.3171    1.0000 </r>
       <r>   -0.5698    0.0000 </r>
       <r>    0.7433    0.0000 </r>
       <r>    1.7001    0.0000 </r>
       <r>    4.4904    0.0000 </r>
       <r>    4.9526    0.0000 </r>
       <r>    5.3915    0.0000 </r>
       <r>    5.7142    0.0000 </r>
      </set>
      <set comment="kpoint 54">
       <r>  -13.8945    1.0000 </r>
       <r>  -12.0319    1.0000 </r>
       <r>   -6.9289    1.0000 </r>
       <r>   -5.7042    1.0000 </r>
       <r>   -4.3171    1.0000 </r>
       <r>   -0.5698    0.0000 </r>
       <r>    0.7433    0.0000 </r>
       <r>    1.7001    0.0000 </r>
       <r>    4.4947    0.0000 </r>
       <r>    4.9404    0.0000 </r>
       <r>    5.3795    0.0000 </r>
       <r>    5.7710    0.0000 </r>
      </set>
      <set comment="kpoint 55">
       <r>  -13.5110    1.0000 </r>
       <r>  -12.4277    1.0000 </r>
       <r>   -7.0974    1.0000 </r>
       <r>   -5.3889    1.0000 </r>
       <r>   -4.6478    1.0000 </r>
       <r>   -0.7223    0.0000 </r>
       <r>    1.2308    0.0000 </r>
       <r>    1.3269    0.0000 </r>
       <r>    4.4353    0.0000 </r>
       <r>    5.4514    0.0000 </r>
       <r>    5.9909    0.0000 </r>
       <r>    6.0430    0.0000 </r>
      </set>
      <set comment="kpoint 56">
       <r>  -13.2986    1.0000 </r>
       <r>  -12.5970    1.0000 </r>
       <r>   -7.2925    1.0000 </r>
       <r>   -5.2698    1.0000 </r>
       <r>   -4.7267    1.0000 </r>
       <r>   -0.9379    0.0000 </r>
       <r>    1.2815    0.0000 </r>
       <r>    1.6956    0.0000 </r>
       <r>    5.1337    0.0000 </r>
       <r>    5.5344    0.0000 </r>
       <r>    5.6315    0.0000 </r>
       <r>    6.1015    0.0000 </r>
      </set>
     </set>
    </set>
   </array>
  </eigenvalues>
  <separator name="orbital magnetization" >
   <v name="MAGDIPOLOUT">      0.00000000      0.00000000      0.00000000</v>
  </separator>
  <dos>
   <i name="efermi">     -2.97152457 </i>
   <total>
    <array>
     <dimension dim="1">gridpoints</dimension>
     <dimension dim="2">spin</dimension>
     <field>energy</field>
     <field>total</field>
     <field>integrated</field>
     <set>
      <set comment="spin 1">
       <r>   -17.6065     0.0000     0.0000 </r>
       <r>   -17.6024     0.0000     0.0000 </r>
       <r>   -17.5982     0.0000     0.0000 </r>
       <r>   -17.5941     0.0000     0.0000 </r>
       <r>   -17.5899     0.0000     0.0000 </r>
       <r>   -17.5858     0.0000     0.0000 </r>
       <r>   -17.5816     0.0000     0.0000 </r>
       <r>   -17.5775     0.0000     0.0000 </r>
       <r>   -17.5733     0.0000     0.0000 </r>
       <r>   -17.5692     0.0000     0.0000 </r>
       <r>   -17.5650     0.0000     0.0000 </r>
       <r>   -17.5609     0.0000     0.0000 </r>
       <r>   -17.5567     0.0000     0.0000 </r>
       <r>   -17.5526     0.0000     0.0000 </r>
       <r>   -17.5484     0.0000     0.0000 </r>
       <r>   -17.5442     0.0000     0.0000 </r>
       <r>   -17.5401     0.0000     0.0000 </r>
       <r>   -17.5359     0.0000     0.0000 </r>
       <r>   -17.5318     0.0000     0.0000 </r>
       <r>   -17.5276     0.0000     0.0000 </r>
       <r>   -17.5235     0.0000     0.0000 </r>
       <r>   -17.5193     0.0000     0.0000 </r>
       <r>   -17.5152     0.0000     0.0000 </r>
       <r>   -17.5110     0.0000     0.0000 </r>
       <r>   -17.5069     0.0000     0.0000 </r>
       <r>   -17.5027     0.0000     0.0000 </r>
       <r>   -17.4986     0.0000     0.0000 </r>
       <r>   -17.4944     0.0000     0.0000 </r>
       <r>   -17.4903     0.0000     0.0000 </r>
       <r>   -17.4861     0.0000     0.0000 </r>
       <r>   -17.4820     0.0000     0.0000 </r>
       <r>   -17.4778     0.0000     0.0000 </r>
       <r>   -17.4736     0.0000     0.0000 </r>
       <r>   -17.4695     0.0000     0.0000 </r>
       <r>   -17.4653     0.0000     0.0000 </r>
       <r>   -17.4612     0.0000     0.0000 </r>
       <r>   -17.4570     0.0000     0.0000 </r>
       <r>   -17.4529     0.0000     0.0000 </r>
       <r>   -17.4487     0.0000     0.0000 </r>
       <r>   -17.4446     0.0000     0.0000 </r>
       <r>   -17.4404     0.0000     0.0000 </r>
       <r>   -17.4363     0.0000     0.0000 </r>
       <r>   -17.4321     0.0000     0.0000 </r>
       <r>   -17.4280     0.0000     0.0000 </r>
       <r>   -17.4238     0.0000     0.0000 </r>
       <r>   -17.4197     0.0000     0.0000 </r>
       <r>   -17.4155     0.0000     0.0000 </r>
       <r>   -17.4114     0.0000     0.0000 </r>
       <r>   -17.4072     0.0000     0.0000 </r>
       <r>   -17.4030     0.0000     0.0000 </r>
       <r>   -17.3989     0.0000     0.0000 </r>
       <r>   -17.3947     0.0000     0.0000 </r>
       <r>   -17.3906     0.0000     0.0000 </r>
       <r>   -17.3864     0.0000     0.0000 </r>
       <r>   -17.3823     0.0000     0.0000 </r>
       <r>   -17.3781     0.0000     0.0000 </r>
       <r>   -17.3740     0.0000     0.0000 </r>
       <r>   -17.3698     0.0000     0.0000 </r>
       <r>   -17.3657     0.0000     0.0000 </r>
       <r>   -17.3615     0.0000     0.0000 </r>
       <r>   -17.3574     0.0000     0.0000 </r>
       <r>   -17.3532     0.0000     0.0000 </r>
       <r>   -17.3491     0.0000     0.0000 </r>
       <r>   -17.3449     0.0000     0.0000 </r>
       <r>   -17.3408     0.0000     0.0000 </r>
       <r>   -17.3366     0.0000     0.0000 </r>
       <r>   -17.3324     0.0000     0.0000 </r>
       <r>   -17.3283     0.0000     0.0000 </r>
       <r>   -17.3241     0.0000     0.0000 </r>
       <r>   -17.3200     0.0000     0.0000 </r>
       <r>   -17.3158     0.0000     0.0000 </r>
       <r>   -17.3117     0.0000     0.0000 </r>
       <r>   -17.3075     0.0000     0.0000 </r>
       <r>   -17.3034     0.0000     0.0000 </r>
       <r>   -17.2992     0.0000     0.0000 </r>
       <r>   -17.2951     0.0000     0.0000 </r>
       <r>   -17.2909     0.0000     0.0000 </r>
       <r>   -17.2868     0.0000     0.0000 </r>
       <r>   -17.2826     0.0000     0.0000 </r>
       <r>   -17.2785     0.0000     0.0000 </r>
       <r>   -17.2743     0.0000     0.0000 </r>
       <r>   -17.2702     0.0000     0.0000 </r>
       <r>   -17.2660     0.0000     0.0000 </r>
       <r>   -17.2618     0.0000     0.0000 </r>
       <r>   -17.2577     0.0000     0.0000 </r>
       <r>   -17.2535     0.0000     0.0000 </r>
       <r>   -17.2494     0.0000     0.0000 </r>
       <r>   -17.2452     0.0000     0.0000 </r>
       <r>   -17.2411     0.0000     0.0000 </r>
       <r>   -17.2369     0.0000     0.0000 </r>
       <r>   -17.2328     0.0000     0.0000 </r>
       <r>   -17.2286     0.0000     0.0000 </r>
       <r>   -17.2245     0.0000     0.0000 </r>
       <r>   -17.2203     0.0000     0.0000 </r>
       <r>   -17.2162     0.0000     0.0000 </r>
       <r>   -17.2120     0.0000     0.0000 </r>
       <r>   -17.2079     0.0000     0.0000 </r>
       <r>   -17.2037     0.0000     0.0000 </r>
       <r>   -17.1996     0.0000     0.0000 </r>
       <r>   -17.1954     0.0000     0.0000 </r>
       <r>   -17.1912     0.0000     0.0000 </r>
       <r>   -17.1871     0.0000     0.0000 </r>
       <r>   -17.1829     0.0000     0.0000 </r>
       <r>   -17.1788     0.0000     0.0000 </r>
       <r>   -17.1746     0.0000     0.0000 </r>
       <r>   -17.1705     0.0000     0.0000 </r>
       <r>   -17.1663     0.0000     0.0000 </r>
       <r>   -17.1622     0.0000     0.0000 </r>
       <r>   -17.1580     0.0000     0.0000 </r>
       <r>   -17.1539     0.0000     0.0000 </r>
       <r>   -17.1497     0.0000     0.0000 </r>
       <r>   -17.1456     0.0000     0.0000 </r>
       <r>   -17.1414     0.0000     0.0000 </r>
       <r>   -17.1373     0.0000     0.0000 </r>
       <r>   -17.1331     0.0000     0.0000 </r>
       <r>   -17.1290     0.0000     0.0000 </r>
       <r>   -17.1248     0.0000     0.0000 </r>
       <r>   -17.1206     0.0000     0.0000 </r>
       <r>   -17.1165     0.0000     0.0000 </r>
       <r>   -17.1123     0.0000     0.0000 </r>
       <r>   -17.1082     0.0000     0.0000 </r>
       <r>   -17.1040     0.0000     0.0000 </r>
       <r>   -17.0999     0.0000     0.0000 </r>
       <r>   -17.0957     0.0000     0.0000 </r>
       <r>   -17.0916     0.0000     0.0000 </r>
       <r>   -17.0874     0.0000     0.0000 </r>
       <r>   -17.0833     0.0000     0.0000 </r>
       <r>   -17.0791     0.0000     0.0000 </r>
       <r>   -17.0750     0.0000     0.0000 </r>
       <r>   -17.0708     0.0000     0.0000 </r>
       <r>   -17.0667     0.0000     0.0000 </r>
       <r>   -17.0625     0.0000     0.0000 </r>
       <r>   -17.0583     0.0000     0.0000 </r>
       <r>   -17.0542     0.0000     0.0000 </r>
       <r>   -17.0500     0.0000     0.0000 </r>
       <r>   -17.0459     0.0000     0.0000 </r>
       <r>   -17.0417     0.0000     0.0000 </r>
       <r>   -17.0376     0.0000     0.0000 </r>
       <r>   -17.0334     0.0000     0.0000 </r>
       <r>   -17.0293     0.0000     0.0000 </r>
       <r>   -17.0251     0.0000     0.0000 </r>
       <r>   -17.0210     0.0000     0.0000 </r>
       <r>   -17.0168     0.0000     0.0000 </r>
       <r>   -17.0127     0.0000     0.0000 </r>
       <r>   -17.0085     0.0000     0.0000 </r>
       <r>   -17.0044     0.0000     0.0000 </r>
       <r>   -17.0002     0.0000     0.0000 </r>
       <r>   -16.9961     0.0000     0.0000 </r>
       <r>   -16.9919     0.0000     0.0000 </r>
       <r>   -16.9877     0.0000     0.0000 </r>
       <r>   -16.9836     0.0000     0.0000 </r>
       <r>   -16.9794     0.0000     0.0000 </r>
       <r>   -16.9753     0.0000     0.0000 </r>
       <r>   -16.9711     0.0000     0.0000 </r>
       <r>   -16.9670     0.0000     0.0000 </r>
       <r>   -16.9628     0.0000     0.0000 </r>
       <r>   -16.9587     0.0000     0.0000 </r>
       <r>   -16.9545     0.0000     0.0000 </r>
       <r>   -16.9504     0.0000     0.0000 </r>
       <r>   -16.9462     0.0000     0.0000 </r>
       <r>   -16.9421     0.0000     0.0000 </r>
       <r>   -16.9379     0.0000     0.0000 </r>
       <r>   -16.9338     0.0000     0.0000 </r>
       <r>   -16.9296     0.0000     0.0000 </r>
       <r>   -16.9255     0.0000     0.0000 </r>
       <r>   -16.9213     0.0000     0.0000 </r>
       <r>   -16.9171     0.0000     0.0000 </r>
       <r>   -16.9130     0.0000     0.0000 </r>
       <r>   -16.9088     0.0000     0.0000 </r>
       <r>   -16.9047     0.0000     0.0000 </r>
       <r>   -16.9005     0.0000     0.0000 </r>
       <r>   -16.8964     0.0000     0.0000 </r>
       <r>   -16.8922     0.0000     0.0000 </r>
       <r>   -16.8881     0.0000     0.0000 </r>
       <r>   -16.8839     0.0000     0.0000 </r>
       <r>   -16.8798     0.0000     0.0000 </r>
       <r>   -16.8756     0.0000     0.0000 </r>
       <r>   -16.8715     0.0000     0.0000 </r>
       <r>   -16.8673     0.0000     0.0000 </r>
       <r>   -16.8632     0.0000     0.0000 </r>
       <r>   -16.8590     0.0000     0.0000 </r>
       <r>   -16.8549     0.0000     0.0000 </r>
       <r>   -16.8507     0.0000     0.0000 </r>
       <r>   -16.8465     0.0000     0.0000 </r>
       <r>   -16.8424     0.0000     0.0000 </r>
       <r>   -16.8382     0.0000     0.0000 </r>
       <r>   -16.8341     0.0000     0.0000 </r>
       <r>   -16.8299     0.0000     0.0000 </r>
       <r>   -16.8258     0.0000     0.0000 </r>
       <r>   -16.8216     0.0000     0.0000 </r>
       <r>   -16.8175     0.0000     0.0000 </r>
       <r>   -16.8133     0.0000     0.0000 </r>
       <r>   -16.8092     0.0000     0.0000 </r>
       <r>   -16.8050     0.0000     0.0000 </r>
       <r>   -16.8009     0.0000     0.0000 </r>
       <r>   -16.7967     0.0000     0.0000 </r>
       <r>   -16.7926     0.0000     0.0000 </r>
       <r>   -16.7884     0.0000     0.0000 </r>
       <r>   -16.7843     0.0000     0.0000 </r>
       <r>   -16.7801     0.0000     0.0000 </r>
       <r>   -16.7759     0.0000     0.0000 </r>
       <r>   -16.7718     0.0000     0.0000 </r>
       <r>   -16.7676     0.0000     0.0000 </r>
       <r>   -16.7635     0.0000     0.0000 </r>
       <r>   -16.7593     0.0000     0.0000 </r>
       <r>   -16.7552     0.0000     0.0000 </r>
       <r>   -16.7510     0.0000     0.0000 </r>
       <r>   -16.7469     0.0000     0.0000 </r>
       <r>   -16.7427     0.0000     0.0000 </r>
       <r>   -16.7386     0.0000     0.0000 </r>
       <r>   -16.7344     0.0000     0.0000 </r>
       <r>   -16.7303     0.0000     0.0000 </r>
       <r>   -16.7261     0.0000     0.0000 </r>
       <r>   -16.7220     0.0000     0.0000 </r>
       <r>   -16.7178     0.0000     0.0000 </r>
       <r>   -16.7137     0.0000     0.0000 </r>
       <r>   -16.7095     0.0000     0.0000 </r>
       <r>   -16.7053     0.0000     0.0000 </r>
       <r>   -16.7012     0.0000     0.0000 </r>
       <r>   -16.6970     0.0000     0.0000 </r>
       <r>   -16.6929     0.0000     0.0000 </r>
       <r>   -16.6887     0.0000     0.0000 </r>
       <r>   -16.6846     0.0000     0.0000 </r>
       <r>   -16.6804     0.0000     0.0000 </r>
       <r>   -16.6763     0.0000     0.0000 </r>
       <r>   -16.6721     0.0000     0.0000 </r>
       <r>   -16.6680     0.0000     0.0000 </r>
       <r>   -16.6638     0.0000     0.0000 </r>
       <r>   -16.6597     0.0000     0.0000 </r>
       <r>   -16.6555     0.0000     0.0000 </r>
       <r>   -16.6514     0.0000     0.0000 </r>
       <r>   -16.6472     0.0000     0.0000 </r>
       <r>   -16.6431     0.0000     0.0000 </r>
       <r>   -16.6389     0.0000     0.0000 </r>
       <r>   -16.6347     0.0000     0.0000 </r>
       <r>   -16.6306     0.0000     0.0000 </r>
       <r>   -16.6264     0.0000     0.0000 </r>
       <r>   -16.6223     0.0000     0.0000 </r>
       <r>   -16.6181     0.0000     0.0000 </r>
       <r>   -16.6140     0.0000     0.0000 </r>
       <r>   -16.6098     0.0000     0.0000 </r>
       <r>   -16.6057     0.0000     0.0000 </r>
       <r>   -16.6015     0.0000     0.0000 </r>
       <r>   -16.5974     0.0000     0.0000 </r>
       <r>   -16.5932     0.0000     0.0000 </r>
       <r>   -16.5891     0.0000     0.0000 </r>
       <r>   -16.5849     0.0000     0.0000 </r>
       <r>   -16.5808     0.0000     0.0000 </r>
       <r>   -16.5766     0.0000     0.0000 </r>
       <r>   -16.5725     0.0000     0.0000 </r>
       <r>   -16.5683     0.0000     0.0000 </r>
       <r>   -16.5641     0.0000     0.0000 </r>
       <r>   -16.5600     0.0000     0.0000 </r>
       <r>   -16.5558     0.0000     0.0000 </r>
       <r>   -16.5517     0.0000     0.0000 </r>
       <r>   -16.5475     0.0000     0.0000 </r>
       <r>   -16.5434     0.0000     0.0000 </r>
       <r>   -16.5392     0.0000     0.0000 </r>
       <r>   -16.5351     0.0000     0.0000 </r>
       <r>   -16.5309     0.0000     0.0000 </r>
       <r>   -16.5268     0.0000     0.0000 </r>
       <r>   -16.5226     0.0000     0.0000 </r>
       <r>   -16.5185     0.0000     0.0000 </r>
       <r>   -16.5143     0.0000     0.0000 </r>
       <r>   -16.5102     0.0000     0.0000 </r>
       <r>   -16.5060     0.0000     0.0000 </r>
       <r>   -16.5019     0.0001     0.0000 </r>
       <r>   -16.4977     0.0010     0.0000 </r>
       <r>   -16.4935     0.0067     0.0000 </r>
       <r>   -16.4894     0.0329     0.0002 </r>
       <r>   -16.4852     0.1148     0.0006 </r>
       <r>   -16.4811     0.2866     0.0018 </r>
       <r>   -16.4769     0.5114     0.0040 </r>
       <r>   -16.4728     0.6525     0.0067 </r>
       <r>   -16.4686     0.5956     0.0091 </r>
       <r>   -16.4645     0.3888     0.0108 </r>
       <r>   -16.4603     0.1815     0.0115 </r>
       <r>   -16.4562     0.0606     0.0118 </r>
       <r>   -16.4520     0.0144     0.0118 </r>
       <r>   -16.4479     0.0025     0.0118 </r>
       <r>   -16.4437     0.0003     0.0118 </r>
       <r>   -16.4396     0.0000     0.0118 </r>
       <r>   -16.4354     0.0000     0.0118 </r>
       <r>   -16.4313     0.0000     0.0118 </r>
       <r>   -16.4271     0.0001     0.0118 </r>
       <r>   -16.4229     0.0008     0.0118 </r>
       <r>   -16.4188     0.0076     0.0119 </r>
       <r>   -16.4146     0.0499     0.0121 </r>
       <r>   -16.4105     0.2341     0.0130 </r>
       <r>   -16.4063     0.7843     0.0163 </r>
       <r>   -16.4022     1.8787     0.0241 </r>
       <r>   -16.3980     3.2179     0.0375 </r>
       <r>   -16.3939     3.9419     0.0538 </r>
       <r>   -16.3897     3.4537     0.0682 </r>
       <r>   -16.3856     2.1641     0.0772 </r>
       <r>   -16.3814     0.9697     0.0812 </r>
       <r>   -16.3773     0.3106     0.0825 </r>
       <r>   -16.3731     0.0711     0.0828 </r>
       <r>   -16.3690     0.0116     0.0828 </r>
       <r>   -16.3648     0.0014     0.0828 </r>
       <r>   -16.3607     0.0001     0.0828 </r>
       <r>   -16.3565     0.0000     0.0828 </r>
       <r>   -16.3523     0.0000     0.0828 </r>
       <r>   -16.3482     0.0000     0.0828 </r>
       <r>   -16.3440     0.0000     0.0828 </r>
       <r>   -16.3399     0.0000     0.0828 </r>
       <r>   -16.3357     0.0000     0.0828 </r>
       <r>   -16.3316     0.0000     0.0828 </r>
       <r>   -16.3274     0.0000     0.0828 </r>
       <r>   -16.3233     0.0000     0.0828 </r>
       <r>   -16.3191     0.0000     0.0828 </r>
       <r>   -16.3150     0.0000     0.0828 </r>
       <r>   -16.3108     0.0000     0.0828 </r>
       <r>   -16.3067     0.0000     0.0828 </r>
       <r>   -16.3025     0.0000     0.0828 </r>
       <r>   -16.2984     0.0000     0.0828 </r>
       <r>   -16.2942     0.0000     0.0828 </r>
       <r>   -16.2901     0.0000     0.0828 </r>
       <r>   -16.2859     0.0000     0.0828 </r>
       <r>   -16.2817     0.0000     0.0828 </r>
       <r>   -16.2776     0.0000     0.0828 </r>
       <r>   -16.2734     0.0000     0.0828 </r>
       <r>   -16.2693     0.0002     0.0828 </r>
       <r>   -16.2651     0.0025     0.0829 </r>
       <r>   -16.2610     0.0192     0.0829 </r>
       <r>   -16.2568     0.1077     0.0834 </r>
       <r>   -16.2527     0.4312     0.0852 </r>
       <r>   -16.2485     1.2337     0.0903 </r>
       <r>   -16.2444     2.5235     0.1008 </r>
       <r>   -16.2402     3.6914     0.1161 </r>
       <r>   -16.2361     3.8620     0.1321 </r>
       <r>   -16.2319     2.8898     0.1441 </r>
       <r>   -16.2278     1.5464     0.1506 </r>
       <r>   -16.2236     0.5917     0.1530 </r>
       <r>   -16.2195     0.1618     0.1537 </r>
       <r>   -16.2153     0.0316     0.1538 </r>
       <r>   -16.2111     0.0044     0.1538 </r>
       <r>   -16.2070     0.0004     0.1538 </r>
       <r>   -16.2028     0.0000     0.1538 </r>
       <r>   -16.1987     0.0000     0.1538 </r>
       <r>   -16.1945     0.0000     0.1538 </r>
       <r>   -16.1904     0.0006     0.1538 </r>
       <r>   -16.1862     0.0054     0.1539 </r>
       <r>   -16.1821     0.0377     0.1540 </r>
       <r>   -16.1779     0.1865     0.1548 </r>
       <r>   -16.1738     0.6598     0.1575 </r>
       <r>   -16.1696     1.6687     0.1645 </r>
       <r>   -16.1655     3.0175     0.1770 </r>
       <r>   -16.1613     3.9023     0.1932 </r>
       <r>   -16.1572     3.6094     0.2082 </r>
       <r>   -16.1530     2.3877     0.2181 </r>
       <r>   -16.1489     1.1296     0.2228 </r>
       <r>   -16.1447     0.3820     0.2244 </r>
       <r>   -16.1405     0.0923     0.2248 </r>
       <r>   -16.1364     0.0159     0.2248 </r>
       <r>   -16.1322     0.0020     0.2249 </r>
       <r>   -16.1281     0.0002     0.2249 </r>
       <r>   -16.1239     0.0000     0.2249 </r>
       <r>   -16.1198     0.0000     0.2249 </r>
       <r>   -16.1156     0.0000     0.2249 </r>
       <r>   -16.1115     0.0000     0.2249 </r>
       <r>   -16.1073     0.0000     0.2249 </r>
       <r>   -16.1032     0.0000     0.2249 </r>
       <r>   -16.0990     0.0000     0.2249 </r>
       <r>   -16.0949     0.0000     0.2249 </r>
       <r>   -16.0907     0.0000     0.2249 </r>
       <r>   -16.0866     0.0000     0.2249 </r>
       <r>   -16.0824     0.0000     0.2249 </r>
       <r>   -16.0783     0.0000     0.2249 </r>
       <r>   -16.0741     0.0000     0.2249 </r>
       <r>   -16.0699     0.0000     0.2249 </r>
       <r>   -16.0658     0.0000     0.2249 </r>
       <r>   -16.0616     0.0000     0.2249 </r>
       <r>   -16.0575     0.0000     0.2249 </r>
       <r>   -16.0533     0.0000     0.2249 </r>
       <r>   -16.0492     0.0000     0.2249 </r>
       <r>   -16.0450     0.0000     0.2249 </r>
       <r>   -16.0409     0.0000     0.2249 </r>
       <r>   -16.0367     0.0000     0.2249 </r>
       <r>   -16.0326     0.0000     0.2249 </r>
       <r>   -16.0284     0.0000     0.2249 </r>
       <r>   -16.0243     0.0000     0.2249 </r>
       <r>   -16.0201     0.0000     0.2249 </r>
       <r>   -16.0160     0.0000     0.2249 </r>
       <r>   -16.0118     0.0000     0.2249 </r>
       <r>   -16.0077     0.0000     0.2249 </r>
       <r>   -16.0035     0.0000     0.2249 </r>
       <r>   -15.9993     0.0000     0.2249 </r>
       <r>   -15.9952     0.0000     0.2249 </r>
       <r>   -15.9910     0.0000     0.2249 </r>
       <r>   -15.9869     0.0000     0.2249 </r>
       <r>   -15.9827     0.0000     0.2249 </r>
       <r>   -15.9786     0.0000     0.2249 </r>
       <r>   -15.9744     0.0000     0.2249 </r>
       <r>   -15.9703     0.0000     0.2249 </r>
       <r>   -15.9661     0.0000     0.2249 </r>
       <r>   -15.9620     0.0004     0.2249 </r>
       <r>   -15.9578     0.0043     0.2249 </r>
       <r>   -15.9537     0.0345     0.2250 </r>
       <r>   -15.9495     0.1969     0.2258 </r>
       <r>   -15.9454     0.8035     0.2292 </r>
       <r>   -15.9412     2.3438     0.2389 </r>
       <r>   -15.9371     4.8877     0.2592 </r>
       <r>   -15.9329     7.2889     0.2895 </r>
       <r>   -15.9287     7.7742     0.3218 </r>
       <r>   -15.9246     5.9305     0.3464 </r>
       <r>   -15.9204     3.2355     0.3598 </r>
       <r>   -15.9163     1.2621     0.3651 </r>
       <r>   -15.9121     0.3519     0.3665 </r>
       <r>   -15.9080     0.0701     0.3668 </r>
       <r>   -15.9038     0.0100     0.3669 </r>
       <r>   -15.8997     0.0010     0.3669 </r>
       <r>   -15.8955     0.0001     0.3669 </r>
       <r>   -15.8914     0.0000     0.3669 </r>
       <r>   -15.8872     0.0000     0.3669 </r>
       <r>   -15.8831     0.0000     0.3669 </r>
       <r>   -15.8789     0.0000     0.3669 </r>
       <r>   -15.8748     0.0000     0.3669 </r>
       <r>   -15.8706     0.0000     0.3669 </r>
       <r>   -15.8665     0.0000     0.3669 </r>
       <r>   -15.8623     0.0000     0.3669 </r>
       <r>   -15.8581     0.0000     0.3669 </r>
       <r>   -15.8540     0.0000     0.3669 </r>
       <r>   -15.8498     0.0000     0.3669 </r>
       <r>   -15.8457     0.0000     0.3669 </r>
       <r>   -15.8415     0.0000     0.3669 </r>
       <r>   -15.8374     0.0000     0.3669 </r>
       <r>   -15.8332     0.0000     0.3669 </r>
       <r>   -15.8291     0.0000     0.3669 </r>
       <r>   -15.8249     0.0000     0.3669 </r>
       <r>   -15.8208     0.0000     0.3669 </r>
       <r>   -15.8166     0.0000     0.3669 </r>
       <r>   -15.8125     0.0001     0.3669 </r>
       <r>   -15.8083     0.0010     0.3669 </r>
       <r>   -15.8042     0.0088     0.3669 </r>
       <r>   -15.8000     0.0565     0.3671 </r>
       <r>   -15.7959     0.2586     0.3682 </r>
       <r>   -15.7917     0.8455     0.3717 </r>
       <r>   -15.7875     1.9763     0.3799 </r>
       <r>   -15.7834     3.3032     0.3937 </r>
       <r>   -15.7792     3.9485     0.4100 </r>
       <r>   -15.7751     3.3759     0.4241 </r>
       <r>   -15.7709     2.0642     0.4326 </r>
       <r>   -15.7668     0.9026     0.4364 </r>
       <r>   -15.7626     0.2821     0.4376 </r>
       <r>   -15.7585     0.0630     0.4378 </r>
       <r>   -15.7543     0.0101     0.4379 </r>
       <r>   -15.7502     0.0011     0.4379 </r>
[...]
        <r>  0.0000  0.0156  0.0558 </r>
       </set>
       <set comment="band 10">
        <r>  0.0108  0.0139  0.0079 </r>
        <r>  0.0108  0.0139  0.0079 </r>
       </set>
       <set comment="band 11">
        <r>  0.0077  0.0083  0.0104 </r>
        <r>  0.0077  0.0083  0.0104 </r>
       </set>
       <set comment="band 12">
        <r>  0.0014  0.0400  0.0057 </r>
        <r>  0.0014  0.0400  0.0057 </r>
       </set>
      </set>
      <set comment="kpoint 45">
       <set comment="band 1">
        <r>  0.2704  0.0169  0.0008 </r>
        <r>  0.2704  0.0169  0.0008 </r>
       </set>
       <set comment="band 2">
        <r>  0.3310  0.0157  0.0028 </r>
        <r>  0.3310  0.0157  0.0028 </r>
       </set>
       <set comment="band 3">
        <r>  0.0002  0.2027  0.0073 </r>
        <r>  0.0002  0.2027  0.0073 </r>
       </set>
       <set comment="band 4">
        <r>  0.0094  0.2228  0.0105 </r>
        <r>  0.0094  0.2228  0.0105 </r>
       </set>
       <set comment="band 5">
        <r>  0.0190  0.2206  0.0014 </r>
        <r>  0.0190  0.2206  0.0014 </r>
       </set>
       <set comment="band 6">
        <r>  0.0304  0.1849  0.0120 </r>
        <r>  0.0304  0.1849  0.0120 </r>
       </set>
       <set comment="band 7">
        <r>  0.0298  0.2243  0.0132 </r>
        <r>  0.0298  0.2243  0.0132 </r>
       </set>
       <set comment="band 8">
        <r>  0.0353  0.2184  0.0101 </r>
        <r>  0.0353  0.2184  0.0101 </r>
       </set>
       <set comment="band 9">
        <r>  0.0000  0.0267  0.0095 </r>
        <r>  0.0000  0.0267  0.0095 </r>
       </set>
       <set comment="band 10">
        <r>  0.0008  0.0375  0.0160 </r>
        <r>  0.0008  0.0375  0.0160 </r>
       </set>
       <set comment="band 11">
        <r>  0.0011  0.0114  0.0246 </r>
        <r>  0.0011  0.0114  0.0246 </r>
       </set>
       <set comment="band 12">
        <r>  0.0008  0.0124  0.0446 </r>
        <r>  0.0008  0.0124  0.0446 </r>
       </set>
      </set>
      <set comment="kpoint 46">
       <set comment="band 1">
        <r>  0.2734  0.0197  0.0013 </r>
        <r>  0.2734  0.0197  0.0013 </r>
       </set>
       <set comment="band 2">
        <r>  0.3276  0.0201  0.0036 </r>
        <r>  0.3276  0.0201  0.0036 </r>
       </set>
       <set comment="band 3">
        <r>  0.0085  0.1918  0.0049 </r>
        <r>  0.0085  0.1918  0.0049 </r>
       </set>
       <set comment="band 4">
        <r>  0.0095  0.2111  0.0091 </r>
        <r>  0.0095  0.2111  0.0091 </r>
       </set>
       <set comment="band 5">
        <r>  0.0286  0.2243  0.0012 </r>
        <r>  0.0286  0.2243  0.0012 </r>
       </set>
       <set comment="band 6">
        <r>  0.0257  0.1707  0.0141 </r>
        <r>  0.0257  0.1707  0.0141 </r>
       </set>
       <set comment="band 7">
        <r>  0.0103  0.2153  0.0143 </r>
        <r>  0.0103  0.2153  0.0143 </r>
       </set>
       <set comment="band 8">
        <r>  0.0376  0.2030  0.0174 </r>
        <r>  0.0376  0.2030  0.0174 </r>
       </set>
       <set comment="band 9">
        <r>  0.0022  0.0128  0.0100 </r>
        <r>  0.0022  0.0128  0.0100 </r>
       </set>
       <set comment="band 10">
        <r>  0.0009  0.0568  0.0235 </r>
        <r>  0.0009  0.0568  0.0235 </r>
       </set>
       <set comment="band 11">
        <r>  0.0000  0.0286  0.0337 </r>
        <r>  0.0000  0.0286  0.0337 </r>
       </set>
       <set comment="band 12">
        <r>  0.0037  0.0137  0.0199 </r>
        <r>  0.0037  0.0137  0.0199 </r>
       </set>
      </set>
      <set comment="kpoint 47">
       <set comment="band 1">
        <r>  0.2734  0.0197  0.0013 </r>
        <r>  0.2734  0.0197  0.0013 </r>
       </set>
       <set comment="band 2">
        <r>  0.3276  0.0201  0.0036 </r>
        <r>  0.3276  0.0201  0.0036 </r>
       </set>
       <set comment="band 3">
        <r>  0.0085  0.1918  0.0049 </r>
        <r>  0.0085  0.1918  0.0049 </r>
       </set>
       <set comment="band 4">
        <r>  0.0095  0.2111  0.0091 </r>
        <r>  0.0095  0.2111  0.0091 </r>
       </set>
       <set comment="band 5">
        <r>  0.0286  0.2243  0.0012 </r>
        <r>  0.0286  0.2243  0.0012 </r>
       </set>
       <set comment="band 6">
        <r>  0.0257  0.1707  0.0141 </r>
        <r>  0.0257  0.1707  0.0141 </r>
       </set>
       <set comment="band 7">
        <r>  0.0103  0.2153  0.0143 </r>
        <r>  0.0103  0.2153  0.0143 </r>
       </set>
       <set comment="band 8">
        <r>  0.0376  0.2031  0.0174 </r>
        <r>  0.0376  0.2031  0.0174 </r>
       </set>
       <set comment="band 9">
        <r>  0.0024  0.0130  0.0119 </r>
        <r>  0.0024  0.0130  0.0119 </r>
       </set>
       <set comment="band 10">
        <r>  0.0002  0.0615  0.0205 </r>
        <r>  0.0002  0.0615  0.0205 </r>
       </set>
       <set comment="band 11">
        <r>  0.0023  0.0152  0.0335 </r>
        <r>  0.0023  0.0152  0.0335 </r>
       </set>
       <set comment="band 12">
        <r>  0.0008  0.0227  0.0210 </r>
        <r>  0.0008  0.0227  0.0210 </r>
       </set>
      </set>
      <set comment="kpoint 48">
       <set comment="band 1">
        <r>  0.2792  0.0219  0.0019 </r>
        <r>  0.2792  0.0219  0.0019 </r>
       </set>
       <set comment="band 2">
        <r>  0.3093  0.0273  0.0037 </r>
        <r>  0.3093  0.0273  0.0037 </r>
       </set>
       <set comment="band 3">
        <r>  0.0298  0.1816  0.0044 </r>
        <r>  0.0298  0.1816  0.0044 </r>
       </set>
       <set comment="band 4">
        <r>  0.0078  0.2068  0.0069 </r>
        <r>  0.0078  0.2068  0.0069 </r>
       </set>
       <set comment="band 5">
        <r>  0.0356  0.2155  0.0015 </r>
        <r>  0.0356  0.2155  0.0015 </r>
       </set>
       <set comment="band 6">
        <r>  0.0144  0.1727  0.0161 </r>
        <r>  0.0144  0.1727  0.0161 </r>
       </set>
       <set comment="band 7">
        <r>  0.0116  0.1983  0.0174 </r>
        <r>  0.0116  0.1983  0.0174 </r>
       </set>
       <set comment="band 8">
        <r>  0.0289  0.1911  0.0206 </r>
        <r>  0.0289  0.1911  0.0206 </r>
       </set>
       <set comment="band 9">
        <r>  0.0001  0.0579  0.0462 </r>
        <r>  0.0001  0.0579  0.0462 </r>
       </set>
       <set comment="band 10">
        <r>  0.0047  0.0105  0.0078 </r>
        <r>  0.0047  0.0105  0.0078 </r>
       </set>
       <set comment="band 11">
        <r>  0.0004  0.0235  0.0179 </r>
        <r>  0.0004  0.0235  0.0179 </r>
       </set>
       <set comment="band 12">
        <r>  0.0046  0.0158  0.0123 </r>
        <r>  0.0046  0.0158  0.0123 </r>
       </set>
      </set>
      <set comment="kpoint 49">
       <set comment="band 1">
        <r>  0.2792  0.0219  0.0019 </r>
        <r>  0.2792  0.0219  0.0019 </r>
       </set>
       <set comment="band 2">
        <r>  0.3093  0.0273  0.0037 </r>
        <r>  0.3093  0.0273  0.0037 </r>
       </set>
       <set comment="band 3">
        <r>  0.0298  0.1816  0.0044 </r>
        <r>  0.0298  0.1816  0.0044 </r>
       </set>
       <set comment="band 4">
        <r>  0.0078  0.2068  0.0069 </r>
        <r>  0.0078  0.2068  0.0069 </r>
       </set>
       <set comment="band 5">
        <r>  0.0356  0.2155  0.0015 </r>
        <r>  0.0356  0.2155  0.0015 </r>
       </set>
       <set comment="band 6">
        <r>  0.0144  0.1727  0.0161 </r>
        <r>  0.0144  0.1727  0.0161 </r>
       </set>
       <set comment="band 7">
        <r>  0.0116  0.1983  0.0174 </r>
        <r>  0.0116  0.1983  0.0174 </r>
       </set>
       <set comment="band 8">
        <r>  0.0289  0.1911  0.0206 </r>
        <r>  0.0289  0.1911  0.0206 </r>
       </set>
       <set comment="band 9">
        <r>  0.0002  0.0554  0.0474 </r>
        <r>  0.0002  0.0554  0.0474 </r>
       </set>
       <set comment="band 10">
        <r>  0.0045  0.0144  0.0051 </r>
        <r>  0.0045  0.0144  0.0051 </r>
       </set>
       <set comment="band 11">
        <r>  0.0011  0.0191  0.0228 </r>
        <r>  0.0011  0.0191  0.0228 </r>
       </set>
       <set comment="band 12">
        <r>  0.0036  0.0211  0.0077 </r>
        <r>  0.0036  0.0211  0.0077 </r>
       </set>
      </set>
      <set comment="kpoint 50">
       <set comment="band 1">
        <r>  0.2886  0.0221  0.0026 </r>
        <r>  0.2886  0.0221  0.0026 </r>
       </set>
       <set comment="band 2">
        <r>  0.2899  0.0328  0.0033 </r>
        <r>  0.2899  0.0328  0.0033 </r>
       </set>
       <set comment="band 3">
        <r>  0.0373  0.1790  0.0046 </r>
        <r>  0.0373  0.1790  0.0046 </r>
       </set>
       <set comment="band 4">
        <r>  0.0161  0.2073  0.0054 </r>
        <r>  0.0161  0.2073  0.0054 </r>
       </set>
       <set comment="band 5">
        <r>  0.0367  0.2015  0.0017 </r>
        <r>  0.0367  0.2015  0.0017 </r>
       </set>
       <set comment="band 6">
        <r>  0.0023  0.1795  0.0174 </r>
        <r>  0.0023  0.1795  0.0174 </r>
       </set>
       <set comment="band 7">
        <r>  0.0286  0.1902  0.0215 </r>
        <r>  0.0286  0.1902  0.0215 </r>
       </set>
       <set comment="band 8">
        <r>  0.0155  0.1931  0.0169 </r>
        <r>  0.0155  0.1931  0.0169 </r>
       </set>
       <set comment="band 9">
        <r>  0.0005  0.0218  0.0597 </r>
        <r>  0.0005  0.0218  0.0597 </r>
       </set>
       <set comment="band 10">
        <r>  0.0056  0.0107  0.0093 </r>
        <r>  0.0056  0.0107  0.0093 </r>
       </set>
       <set comment="band 11">
        <r>  0.0004  0.0429  0.0094 </r>
        <r>  0.0004  0.0429  0.0094 </r>
       </set>
       <set comment="band 12">
        <r>  0.0052  0.0392  0.0298 </r>
        <r>  0.0052  0.0392  0.0298 </r>
       </set>
      </set>
      <set comment="kpoint 51">
       <set comment="band 1">
        <r>  0.2886  0.0221  0.0026 </r>
        <r>  0.2886  0.0221  0.0026 </r>
       </set>
       <set comment="band 2">
        <r>  0.2899  0.0328  0.0033 </r>
        <r>  0.2899  0.0328  0.0033 </r>
       </set>
       <set comment="band 3">
        <r>  0.0373  0.1790  0.0046 </r>
        <r>  0.0373  0.1790  0.0046 </r>
       </set>
       <set comment="band 4">
        <r>  0.0161  0.2073  0.0054 </r>
        <r>  0.0161  0.2073  0.0054 </r>
       </set>
       <set comment="band 5">
        <r>  0.0367  0.2015  0.0017 </r>
        <r>  0.0367  0.2015  0.0017 </r>
       </set>
       <set comment="band 6">
        <r>  0.0023  0.1795  0.0174 </r>
        <r>  0.0023  0.1795  0.0174 </r>
       </set>
       <set comment="band 7">
        <r>  0.0286  0.1902  0.0215 </r>
        <r>  0.0286  0.1902  0.0215 </r>
       </set>
       <set comment="band 8">
        <r>  0.0155  0.1931  0.0169 </r>
        <r>  0.0155  0.1931  0.0169 </r>
       </set>
       <set comment="band 9">
        <r>  0.0005  0.0218  0.0598 </r>
        <r>  0.0005  0.0218  0.0598 </r>
       </set>
       <set comment="band 10">
        <r>  0.0056  0.0110  0.0079 </r>
        <r>  0.0056  0.0110  0.0079 </r>
       </set>
       <set comment="band 11">
        <r>  0.0012  0.0394  0.0137 </r>
        <r>  0.0012  0.0394  0.0137 </r>
       </set>
       <set comment="band 12">
        <r>  0.0055  0.0347  0.0233 </r>
        <r>  0.0055  0.0347  0.0233 </r>
       </set>
      </set>
      <set comment="kpoint 52">
       <set comment="band 1">
        <r>  0.2779  0.0221  0.0018 </r>
        <r>  0.2779  0.0221  0.0018 </r>
       </set>
       <set comment="band 2">
        <r>  0.3179  0.0243  0.0038 </r>
        <r>  0.3179  0.0243  0.0038 </r>
       </set>
       <set comment="band 3">
        <r>  0.0104  0.1969  0.0078 </r>
        <r>  0.0104  0.1969  0.0078 </r>
       </set>
       <set comment="band 4">
        <r>  0.0192  0.1887  0.0036 </r>
        <r>  0.0192  0.1887  0.0036 </r>
       </set>
       <set comment="band 5">
        <r>  0.0354  0.2201  0.0014 </r>
        <r>  0.0354  0.2201  0.0014 </r>
       </set>
       <set comment="band 6">
        <r>  0.0039  0.1906  0.0159 </r>
        <r>  0.0039  0.1906  0.0159 </r>
       </set>
       <set comment="band 7">
        <r>  0.0203  0.1639  0.0151 </r>
        <r>  0.0203  0.1639  0.0151 </r>
       </set>
       <set comment="band 8">
        <r>  0.0385  0.2371  0.0111 </r>
        <r>  0.0385  0.2371  0.0111 </r>
       </set>
       <set comment="band 9">
        <r>  0.0018  0.0275  0.0158 </r>
        <r>  0.0018  0.0275  0.0158 </r>
       </set>
       <set comment="band 10">
        <r>  0.0011  0.0472  0.0368 </r>
        <r>  0.0011  0.0472  0.0368 </r>
       </set>
       <set comment="band 11">
        <r>  0.0007  0.0225  0.0350 </r>
        <r>  0.0007  0.0225  0.0350 </r>
       </set>
       <set comment="band 12">
        <r>  0.0047  0.0285  0.0510 </r>
        <r>  0.0047  0.0285  0.0510 </r>
       </set>
      </set>
      <set comment="kpoint 53">
       <set comment="band 1">
        <r>  0.2851  0.0237  0.0024 </r>
        <r>  0.2851  0.0237  0.0024 </r>
       </set>
       <set comment="band 2">
        <r>  0.3044  0.0276  0.0037 </r>
        <r>  0.3044  0.0276  0.0037 </r>
       </set>
       <set comment="band 3">
        <r>  0.0105  0.1895  0.0067 </r>
        <r>  0.0105  0.1895  0.0067 </r>
       </set>
       <set comment="band 4">
        <r>  0.0301  0.1907  0.0031 </r>
        <r>  0.0301  0.1907  0.0031 </r>
       </set>
       <set comment="band 5">
        <r>  0.0395  0.2094  0.0018 </r>
        <r>  0.0395  0.2094  0.0018 </r>
       </set>
       <set comment="band 6">
        <r>  0.0014  0.1754  0.0163 </r>
        <r>  0.0014  0.1754  0.0163 </r>
       </set>
       <set comment="band 7">
        <r>  0.0181  0.1741  0.0161 </r>
        <r>  0.0181  0.1741  0.0161 </r>
       </set>
       <set comment="band 8">
        <r>  0.0298  0.2258  0.0130 </r>
        <r>  0.0298  0.2258  0.0130 </r>
       </set>
       <set comment="band 9">
        <r>  0.0023  0.0464  0.0593 </r>
        <r>  0.0023  0.0464  0.0593 </r>
       </set>
       <set comment="band 10">
        <r>  0.0046  0.0157  0.0127 </r>
        <r>  0.0046  0.0157  0.0127 </r>
       </set>
       <set comment="band 11">
        <r>  0.0001  0.0384  0.0295 </r>
        <r>  0.0001  0.0384  0.0295 </r>
       </set>
       <set comment="band 12">
        <r>  0.0034  0.0492  0.0537 </r>
        <r>  0.0034  0.0492  0.0537 </r>
       </set>
      </set>
      <set comment="kpoint 54">
       <set comment="band 1">
        <r>  0.2851  0.0237  0.0024 </r>
        <r>  0.2851  0.0237  0.0024 </r>
       </set>
       <set comment="band 2">
        <r>  0.3044  0.0276  0.0037 </r>
        <r>  0.3044  0.0276  0.0037 </r>
       </set>
       <set comment="band 3">
        <r>  0.0105  0.1895  0.0067 </r>
        <r>  0.0105  0.1895  0.0067 </r>
       </set>
       <set comment="band 4">
        <r>  0.0301  0.1907  0.0031 </r>
        <r>  0.0301  0.1907  0.0031 </r>
       </set>
       <set comment="band 5">
        <r>  0.0395  0.2094  0.0018 </r>
        <r>  0.0395  0.2094  0.0018 </r>
       </set>
       <set comment="band 6">
        <r>  0.0014  0.1754  0.0163 </r>
        <r>  0.0014  0.1754  0.0163 </r>
       </set>
       <set comment="band 7">
        <r>  0.0181  0.1741  0.0161 </r>
        <r>  0.0181  0.1741  0.0161 </r>
       </set>
       <set comment="band 8">
        <r>  0.0298  0.2258  0.0130 </r>
        <r>  0.0298  0.2258  0.0130 </r>
       </set>
       <set comment="band 9">
        <r>  0.0022  0.0469  0.0609 </r>
        <r>  0.0022  0.0469  0.0609 </r>
       </set>
       <set comment="band 10">
        <r>  0.0048  0.0157  0.0083 </r>
        <r>  0.0048  0.0157  0.0083 </r>
       </set>
       <set comment="band 11">
        <r>  0.0003  0.0361  0.0354 </r>
        <r>  0.0003  0.0361  0.0354 </r>
       </set>
       <set comment="band 12">
        <r>  0.0024  0.0569  0.0583 </r>
        <r>  0.0024  0.0569  0.0583 </r>
       </set>
      </set>
      <set comment="kpoint 55">
       <set comment="band 1">
        <r>  0.2925  0.0235  0.0029 </r>
        <r>  0.2925  0.0235  0.0029 </r>
       </set>
       <set comment="band 2">
        <r>  0.2944  0.0296  0.0033 </r>
        <r>  0.2944  0.0296  0.0033 </r>
       </set>
       <set comment="band 3">
        <r>  0.0110  0.1870  0.0063 </r>
        <r>  0.0110  0.1870  0.0063 </r>
       </set>
       <set comment="band 4">
        <r>  0.0349  0.1961  0.0030 </r>
        <r>  0.0349  0.1961  0.0030 </r>
       </set>
       <set comment="band 5">
        <r>  0.0399  0.2002  0.0019 </r>
        <r>  0.0399  0.2002  0.0019 </r>
       </set>
       <set comment="band 6">
        <r>  0.0004  0.1714  0.0163 </r>
        <r>  0.0004  0.1714  0.0163 </r>
       </set>
       <set comment="band 7">
        <r>  0.0158  0.1841  0.0159 </r>
        <r>  0.0158  0.1841  0.0159 </r>
       </set>
       <set comment="band 8">
        <r>  0.0279  0.2116  0.0151 </r>
        <r>  0.0279  0.2116  0.0151 </r>
       </set>
       <set comment="band 9">
        <r>  0.0039  0.0325  0.0658 </r>
        <r>  0.0039  0.0325  0.0658 </r>
       </set>
       <set comment="band 10">
        <r>  0.0010  0.0354  0.0478 </r>
        <r>  0.0010  0.0354  0.0478 </r>
       </set>
       <set comment="band 11">
        <r>  0.0039  0.0089  0.0102 </r>
        <r>  0.0039  0.0089  0.0102 </r>
       </set>
       <set comment="band 12">
        <r>  0.0047  0.0250  0.0027 </r>
        <r>  0.0047  0.0250  0.0027 </r>
       </set>
      </set>
      <set comment="kpoint 56">
       <set comment="band 1">
        <r>  0.2922  0.0251  0.0030 </r>
        <r>  0.2922  0.0251  0.0030 </r>
       </set>
       <set comment="band 2">
        <r>  0.2993  0.0268  0.0034 </r>
        <r>  0.2993  0.0268  0.0034 </r>
       </set>
       <set comment="band 3">
        <r>  0.0016  0.1887  0.0065 </r>
        <r>  0.0016  0.1887  0.0065 </r>
       </set>
       <set comment="band 4">
        <r>  0.0396  0.1936  0.0024 </r>
        <r>  0.0396  0.1936  0.0024 </r>
       </set>
       <set comment="band 5">
        <r>  0.0420  0.2018  0.0020 </r>
        <r>  0.0420  0.2018  0.0020 </r>
       </set>
       <set comment="band 6">
        <r>  0.0003  0.1646  0.0159 </r>
        <r>  0.0003  0.1646  0.0159 </r>
       </set>
       <set comment="band 7">
        <r>  0.0178  0.1865  0.0154 </r>
        <r>  0.0178  0.1865  0.0154 </r>
       </set>
       <set comment="band 8">
        <r>  0.0233  0.2147  0.0126 </r>
        <r>  0.0233  0.2147  0.0126 </r>
       </set>
       <set comment="band 9">
        <r>  0.0000  0.0209  0.0504 </r>
        <r>  0.0000  0.0209  0.0504 </r>
       </set>
       <set comment="band 10">
        <r>  0.0115  0.0581  0.0368 </r>
        <r>  0.0115  0.0581  0.0368 </r>
       </set>
       <set comment="band 11">
        <r>  0.0038  0.0825  0.0538 </r>
        <r>  0.0038  0.0825  0.0538 </r>
       </set>
       <set comment="band 12">
        <r>  0.0001  0.0271  0.0289 </r>
        <r>  0.0001  0.0271  0.0289 </r>
       </set>
      </set>
     </set>
    </set>
   </array>
  </projected>
 </calculation>
 <structure name="finalpos" >
  <crystal>
   <varray name="basis" >
    <v>       3.60689254       0.00000000       0.00000000 </v>
    <v>      -1.80344627       3.12366057       0.00000000 </v>
    <v>       0.00000000       0.00000000      16.00000000 </v>
   </varray>
   <i name="volume">    180.26732792 </i>
   <varray name="rec_basis" >
    <v>       0.27724696       0.16006861       0.00000000 </v>
    <v>       0.00000000       0.32013722       0.00000000 </v>
    <v>       0.00000000       0.00000000       0.06250000 </v>
   </varray>
  </crystal>
  <varray name="positions" >
   <v>       0.66666667       0.33333333       0.45634314 </v>
   <v>       0.33333333       0.66666667       0.54365686 </v>
  </varray>
 </structure>
</modeling>
