   2   2   1   0
  0.1172237E+03  0.4113367E-09  0.4113367E-09  0.1600000E-08  0.1000000E-16
  1.000000000000000E-004
  CAR 
 unknown system                          
      8.19433733    -14.60044821 6001     -2.24187346      1.00000000
    -14.600  0.0000E+00  0.0000E+00
    -14.597  0.0000E+00  0.0000E+00
    -14.593  0.0000E+00  0.0000E+00
    -14.589  0.0000E+00  0.0000E+00
    -14.585  0.0000E+00  0.0000E+00
    -14.581  0.0000E+00  0.0000E+00
    -14.578  0.0000E+00  0.0000E+00
    -14.574  0.0000E+00  0.0000E+00
    -14.570  0.0000E+00  0.0000E+00
    -14.566  0.0000E+00  0.0000E+00
    -14.562  0.0000E+00  0.0000E+00
    -14.559  0.0000E+00  0.0000E+00
    -14.555  0.0000E+00  0.0000E+00
    -14.551  0.0000E+00  0.0000E+00
    -14.547  0.0000E+00  0.0000E+00
    -14.543  0.0000E+00  0.0000E+00
    -14.540  0.0000E+00  0.0000E+00
    -14.536  0.0000E+00  0.0000E+00
    -14.532  0.0000E+00  0.0000E+00
    -14.528  0.0000E+00  0.0000E+00
    -14.524  0.0000E+00  0.0000E+00
    -14.521  0.0000E+00  0.0000E+00
    -14.517  0.0000E+00  0.0000E+00
    -14.513  0.0000E+00  0.0000E+00
    -14.509  0.0000E+00  0.0000E+00
    -14.505  0.0000E+00  0.0000E+00
    -14.502  0.0000E+00  0.0000E+00
    -14.498  0.0000E+00  0.0000E+00
    -14.494  0.0000E+00  0.0000E+00
    -14.490  0.0000E+00  0.0000E+00
    -14.486  0.0000E+00  0.0000E+00
    -14.483  0.0000E+00  0.0000E+00
    -14.479  0.0000E+00  0.0000E+00
    -14.475  0.0000E+00  0.0000E+00
    -14.471  0.0000E+00  0.0000E+00
    -14.467  0.0000E+00  0.0000E+00
    -14.464  0.0000E+00  0.0000E+00
    -14.460  0.0000E+00  0.0000E+00
    -14.456  0.0000E+00  0.0000E+00
    -14.452  0.0000E+00  0.0000E+00
    -14.448  0.0000E+00  0.0000E+00
    -14.445  0.0000E+00  0.0000E+00
    -14.441  0.0000E+00  0.0000E+00
    -14.437  0.0000E+00  0.0000E+00
    -14.433  0.0000E+00  0.0000E+00
    -14.429  0.0000E+00  0.0000E+00
    -14.426  0.0000E+00  0.0000E+00
    -14.422  0.0000E+00  0.0000E+00
    -14.418  0.0000E+00  0.0000E+00
    -14.414  0.0000E+00  0.0000E+00
    -14.410  0.0000E+00  0.0000E+00
    -14.407  0.0000E+00  0.0000E+00
    -14.403  0.0000E+00  0.0000E+00
    -14.399  0.0000E+00  0.0000E+00
    -14.395  0.0000E+00  0.0000E+00
    -14.391  0.0000E+00  0.0000E+00
    -14.388  0.0000E+00  0.0000E+00
    -14.384  0.0000E+00  0.0000E+00
    -14.380  0.0000E+00  0.0000E+00
    -14.376  0.0000E+00  0.0000E+00
    -14.373  0.0000E+00  0.0000E+00
    -14.369  0.0000E+00  0.0000E+00
    -14.365  0.0000E+00  0.0000E+00
    -14.361  0.0000E+00  0.0000E+00
    -14.357  0.0000E+00  0.0000E+00
    -14.354  0.0000E+00  0.0000E+00
    -14.350  0.0000E+00  0.0000E+00
    -14.346  0.0000E+00  0.0000E+00
    -14.342  0.0000E+00  0.0000E+00
    -14.338  0.0000E+00  0.0000E+00
    -14.335  0.0000E+00  0.0000E+00
    -14.331  0.0000E+00  0.0000E+00
    -14.327  0.0000E+00  0.0000E+00
    -14.323  0.0000E+00  0.0000E+00
    -14.319  0.0000E+00  0.0000E+00
    -14.316  0.0000E+00  0.0000E+00
    -14.312  0.0000E+00  0.0000E+00
    -14.308  0.0000E+00  0.0000E+00
    -14.304  0.0000E+00  0.0000E+00
    -14.300  0.0000E+00  0.0000E+00
    -14.297  0.0000E+00  0.0000E+00
    -14.293  0.0000E+00  0.0000E+00
    -14.289  0.0000E+00  0.0000E+00
    -14.285  0.0000E+00  0.0000E+00
    -14.281  0.0000E+00  0.0000E+00
    -14.278  0.0000E+00  0.0000E+00
    -14.274  0.0000E+00  0.0000E+00
    -14.270  0.0000E+00  0.0000E+00
    -14.266  0.0000E+00  0.0000E+00
    -14.262  0.0000E+00  0.0000E+00
    -14.259  0.0000E+00  0.0000E+00
    -14.255  0.0000E+00  0.0000E+00
    -14.251  0.0000E+00  0.0000E+00
    -14.247  0.0000E+00  0.0000E+00
    -14.243  0.0000E+00  0.0000E+00
    -14.240  0.0000E+00  0.0000E+00
    -14.236  0.0000E+00  0.0000E+00
    -14.232  0.0000E+00  0.0000E+00
    -14.228  0.0000E+00  0.0000E+00
    -14.224  0.0000E+00  0.0000E+00
    -14.221  0.0000E+00  0.0000E+00
    -14.217  0.0000E+00  0.0000E+00
    -14.213  0.0000E+00  0.0000E+00
    -14.209  0.0000E+00  0.0000E+00
    -14.205  0.0000E+00  0.0000E+00
    -14.202  0.0000E+00  0.0000E+00
    -14.198  0.0000E+00  0.0000E+00
    -14.194  0.0000E+00  0.0000E+00
    -14.190  0.0000E+00  0.0000E+00
    -14.186  0.0000E+00  0.0000E+00
    -14.183  0.0000E+00  0.0000E+00
    -14.179  0.0000E+00  0.0000E+00
    -14.175  0.0000E+00  0.0000E+00
    -14.171  0.0000E+00  0.0000E+00
    -14.167  0.0000E+00  0.0000E+00
    -14.164  0.0000E+00  0.0000E+00
    -14.160  0.0000E+00  0.0000E+00
    -14.156  0.0000E+00  0.0000E+00
    -14.152  0.0000E+00  0.0000E+00
    -14.148  0.0000E+00  0.0000E+00
    -14.145  0.0000E+00  0.0000E+00
    -14.141  0.0000E+00  0.0000E+00
    -14.137  0.0000E+00  0.0000E+00
    -14.133  0.0000E+00  0.0000E+00
    -14.129  0.0000E+00  0.0000E+00
    -14.126  0.0000E+00  0.0000E+00
    -14.122  0.0000E+00  0.0000E+00
    -14.118  0.0000E+00  0.0000E+00
    -14.114  0.0000E+00  0.0000E+00
    -14.110  0.0000E+00  0.0000E+00
    -14.107  0.0000E+00  0.0000E+00
    -14.103  0.0000E+00  0.0000E+00
    -14.099  0.0000E+00  0.0000E+00
    -14.095  0.0000E+00  0.0000E+00
    -14.091  0.0000E+00  0.0000E+00
    -14.088  0.0000E+00  0.0000E+00
    -14.084  0.0000E+00  0.0000E+00
    -14.080  0.0000E+00  0.0000E+00
    -14.076  0.0000E+00  0.0000E+00
    -14.072  0.0000E+00  0.0000E+00
    -14.069  0.0000E+00  0.0000E+00
    -14.065  0.0000E+00  0.0000E+00
    -14.061  0.0000E+00  0.0000E+00
    -14.057  0.0000E+00  0.0000E+00
    -14.053  0.0000E+00  0.0000E+00
    -14.050  0.0000E+00  0.0000E+00
    -14.046  0.0000E+00  0.0000E+00
    -14.042  0.0000E+00  0.0000E+00
    -14.038  0.0000E+00  0.0000E+00
    -14.034  0.0000E+00  0.0000E+00
    -14.031  0.0000E+00  0.0000E+00
    -14.027  0.0000E+00  0.0000E+00
    -14.023  0.0000E+00  0.0000E+00
    -14.019  0.0000E+00  0.0000E+00
    -14.015  0.0000E+00  0.0000E+00
    -14.012  0.0000E+00  0.0000E+00
    -14.008  0.0000E+00  0.0000E+00
    -14.004  0.0000E+00  0.0000E+00
    -14.000  0.0000E+00  0.0000E+00
    -13.996  0.0000E+00  0.0000E+00
    -13.993  0.0000E+00  0.0000E+00
    -13.989  0.0000E+00  0.0000E+00
    -13.985  0.0000E+00  0.0000E+00
    -13.981  0.0000E+00  0.0000E+00
    -13.977  0.0000E+00  0.0000E+00
    -13.974  0.0000E+00  0.0000E+00
    -13.970  0.0000E+00  0.0000E+00
    -13.966  0.0000E+00  0.0000E+00
    -13.962  0.0000E+00  0.0000E+00
    -13.958  0.0000E+00  0.0000E+00
    -13.955  0.0000E+00  0.0000E+00
    -13.951  0.0000E+00  0.0000E+00
    -13.947  0.0000E+00  0.0000E+00
    -13.943  0.0000E+00  0.0000E+00
    -13.939  0.0000E+00  0.0000E+00
    -13.936  0.0000E+00  0.0000E+00
    -13.932  0.0000E+00  0.0000E+00
    -13.928  0.0000E+00  0.0000E+00
    -13.924  0.0000E+00  0.0000E+00
    -13.920  0.0000E+00  0.0000E+00
    -13.917  0.0000E+00  0.0000E+00
    -13.913  0.0000E+00  0.0000E+00
    -13.909  0.0000E+00  0.0000E+00
    -13.905  0.0000E+00  0.0000E+00
    -13.901  0.0000E+00  0.0000E+00
    -13.898  0.0000E+00  0.0000E+00
    -13.894  0.0000E+00  0.0000E+00
    -13.890  0.0000E+00  0.0000E+00
    -13.886  0.0000E+00  0.0000E+00
    -13.882  0.0000E+00  0.0000E+00
    -13.879  0.0000E+00  0.0000E+00
    -13.875  0.0000E+00  0.0000E+00
    -13.871  0.0000E+00  0.0000E+00
    -13.867  0.0000E+00  0.0000E+00
    -13.863  0.0000E+00  0.0000E+00
    -13.860  0.0000E+00  0.0000E+00
    -13.856  0.0000E+00  0.0000E+00
    -13.852  0.0000E+00  0.0000E+00
    -13.848  0.0000E+00  0.0000E+00
    -13.844  0.0000E+00  0.0000E+00
    -13.841  0.0000E+00  0.0000E+00
    -13.837  0.0000E+00  0.0000E+00
    -13.833  0.0000E+00  0.0000E+00
    -13.829  0.0000E+00  0.0000E+00
    -13.825  0.0000E+00  0.0000E+00
    -13.822  0.0000E+00  0.0000E+00
    -13.818  0.0000E+00  0.0000E+00
    -13.814  0.0000E+00  0.0000E+00
    -13.810  0.0000E+00  0.0000E+00
    -13.806  0.0000E+00  0.0000E+00
    -13.803  0.0000E+00  0.0000E+00
    -13.799  0.0000E+00  0.0000E+00
    -13.795  0.0000E+00  0.0000E+00
    -13.791  0.0000E+00  0.0000E+00
    -13.787  0.0000E+00  0.0000E+00
    -13.784  0.0000E+00  0.0000E+00
    -13.780  0.0000E+00  0.0000E+00
    -13.776  0.0000E+00  0.0000E+00
    -13.772  0.0000E+00  0.0000E+00
    -13.768  0.0000E+00  0.0000E+00
    -13.765  0.0000E+00  0.0000E+00
    -13.761  0.0000E+00  0.0000E+00
    -13.757  0.0000E+00  0.0000E+00
    -13.753  0.0000E+00  0.0000E+00
    -13.749  0.0000E+00  0.0000E+00
    -13.746  0.0000E+00  0.0000E+00
    -13.742  0.0000E+00  0.0000E+00
    -13.738  0.0000E+00  0.0000E+00
    -13.734  0.0000E+00  0.0000E+00
    -13.730  0.0000E+00  0.0000E+00
    -13.727  0.0000E+00  0.0000E+00
    -13.723  0.0000E+00  0.0000E+00
    -13.719  0.0000E+00  0.0000E+00
    -13.715  0.0000E+00  0.0000E+00
    -13.711  0.0000E+00  0.0000E+00
    -13.708  0.0000E+00  0.0000E+00
    -13.704  0.0000E+00  0.0000E+00
    -13.700  0.0000E+00  0.0000E+00
    -13.696  0.0000E+00  0.0000E+00
    -13.692  0.0000E+00  0.0000E+00
    -13.689  0.0000E+00  0.0000E+00
    -13.685  0.0000E+00  0.0000E+00
    -13.681  0.0000E+00  0.0000E+00
    -13.677  0.0000E+00  0.0000E+00
    -13.673  0.0000E+00  0.0000E+00
    -13.670  0.0000E+00  0.0000E+00
    -13.666  0.0000E+00  0.0000E+00
    -13.662  0.0000E+00  0.0000E+00
    -13.658  0.0000E+00  0.0000E+00
    -13.654  0.0000E+00  0.0000E+00
    -13.651  0.0000E+00  0.0000E+00
    -13.647  0.0000E+00  0.0000E+00
    -13.643  0.0000E+00  0.0000E+00
    -13.639  0.0000E+00  0.0000E+00
    -13.635  0.0000E+00  0.0000E+00
    -13.632  0.0000E+00  0.0000E+00
    -13.628  0.0000E+00  0.0000E+00
    -13.624  0.0000E+00  0.0000E+00
    -13.620  0.5555E-14  0.2110E-16
    -13.616  0.3509E-12  0.1354E-14
    -13.613  0.1710E-10  0.6633E-13
    -13.609  0.6267E-09  0.2447E-11
    -13.605  0.1727E-07  0.6808E-10
    -13.601  0.3584E-06  0.1430E-08
    -13.597  0.5597E-05  0.2269E-07
    -13.594  0.6582E-04  0.2727E-06
    -13.590  0.5830E-03  0.2488E-05
    -13.586  0.3892E-02  0.1727E-04
    -13.582  0.1958E-01  0.9165E-04
    -13.578  0.7425E-01  0.3737E-03
    -13.575  0.2123E+00  0.1180E-02
    -13.571  0.4580E+00  0.2921E-02
    -13.567  0.7453E+00  0.5752E-02
    -13.563  0.9148E+00  0.9227E-02
    -13.559  0.8471E+00  0.1245E-01
    -13.556  0.5918E+00  0.1469E-01
    -13.552  0.3119E+00  0.1588E-01
    -13.548  0.1240E+00  0.1635E-01
    -13.544  0.3716E-01  0.1649E-01
    -13.540  0.8400E-02  0.1652E-01
    -13.537  0.1431E-02  0.1653E-01
    -13.533  0.1837E-03  0.1653E-01
    -13.529  0.1777E-04  0.1653E-01
    -13.525  0.1295E-05  0.1653E-01
    -13.521  0.7342E-07  0.1653E-01
    -13.518  0.7189E-07  0.1653E-01
    -13.514  0.1484E-05  0.1653E-01
    -13.510  0.2402E-04  0.1653E-01
    -13.506  0.2929E-03  0.1653E-01
    -13.502  0.2690E-02  0.1654E-01
    -13.499  0.1862E-01  0.1661E-01
    -13.495  0.9709E-01  0.1698E-01
    -13.491  0.3818E+00  0.1843E-01
    -13.487  0.1132E+01  0.2273E-01
    -13.484  0.2531E+01  0.3235E-01
    -13.480  0.4269E+01  0.4856E-01
    -13.476  0.5431E+01  0.6920E-01
    -13.472  0.5214E+01  0.8901E-01
    -13.468  0.3776E+01  0.1033E+00
    -13.465  0.2063E+01  0.1112E+00
    -13.461  0.8500E+00  0.1144E+00
    -13.457  0.2642E+00  0.1154E+00
    -13.453  0.6190E-01  0.1157E+00
    -13.449  0.1093E-01  0.1157E+00
    -13.446  0.1455E-02  0.1157E+00
    -13.442  0.1460E-03  0.1157E+00
    -13.438  0.1102E-04  0.1157E+00
    -13.434  0.6270E-06  0.1157E+00
    -13.430  0.2684E-07  0.1157E+00
    -13.427  0.8645E-09  0.1157E+00
    -13.423  0.2094E-10  0.1157E+00
    -13.419  0.3826E-12  0.1157E+00
    -13.415  0.5796E-14  0.1157E+00
    -13.411  0.0000E+00  0.1157E+00
    -13.408  0.0000E+00  0.1157E+00
    -13.404  0.0000E+00  0.1157E+00
    -13.400  0.0000E+00  0.1157E+00
    -13.396  0.0000E+00  0.1157E+00
    -13.392  0.0000E+00  0.1157E+00
    -13.389  0.0000E+00  0.1157E+00
    -13.385  0.0000E+00  0.1157E+00
    -13.381  0.0000E+00  0.1157E+00
    -13.377  0.0000E+00  0.1157E+00
    -13.373  0.0000E+00  0.1157E+00
    -13.370  0.0000E+00  0.1157E+00
    -13.366  0.0000E+00  0.1157E+00
    -13.362  0.0000E+00  0.1157E+00
    -13.358  0.5651E-13  0.1157E+00
    -13.354  0.3452E-11  0.1157E+00
    -13.351  0.1624E-09  0.1157E+00
    -13.347  0.5745E-08  0.1157E+00
    -13.343  0.1529E-06  0.1157E+00
    -13.339  0.3063E-05  0.1157E+00
    -13.335  0.4619E-04  0.1157E+00
    -13.332  0.5246E-03  0.1157E+00
    -13.328  0.4488E-02  0.1157E+00
    -13.324  0.2893E-01  0.1158E+00
    -13.320  0.1406E+00  0.1164E+00
    -13.316  0.5148E+00  0.1183E+00
    -13.313  0.1422E+01  0.1237E+00
    -13.309  0.2963E+01  0.1350E+00
    -13.305  0.4656E+01  0.1527E+00
    -13.301  0.5520E+01  0.1736E+00
    -13.297  0.4938E+01  0.1924E+00
    -13.294  0.3332E+01  0.2051E+00
    -13.290  0.1696E+01  0.2115E+00
    -13.286  0.6511E+00  0.2140E+00
    -13.282  0.1885E+00  0.2147E+00
    -13.278  0.4115E-01  0.2148E+00
    -13.275  0.6771E-02  0.2149E+00
    -13.271  0.8396E-03  0.2149E+00
    -13.267  0.7842E-04  0.2149E+00
    -13.263  0.5517E-05  0.2149E+00
    -13.259  0.3127E-06  0.2149E+00
    -13.256  0.5027E-06  0.2149E+00
    -13.252  0.8835E-05  0.2149E+00
    -13.248  0.1197E-03  0.2149E+00
    -13.244  0.1221E-02  0.2149E+00
    -13.240  0.9386E-02  0.2149E+00
    -13.237  0.5437E-01  0.2151E+00
    -13.233  0.2374E+00  0.2160E+00
    -13.229  0.7815E+00  0.2190E+00
    -13.225  0.1940E+01  0.2264E+00
    -13.221  0.3633E+01  0.2402E+00
    -13.218  0.5133E+01  0.2597E+00
    -13.214  0.5471E+01  0.2805E+00
    -13.210  0.4399E+01  0.2972E+00
    -13.206  0.2668E+01  0.3073E+00
    -13.202  0.1221E+01  0.3119E+00
    -13.199  0.4212E+00  0.3135E+00
    -13.195  0.1096E+00  0.3140E+00
    -13.191  0.2150E-01  0.3140E+00
    -13.187  0.3179E-02  0.3140E+00
    -13.183  0.3542E-03  0.3140E+00
    -13.180  0.2972E-04  0.3140E+00
    -13.176  0.1878E-05  0.3140E+00
    -13.172  0.8933E-07  0.3140E+00
    -13.168  0.3198E-08  0.3140E+00
    -13.164  0.8612E-10  0.3140E+00
    -13.161  0.1742E-11  0.3140E+00
    -13.157  0.2898E-13  0.3140E+00
    -13.153  0.0000E+00  0.3140E+00
    -13.149  0.0000E+00  0.3140E+00
    -13.145  0.0000E+00  0.3140E+00
    -13.142  0.0000E+00  0.3140E+00
    -13.138  0.0000E+00  0.3140E+00
    -13.134  0.0000E+00  0.3140E+00
    -13.130  0.0000E+00  0.3140E+00
    -13.126  0.0000E+00  0.3140E+00
    -13.123  0.0000E+00  0.3140E+00
    -13.119  0.0000E+00  0.3140E+00
    -13.115  0.0000E+00  0.3140E+00
    -13.111  0.0000E+00  0.3140E+00
    -13.107  0.0000E+00  0.3140E+00
    -13.104  0.0000E+00  0.3140E+00
    -13.100  0.0000E+00  0.3140E+00
    -13.096  0.0000E+00  0.3140E+00
    -13.092  0.0000E+00  0.3140E+00
    -13.088  0.0000E+00  0.3140E+00
    -13.085  0.0000E+00  0.3140E+00
    -13.081  0.0000E+00  0.3140E+00
    -13.077  0.0000E+00  0.3140E+00
    -13.073  0.0000E+00  0.3140E+00
    -13.069  0.0000E+00  0.3140E+00
    -13.066  0.0000E+00  0.3140E+00
    -13.062  0.0000E+00  0.3140E+00
    -13.058  0.0000E+00  0.3140E+00
    -13.054  0.0000E+00  0.3140E+00
    -13.050  0.0000E+00  0.3140E+00
    -13.047  0.0000E+00  0.3140E+00
    -13.043  0.0000E+00  0.3140E+00
    -13.039  0.0000E+00  0.3140E+00
    -13.035  0.0000E+00  0.3140E+00
    -13.031  0.0000E+00  0.3140E+00
    -13.028  0.0000E+00  0.3140E+00
    -13.024  0.0000E+00  0.3140E+00
    -13.020  0.8694E-14  0.3140E+00
    -13.016  0.6260E-12  0.3140E+00
    -13.012  0.3478E-10  0.3140E+00
    -13.009  0.1455E-08  0.3140E+00
    -13.005  0.4580E-07  0.3140E+00
    -13.001  0.1085E-05  0.3140E+00
    -12.997  0.1934E-04  0.3140E+00
    -12.993  0.2595E-03  0.3141E+00
    -12.990  0.2623E-02  0.3141E+00
    -12.986  0.1998E-01  0.3141E+00
    -12.982  0.1146E+00  0.3146E+00
    -12.978  0.4959E+00  0.3165E+00
    -12.974  0.1618E+01  0.3226E+00
    -12.971  0.3979E+01  0.3377E+00
    -12.967  0.7383E+01  0.3658E+00
    -12.963  0.1033E+02  0.4050E+00
    -12.959  0.1091E+02  0.4465E+00
    -12.955  0.8693E+01  0.4795E+00
    -12.952  0.5224E+01  0.4994E+00
    -12.948  0.2368E+01  0.5083E+00
    -12.944  0.8097E+00  0.5114E+00
    -12.940  0.2087E+00  0.5122E+00
    -12.936  0.4057E-01  0.5124E+00
    -12.933  0.5943E-02  0.5124E+00
    -12.929  0.6560E-03  0.5124E+00
    -12.925  0.5454E-04  0.5124E+00
    -12.921  0.3414E-05  0.5124E+00
    -12.917  0.1609E-06  0.5124E+00
    -12.914  0.5706E-08  0.5124E+00
    -12.910  0.1522E-09  0.5124E+00
    -12.906  0.3055E-11  0.5124E+00
    -12.902  0.4637E-13  0.5124E+00
    -12.898  0.0000E+00  0.5124E+00
    -12.895  0.0000E+00  0.5124E+00
    -12.891  0.0000E+00  0.5124E+00
    -12.887  0.0000E+00  0.5124E+00
    -12.883  0.0000E+00  0.5124E+00
    -12.879  0.0000E+00  0.5124E+00
    -12.876  0.0000E+00  0.5124E+00
    -12.872  0.0000E+00  0.5124E+00
    -12.868  0.0000E+00  0.5124E+00
    -12.864  0.0000E+00  0.5124E+00
    -12.860  0.0000E+00  0.5124E+00
    -12.857  0.1449E-14  0.5124E+00
    -12.853  0.1246E-12  0.5124E+00
    -12.849  0.7390E-11  0.5124E+00
    -12.845  0.3291E-09  0.5124E+00
    -12.841  0.1103E-07  0.5124E+00
    -12.838  0.2779E-06  0.5124E+00
    -12.834  0.5271E-05  0.5124E+00
    -12.830  0.7528E-04  0.5124E+00
    -12.826  0.8096E-03  0.5124E+00
    -12.822  0.6560E-02  0.5124E+00
    -12.819  0.4005E-01  0.5126E+00
    -12.815  0.1843E+00  0.5133E+00
    -12.811  0.6395E+00  0.5157E+00
    -12.807  0.1673E+01  0.5221E+00
    -12.803  0.3303E+01  0.5346E+00
    -12.800  0.4917E+01  0.5533E+00
    -12.796  0.5523E+01  0.5743E+00
    -12.792  0.4680E+01  0.5921E+00
    -12.788  0.2991E+01  0.6034E+00
    -12.784  0.1442E+01  0.6089E+00
    -12.781  0.5246E+00  0.6109E+00
    -12.777  0.1439E+00  0.6114E+00
    -12.773  0.2975E-01  0.6116E+00
    -12.769  0.4636E-02  0.6116E+00
    -12.765  0.5445E-03  0.6116E+00
    -12.762  0.4817E-04  0.6116E+00
    -12.758  0.3209E-05  0.6116E+00
    -12.754  0.1609E-06  0.6116E+00
    -12.750  0.6074E-08  0.6116E+00
    -12.746  0.1725E-09  0.6116E+00
    -12.743  0.3686E-11  0.6116E+00
    -12.739  0.5796E-13  0.6116E+00
    -12.735  0.0000E+00  0.6116E+00
    -12.731  0.0000E+00  0.6116E+00
    -12.727  0.0000E+00  0.6116E+00
    -12.724  0.0000E+00  0.6116E+00
    -12.720  0.0000E+00  0.6116E+00
    -12.716  0.0000E+00  0.6116E+00
    -12.712  0.0000E+00  0.6116E+00
    -12.708  0.0000E+00  0.6116E+00
    -12.705  0.0000E+00  0.6116E+00
    -12.701  0.0000E+00  0.6116E+00
    -12.697  0.0000E+00  0.6116E+00
    -12.693  0.0000E+00  0.6116E+00
    -12.689  0.0000E+00  0.6116E+00
    -12.686  0.0000E+00  0.6116E+00
    -12.682  0.0000E+00  0.6116E+00
    -12.678  0.0000E+00  0.6116E+00
    -12.674  0.0000E+00  0.6116E+00
    -12.670  0.0000E+00  0.6116E+00
    -12.667  0.0000E+00  0.6116E+00
    -12.663  0.0000E+00  0.6116E+00
    -12.659  0.0000E+00  0.6116E+00
    -12.655  0.0000E+00  0.6116E+00
    -12.651  0.0000E+00  0.6116E+00
    -12.648  0.0000E+00  0.6116E+00
    -12.644  0.0000E+00  0.6116E+00
    -12.640  0.0000E+00  0.6116E+00
    -12.636  0.0000E+00  0.6116E+00
    -12.632  0.0000E+00  0.6116E+00
    -12.629  0.0000E+00  0.6116E+00
    -12.625  0.0000E+00  0.6116E+00
    -12.621  0.0000E+00  0.6116E+00
    -12.617  0.0000E+00  0.6116E+00
    -12.614  0.0000E+00  0.6116E+00
    -12.610  0.4347E-14  0.6116E+00
    -12.606  0.3087E-12  0.6116E+00
    -12.602  0.1717E-10  0.6116E+00
    -12.598  0.7189E-09  0.6116E+00
    -12.595  0.2265E-07  0.6116E+00
    -12.591  0.5369E-06  0.6116E+00
    -12.587  0.9579E-05  0.6116E+00
    -12.583  0.1287E-03  0.6116E+00
    -12.579  0.1302E-02  0.6116E+00
    -12.576  0.9925E-02  0.6116E+00
    -12.572  0.5701E-01  0.6118E+00
    -12.568  0.2469E+00  0.6128E+00
    -12.564  0.8060E+00  0.6158E+00
    -12.560  0.1984E+01  0.6234E+00
    -12.557  0.3685E+01  0.6374E+00
    -12.553  0.5163E+01  0.6570E+00
    -12.549  0.5457E+01  0.6777E+00
    -12.545  0.4352E+01  0.6943E+00
    -12.541  0.2618E+01  0.7042E+00
    -12.538  0.1188E+01  0.7087E+00
    -12.534  0.4065E+00  0.7103E+00
    -12.530  0.1049E+00  0.7107E+00
    -12.526  0.2041E-01  0.7107E+00
    -12.522  0.2992E-02  0.7107E+00
    -12.519  0.3307E-03  0.7107E+00
    -12.515  0.3064E-04  0.7107E+00
    -12.511  0.5212E-04  0.7107E+00
    -12.507  0.6114E-03  0.7107E+00
    -12.503  0.5586E-02  0.7108E+00
    -12.500  0.3846E-01  0.7109E+00
    -12.496  0.1996E+00  0.7117E+00
    -12.492  0.7806E+00  0.7146E+00
    -12.488  0.2303E+01  0.7234E+00
    -12.484  0.5123E+01  0.7428E+00
    -12.481  0.8596E+01  0.7755E+00
    -12.477  0.1088E+02  0.8168E+00
    -12.473  0.1039E+02  0.8563E+00
    -12.469  0.7488E+01  0.8848E+00
    -12.465  0.4070E+01  0.9002E+00
    -12.462  0.1669E+01  0.9066E+00
    -12.458  0.5159E+00  0.9085E+00
    -12.454  0.1203E+00  0.9090E+00
    -12.450  0.2114E-01  0.9091E+00
    -12.446  0.2799E-02  0.9091E+00
    -12.443  0.2793E-03  0.9091E+00
    -12.439  0.2099E-04  0.9091E+00
    -12.435  0.1187E-05  0.9091E+00
    -12.431  0.5057E-07  0.9091E+00
    -12.427  0.1620E-08  0.9091E+00
    -12.424  0.3906E-10  0.9091E+00
    -12.420  0.7072E-12  0.9091E+00
    -12.416  0.1159E-13  0.9091E+00
    -12.412  0.0000E+00  0.9091E+00
    -12.408  0.0000E+00  0.9091E+00
    -12.405  0.0000E+00  0.9091E+00
    -12.401  0.0000E+00  0.9091E+00
    -12.397  0.0000E+00  0.9091E+00
    -12.393  0.0000E+00  0.9091E+00
    -12.389  0.0000E+00  0.9091E+00
    -12.386  0.0000E+00  0.9091E+00
    -12.382  0.0000E+00  0.9091E+00
    -12.378  0.0000E+00  0.9091E+00
    -12.374  0.0000E+00  0.9091E+00
    -12.370  0.0000E+00  0.9091E+00
    -12.367  0.0000E+00  0.9091E+00
    -12.363  0.0000E+00  0.9091E+00
    -12.359  0.0000E+00  0.9091E+00
    -12.355  0.0000E+00  0.9091E+00
    -12.351  0.0000E+00  0.9091E+00
    -12.348  0.0000E+00  0.9091E+00
    -12.344  0.0000E+00  0.9091E+00
    -12.340  0.0000E+00  0.9091E+00
    -12.336  0.0000E+00  0.9091E+00
    -12.332  0.0000E+00  0.9091E+00
    -12.329  0.0000E+00  0.9091E+00
    -12.325  0.0000E+00  0.9091E+00
    -12.321  0.0000E+00  0.9091E+00
    -12.317  0.4347E-14  0.9091E+00
    -12.313  0.2681E-12  0.9091E+00
    -12.310  0.1513E-10  0.9091E+00
    -12.306  0.6397E-09  0.9091E+00
    -12.302  0.2034E-07  0.9091E+00
    -12.298  0.4866E-06  0.9091E+00
    -12.294  0.8763E-05  0.9091E+00
    -12.291  0.1188E-03  0.9091E+00
    -12.287  0.1213E-02  0.9091E+00
    -12.283  0.9332E-02  0.9091E+00
    -12.279  0.5410E-01  0.9093E+00
    -12.275  0.2364E+00  0.9102E+00
    -12.272  0.7790E+00  0.9132E+00
    -12.268  0.1936E+01  0.9205E+00
    -12.264  0.3628E+01  0.9343E+00
    -12.260  0.5130E+01  0.9538E+00
    -12.256  0.5472E+01  0.9746E+00
    -12.253  0.4403E+01  0.9913E+00
    -12.249  0.2673E+01  0.1001E+01
    -12.245  0.1224E+01  0.1006E+01
    -12.241  0.4228E+00  0.1008E+01
    -12.237  0.1101E+00  0.1008E+01
    -12.234  0.2162E-01  0.1008E+01
    -12.230  0.3199E-02  0.1008E+01
    -12.226  0.3567E-03  0.1008E+01
    -12.222  0.2996E-04  0.1008E+01
    -12.218  0.1894E-05  0.1008E+01
    -12.215  0.9019E-07  0.1008E+01
    -12.211  0.3231E-08  0.1008E+01
    -12.207  0.8710E-10  0.1008E+01
    -12.203  0.1762E-11  0.1008E+01
    -12.199  0.2898E-13  0.1008E+01
    -12.196  0.0000E+00  0.1008E+01
    -12.192  0.0000E+00  0.1008E+01
    -12.188  0.0000E+00  0.1008E+01
    -12.184  0.0000E+00  0.1008E+01
    -12.180  0.0000E+00  0.1008E+01
    -12.177  0.0000E+00  0.1008E+01
    -12.173  0.0000E+00  0.1008E+01
    -12.169  0.0000E+00  0.1008E+01
    -12.165  0.0000E+00  0.1008E+01
    -12.161  0.0000E+00  0.1008E+01
    -12.158  0.0000E+00  0.1008E+01
    -12.154  0.0000E+00  0.1008E+01
    -12.150  0.0000E+00  0.1008E+01
    -12.146  0.0000E+00  0.1008E+01
    -12.142  0.0000E+00  0.1008E+01
    -12.139  0.0000E+00  0.1008E+01
    -12.135  0.0000E+00  0.1008E+01
    -12.131  0.0000E+00  0.1008E+01
    -12.127  0.0000E+00  0.1008E+01
    -12.123  0.0000E+00  0.1008E+01
    -12.120  0.0000E+00  0.1008E+01
    -12.116  0.0000E+00  0.1008E+01
    -12.112  0.0000E+00  0.1008E+01
    -12.108  0.0000E+00  0.1008E+01
    -12.104  0.0000E+00  0.1008E+01
    -12.101  0.0000E+00  0.1008E+01
    -12.097  0.0000E+00  0.1008E+01
    -12.093  0.0000E+00  0.1008E+01
    -12.089  0.0000E+00  0.1008E+01
    -12.085  0.0000E+00  0.1008E+01
    -12.082  0.0000E+00  0.1008E+01
    -12.078  0.2898E-14  0.1008E+01
    -12.074  0.2550E-12  0.1008E+01
    -12.070  0.1503E-10  0.1008E+01
    -12.066  0.6687E-09  0.1008E+01
    -12.063  0.2237E-07  0.1008E+01
    -12.059  0.5632E-06  0.1008E+01
    -12.055  0.1067E-04  0.1008E+01
    -12.051  0.1522E-03  0.1008E+01
    -12.047  0.1635E-02  0.1008E+01
    -12.044  0.1323E-01  0.1008E+01
    -12.040  0.8068E-01  0.1009E+01
    -12.036  0.3708E+00  0.1010E+01
    -12.032  0.1285E+01  0.1015E+01
    -12.028  0.3359E+01  0.1028E+01
    -12.025  0.6621E+01  0.1053E+01
    -12.021  0.9845E+01  0.1090E+01
    -12.017  0.1104E+02  0.1132E+01
    -12.013  0.9347E+01  0.1168E+01
    -12.009  0.5968E+01  0.1190E+01
    -12.006  0.2874E+01  0.1201E+01
    -12.002  0.1044E+01  0.1205E+01
    -11.998  0.2860E+00  0.1206E+01
    -11.994  0.5906E-01  0.1207E+01
    -11.990  0.9193E-02  0.1207E+01
    -11.987  0.1078E-02  0.1207E+01
    -11.983  0.9527E-04  0.1207E+01
    -11.979  0.6339E-05  0.1207E+01
    -11.975  0.3175E-06  0.1207E+01
    -11.971  0.1197E-07  0.1207E+01
    -11.968  0.3554E-09  0.1207E+01
    -11.964  0.7142E-09  0.1207E+01
    -11.960  0.2355E-07  0.1207E+01
    -11.956  0.5903E-06  0.1207E+01
    -11.952  0.1113E-04  0.1207E+01
    -11.949  0.1581E-03  0.1207E+01
    -11.945  0.1691E-02  0.1207E+01
    -11.941  0.1363E-01  0.1207E+01
    -11.937  0.8275E-01  0.1207E+01
    -11.933  0.3787E+00  0.1208E+01
    -11.930  0.1307E+01  0.1213E+01
    -11.926  0.3401E+01  0.1226E+01
    -11.922  0.6675E+01  0.1252E+01
    -11.918  0.9883E+01  0.1289E+01
    -11.914  0.1104E+02  0.1331E+01
    -11.911  0.9303E+01  0.1366E+01
    -11.907  0.5914E+01  0.1389E+01
    -11.903  0.2836E+01  0.1400E+01
    -11.899  0.1026E+01  0.1404E+01
    -11.895  0.2798E+00  0.1405E+01
    -11.892  0.5753E-01  0.1405E+01
    -11.888  0.8917E-02  0.1405E+01
    -11.884  0.1041E-02  0.1405E+01
    -11.880  0.9161E-04  0.1405E+01
    -11.876  0.6069E-05  0.1405E+01
    -11.873  0.3027E-06  0.1405E+01
    -11.869  0.1136E-07  0.1405E+01
    -11.865  0.3208E-09  0.1405E+01
    -11.861  0.6811E-11  0.1405E+01
    -11.857  0.1101E-12  0.1405E+01
    -11.854  0.0000E+00  0.1405E+01
    -11.850  0.0000E+00  0.1405E+01
    -11.846  0.0000E+00  0.1405E+01
    -11.842  0.0000E+00  0.1405E+01
    -11.838  0.0000E+00  0.1405E+01
    -11.835  0.0000E+00  0.1405E+01
    -11.831  0.0000E+00  0.1405E+01
    -11.827  0.0000E+00  0.1405E+01
    -11.823  0.0000E+00  0.1405E+01
    -11.819  0.0000E+00  0.1405E+01
    -11.816  0.0000E+00  0.1405E+01
    -11.812  0.0000E+00  0.1405E+01
    -11.808  0.0000E+00  0.1405E+01
    -11.804  0.1449E-14  0.1405E+01
    -11.800  0.1275E-12  0.1405E+01
    -11.797  0.7560E-11  0.1405E+01
    -11.793  0.3361E-09  0.1405E+01
    -11.789  0.1124E-07  0.1405E+01
    -11.785  0.2828E-06  0.1405E+01
    -11.781  0.5356E-05  0.1405E+01
    -11.778  0.7637E-04  0.1405E+01
    -11.774  0.8201E-03  0.1405E+01
    -11.770  0.6634E-02  0.1405E+01
    -11.766  0.4044E-01  0.1405E+01
    -11.762  0.1858E+00  0.1406E+01
    -11.759  0.6436E+00  0.1408E+01
    -11.755  0.1681E+01  0.1415E+01
    -11.751  0.3313E+01  0.1427E+01
    -11.747  0.4924E+01  0.1446E+01
    -11.744  0.5522E+01  0.1467E+01
    -11.740  0.4671E+01  0.1485E+01
    -11.736  0.2981E+01  0.1496E+01
    -11.732  0.1435E+01  0.1501E+01
    -11.728  0.5212E+00  0.1503E+01
    -11.725  0.1427E+00  0.1504E+01
    -11.721  0.2946E-01  0.1504E+01
    -11.717  0.4584E-02  0.1504E+01
    -11.713  0.5374E-03  0.1504E+01
    -11.709  0.4746E-04  0.1504E+01
    -11.706  0.3157E-05  0.1504E+01
    -11.702  0.1580E-06  0.1504E+01
    -11.698  0.5956E-08  0.1504E+01
    -11.694  0.1688E-09  0.1504E+01
    -11.690  0.3600E-11  0.1504E+01
    -11.687  0.5796E-13  0.1504E+01
    -11.683  0.0000E+00  0.1504E+01
    -11.679  0.0000E+00  0.1504E+01
    -11.675  0.0000E+00  0.1504E+01
    -11.671  0.0000E+00  0.1504E+01
    -11.668  0.0000E+00  0.1504E+01
    -11.664  0.0000E+00  0.1504E+01
    -11.660  0.0000E+00  0.1504E+01
    -11.656  0.0000E+00  0.1504E+01
    -11.652  0.0000E+00  0.1504E+01
    -11.649  0.0000E+00  0.1504E+01
    -11.645  0.0000E+00  0.1504E+01
    -11.641  0.0000E+00  0.1504E+01
    -11.637  0.1449E-14  0.1504E+01
    -11.633  0.1478E-12  0.1504E+01
    -11.630  0.8642E-11  0.1504E+01
    -11.626  0.3805E-09  0.1504E+01
    -11.622  0.1260E-07  0.1504E+01
    -11.618  0.3141E-06  0.1504E+01
    -11.614  0.5891E-05  0.1504E+01
    -11.611  0.8318E-04  0.1504E+01
    -11.607  0.8846E-03  0.1504E+01
    -11.603  0.7087E-02  0.1504E+01
    -11.599  0.4279E-01  0.1504E+01
    -11.595  0.1947E+00  0.1505E+01
    -11.592  0.6681E+00  0.1508E+01
    -11.588  0.1729E+01  0.1514E+01
    -11.584  0.3374E+01  0.1527E+01
    -11.580  0.4966E+01  0.1546E+01
    -11.576  0.5516E+01  0.1567E+01
    -11.573  0.4622E+01  0.1584E+01
    -11.569  0.2922E+01  0.1595E+01
    -11.565  0.1393E+01  0.1601E+01
    -11.561  0.5010E+00  0.1603E+01
    -11.557  0.1359E+00  0.1603E+01
    -11.554  0.2778E-01  0.1603E+01
    -11.550  0.4281E-02  0.1603E+01
    -11.546  0.4971E-03  0.1603E+01
    -11.542  0.4348E-04  0.1603E+01
    -11.538  0.2864E-05  0.1603E+01
    -11.535  0.1431E-06  0.1603E+01
    -11.531  0.3882E-07  0.1603E+01
    -11.527  0.8155E-06  0.1603E+01
    -11.523  0.1493E-04  0.1603E+01
    -11.519  0.2058E-03  0.1603E+01
    -11.516  0.2136E-02  0.1603E+01
    -11.512  0.1670E-01  0.1603E+01
    -11.508  0.9845E-01  0.1604E+01
    -11.504  0.4374E+00  0.1605E+01
    -11.500  0.1465E+01  0.1611E+01
    -11.497  0.3701E+01  0.1625E+01
    -11.493  0.7053E+01  0.1652E+01
    -11.489  0.1015E+02  0.1690E+01
    -11.485  0.1109E+02  0.1733E+01
    -11.481  0.9389E+01  0.1768E+01
    -11.478  0.6723E+01  0.1794E+01
    -11.474  0.5182E+01  0.1813E+01
    -11.470  0.5242E+01  0.1833E+01
    -11.466  0.5693E+01  0.1855E+01