       N       E                     dE             d eps       ncg     rms          rms(c)
DAV:   1     0.175314404541E+02    0.17531E+02   -0.20687E+03   544   0.192E+02
DAV:   2    -0.780669094837E+01   -0.25338E+02   -0.24492E+02   784   0.431E+01
DAV:   3    -0.816390196717E+01   -0.35721E+00   -0.35721E+00   640   0.742E+00
DAV:   4    -0.816625316879E+01   -0.23512E-02   -0.23512E-02   880   0.692E-01
DAV:   5    -0.816625463777E+01   -0.14690E-05   -0.14690E-05   656   0.162E-02
DAV:   6    -0.816625466615E+01   -0.28374E-07   -0.28269E-07   912   0.168E-03
DAV:   7    -0.816625466616E+01   -0.13529E-10   -0.14951E-10   736   0.368E-05
DAV:   8    -0.816625466616E+01    0.00000E+00   -0.64610E-12   848   0.375E-06
DAV:   9    -0.816625466616E+01    0.00000E+00   -0.19301E-12   512   0.435E-07
DAV:  10    -0.816625466616E+01    0.11369E-12   -0.13913E-12   416   0.246E-07
DAV:  11    -0.816625466616E+01   -0.11369E-12    0.20071E-12   320   0.157E-07
DAV:  12    -0.816625466616E+01    0.00000E+00    0.36826E-13   304   0.107E-07    0.159E+00
DAV:  13    -0.815096158529E+01    0.15293E-01   -0.35416E-03   656   0.186E-01    0.141E+00
DAV:  14    -0.812116127829E+01    0.29800E-01   -0.16734E-01   768   0.110E+00    0.213E-01
DAV:  15    -0.811766948058E+01    0.34918E-02   -0.12818E-02   736   0.341E-01    0.751E-02
DAV:  16    -0.811736622580E+01    0.30325E-03   -0.23267E-03   816   0.141E-01    0.459E-02
DAV:  17    -0.811726978107E+01    0.96445E-04   -0.58714E-04   720   0.738E-02    0.232E-02
DAV:  18    -0.811727518587E+01   -0.54048E-05   -0.10184E-04   640   0.337E-02    0.488E-03
DAV:  19    -0.811727489504E+01    0.29082E-06   -0.26651E-06   656   0.716E-03
   1 F= -.81172749E+01 E0= -.81172749E+01  d E =-.275497E-11
 Linear response reoptimize wavefunctions
DAV:   1    -0.811727493422E+01   -0.39173E-07   -0.16963E-06   560   0.466E-03
DAV:   2    -0.811727493847E+01   -0.42518E-08   -0.42515E-08   864   0.850E-04
DAV:   3    -0.811727493847E+01   -0.51159E-11   -0.54646E-11   608   0.262E-05
 Linear response DOF=           2
 Linear response progress:
  Degree of freedom:   1/  2
       N       E                     dE             d eps       ncg     rms          rms(c)
RMM:   1    -0.232733173287E-01   -0.23273E-01   -0.11656E+00  2133   0.950E+00
RMM:   2    -0.239946820771E-01   -0.72136E-03   -0.40376E-03  3119   0.255E-01    0.415E-02
RMM:   3    -0.240097534027E-01   -0.15071E-04   -0.10921E-04  2996   0.509E-02    0.357E-02
RMM:   4    -0.239603127616E-01    0.49441E-04   -0.32364E-05  3124   0.231E-02    0.100E-02
RMM:   5    -0.239578477439E-01    0.24650E-05   -0.30375E-06  3247   0.889E-03    0.480E-03
RMM:   6    -0.239527011409E-01    0.51466E-05   -0.19269E-06  3253   0.475E-03    0.115E-03
RMM:   7    -0.239511693268E-01    0.15318E-05   -0.13423E-07  3806   0.150E-03    0.752E-04
RMM:   8    -0.239462641780E-01    0.49051E-05   -0.25711E-08  3378   0.762E-04    0.212E-04
RMM:   9    -0.239447944568E-01    0.14697E-05   -0.29049E-09  3527   0.292E-04    0.704E-05
RMM:  10    -0.239446959853E-01    0.98472E-07    0.26696E-10  3916   0.692E-05    0.580E-05
 Linear response progress:
  Degree of freedom:   2/  2
       N       E                     dE             d eps       ncg     rms          rms(c)
RMM:   1    -0.406622423406E-01   -0.40662E-01   -0.13171E+00   551   0.965E+00
RMM:   2    -0.407972061507E-01   -0.13496E-03   -0.44343E-03   836   0.265E-01    0.516E-02
RMM:   3    -0.407454171876E-01    0.51789E-04   -0.11967E-04   772   0.560E-02    0.440E-02
RMM:   4    -0.404635829206E-01    0.28183E-03   -0.18000E-04   819   0.452E-02    0.197E-02
RMM:   5    -0.404152853171E-01    0.48298E-04   -0.25739E-05   881   0.199E-02    0.127E-02
RMM:   6    -0.404122565880E-01    0.30287E-05   -0.34410E-06   893   0.862E-03    0.771E-03
RMM:   7    -0.404284405037E-01   -0.16184E-04   -0.42101E-06   986   0.844E-03    0.217E-03
RMM:   8    -0.404324644001E-01   -0.40239E-05   -0.27474E-07   926   0.224E-03    0.165E-03
RMM:   9    -0.404315771849E-01    0.88722E-06   -0.22911E-07   871   0.214E-03    0.327E-04
 Linear response finished
