PROCAR new format
# of k-points:   16         # of bands:   16         # of ions:    2

 k-point     1 :    0.00000000 0.00000000 0.00000000     weight = 0.00826446

band     1 # energy  -13.56432159 # occ.  2.00000000
 
ion      s      p      d      f    tot
    1  0.335  0.015  0.000  0.001  0.351
    2  0.335  0.015  0.000  0.001  0.351
tot    0.670  0.030  0.000  0.001  0.702
 
band     2 # energy   -8.59153198 # occ.  2.00000000
 
ion      s      p      d      f    tot
    1  0.356  0.031  0.001  0.000  0.388
    2  0.356  0.031  0.001  0.000  0.388
tot    0.711  0.062  0.002  0.001  0.776
 
band     3 # energy   -2.89066867 # occ.  2.00000000
 
ion      s      p      d      f    tot
    1  0.008  0.269  0.003  0.002  0.282
    2  0.008  0.269  0.003  0.002  0.282
tot    0.016  0.537  0.006  0.004  0.564
 
band     4 # energy   -2.28347795 # occ.  2.00000000
 
ion      s      p      d      f    tot
    1  0.000  0.382  0.024  0.005  0.411
    2  0.000  0.382  0.024  0.005  0.411
tot    0.000  0.764  0.048  0.009  0.821
 
band     5 # energy   -2.28347768 # occ.  2.00000000
 
ion      s      p      d      f    tot
    1  0.000  0.382  0.024  0.005  0.411
    2  0.000  0.382  0.024  0.005  0.411
tot    0.000  0.764  0.048  0.009  0.821
 
band     6 # energy   -0.71679259 # occ.  0.00000000
 
ion      s      p      d      f    tot
    1  0.146  0.163  0.018  0.007  0.334
    2  0.146  0.163  0.018  0.007  0.334
tot    0.291  0.326  0.036  0.015  0.668
 
band     7 # energy    0.50673011 # occ.  0.00000000
 
ion      s      p      d      f    tot
    1  0.000  0.340  0.030  0.005  0.375
    2  0.000  0.340  0.030  0.005  0.375
tot    0.000  0.681  0.059  0.011  0.751
 
band     8 # energy    0.50673038 # occ.  0.00000000
 
ion      s      p      d      f    tot
    1  0.000  0.340  0.030  0.005  0.375
    2  0.000  0.340  0.030  0.005  0.375
tot    0.000  0.681  0.059  0.011  0.751
 
band     9 # energy    2.08893379 # occ.  0.00000000
 
ion      s      p      d      f    tot
    1  0.000  0.015  0.027  0.001  0.043
    2  0.000  0.015  0.027  0.001  0.043
tot    0.000  0.030  0.054  0.002  0.086
 
band    10 # energy    2.16726769 # occ.  0.00000000
 
ion      s      p      d      f    tot
    1  0.007  0.024  0.000  0.000  0.032
    2  0.007  0.024  0.000  0.000  0.032
tot    0.014  0.049  0.000  0.000  0.064
 
band    11 # energy    3.62737695 # occ.  0.00000000
 
ion      s      p      d      f    tot
    1  0.025  0.036  0.000  0.000  0.061
    2  0.025  0.036  0.000  0.000  0.061
tot    0.050  0.073  0.000  0.000  0.122
 
band    12 # energy    4.52776188 # occ.  0.00000000
 
ion      s      p      d      f    tot
    1  0.003  0.000  0.041  0.001  0.045
    2  0.003  0.000  0.041  0.001  0.045
tot    0.005  0.000  0.083  0.001  0.089
 
band    13 # energy    4.84590654 # occ.  0.00000000
 
ion      s      p      d      f    tot
    1  0.066  0.001  0.024  0.024  0.115
    2  0.066  0.001  0.024  0.024  0.115
tot    0.132  0.002  0.048  0.049  0.230
 
band    14 # energy    5.88500639 # occ.  0.00000000
 
ion      s      p      d      f    tot
    1  0.000  0.040  0.180  0.006  0.226
    2  0.000  0.040  0.180  0.006  0.226
tot    0.000  0.079  0.360  0.012  0.452
 
band    15 # energy    5.88500642 # occ.  0.00000000
 
ion      s      p      d      f    tot
    1  0.000  0.040  0.180  0.006  0.226
    2  0.000  0.040  0.180  0.006  0.226
tot    0.000  0.079  0.360  0.012  0.452
 
band    16 # energy    6.49642185 # occ.  0.00000000
 
ion      s      p      d      f    tot
    1  0.018  0.039  0.005  0.024  0.086
    2  0.018  0.039  0.005  0.024  0.086
tot    0.036  0.079  0.010  0.048  0.172
 

 k-point     2 :    0.09090909 0.00000000 0.00000000     weight = 0.04958678

band     1 # energy  -13.47645670 # occ.  2.00000000
 
ion      s      p      d      f    tot
    1  0.335  0.016  0.000  0.001  0.353
    2  0.335  0.016  0.000  0.001  0.353
tot    0.671  0.032  0.001  0.001  0.705
 
band     2 # energy   -8.58874971 # occ.  2.00000000
 
ion      s      p      d      f    tot
    1  0.364  0.029  0.002  0.000  0.394
    2  0.364  0.029  0.002  0.000  0.394
tot    0.727  0.057  0.003  0.001  0.788
 
band     3 # energy   -3.10890870 # occ.  2.00000000
 
ion      s      p      d      f    tot
    1  0.021  0.319  0.023  0.004  0.367
    2  0.021  0.319  0.023  0.004  0.367
tot    0.043  0.638  0.047  0.007  0.735
 
band     4 # energy   -2.85264045 # occ.  2.00000000
 
ion      s      p      d      f    tot
    1  0.010  0.273  0.003  0.002  0.288
    2  0.010  0.273  0.003  0.002  0.288
tot    0.019  0.546  0.006  0.004  0.575
 
band     5 # energy   -2.48244136 # occ.  2.00000000
 
ion      s      p      d      f    tot
    1  0.000  0.373  0.024  0.004  0.401
    2  0.000  0.373  0.024  0.004  0.401
tot    0.000  0.745  0.047  0.009  0.801
 
band     6 # energy   -0.19596150 # occ.  0.00000000
 
ion      s      p      d      f    tot
    1  0.089  0.229  0.020  0.007  0.345
    2  0.089  0.229  0.020  0.007  0.345
tot    0.178  0.458  0.041  0.014  0.690
 
band     7 # energy    0.43525594 # occ.  0.00000000
 
ion      s      p      d      f    tot
    1  0.039  0.300  0.019  0.007  0.364
    2  0.039  0.300  0.019  0.007  0.364
tot    0.078  0.599  0.038  0.013  0.728
 
band     8 # energy    0.69780179 # occ.  0.00000000
 
ion      s      p      d      f    tot
    1  0.000  0.354  0.026  0.006  0.386
    2  0.000  0.354  0.026  0.006  0.386
tot    0.000  0.709  0.052  0.012  0.773
 
band     9 # energy    2.20776290 # occ.  0.00000000
 
ion      s      p      d      f    tot
    1  0.000  0.023  0.026  0.002  0.051
    2  0.000  0.023  0.026  0.002  0.051
tot    0.001  0.046  0.053  0.003  0.103
 
band    10 # energy    2.26926199 # occ.  0.00000000
 
ion      s      p      d      f    tot
    1  0.004  0.028  0.002  0.001  0.035
    2  0.004  0.028  0.002  0.001  0.035
tot    0.009  0.056  0.004  0.001  0.070
 
band    11 # energy    3.70757976 # occ.  0.00000000
 
ion      s      p      d      f    tot
    1  0.014  0.039  0.008  0.001  0.062
    2  0.014  0.039  0.008  0.001  0.062
tot    0.028  0.078  0.016  0.002  0.124
 
band    12 # energy    4.62410573 # occ.  0.00000000
 
ion      s      p      d      f    tot
    1  0.003  0.001  0.042  0.001  0.047
    2  0.003  0.001  0.042  0.001  0.047
tot    0.005  0.001  0.085  0.002  0.093
 
band    13 # energy    4.87292073 # occ.  0.00000000
 
ion      s      p      d      f    tot
    1  0.014  0.046  0.089  0.019  0.168
    2  0.014  0.046  0.089  0.019  0.168
tot    0.027  0.093  0.178  0.039  0.337
 
band    14 # energy    5.56706186 # occ.  0.00000000
 
ion      s      p      d      f    tot
    1  0.060  0.008  0.055  0.011  0.134
    2  0.060  0.008  0.055  0.011  0.134
tot    0.120  0.016  0.110  0.023  0.269
 
band    15 # energy    5.80300379 # occ.  0.00000000
 
ion      s      p      d      f    tot
    1  0.000  0.023  0.183  0.008  0.214
    2  0.000  0.023  0.183  0.008  0.214
tot    0.000  0.047  0.366  0.016  0.428
 
band    16 # energy    6.21492981 # occ.  0.00000000
 
ion      s      p      d      f    tot
    1  0.005  0.101  0.092  0.007  0.204
    2  0.005  0.101  0.092  0.007  0.204
tot    0.010  0.202  0.183  0.013  0.409
 

 k-point     3 :    0.18181818 0.00000000 0.00000000     weight = 0.04958678

band     1 # energy  -13.21670592 # occ.  2.00000000
 
ion      s      p      d      f    tot
    1  0.336  0.019  0.001  0.001  0.357
    2  0.336  0.019  0.001  0.001  0.357
tot    0.672  0.038  0.002  0.001  0.714
 
band     2 # energy   -8.62946246 # occ.  2.00000000
 
ion      s      p      d      f    tot
    1  0.385  0.022  0.003  0.001  0.411
    2  0.385  0.022  0.003  0.001  0.411
tot    0.770  0.045  0.006  0.001  0.822
 
band     3 # energy   -4.25454112 # occ.  2.00000000
 
ion      s      p      d      f    tot
    1  0.012  0.290  0.019  0.002  0.323
    2  0.012  0.290  0.019  0.002  0.323
tot    0.023  0.580  0.039  0.004  0.645
 
band     4 # energy   -2.90591374 # occ.  2.00000000
 
ion      s      p      d      f    tot
    1  0.000  0.358  0.022  0.004  0.384
    2  0.000  0.358  0.022  0.004  0.384
tot    0.000  0.717  0.044  0.007  0.768
 
band     5 # energy   -2.78720836 # occ.  2.00000000
 
ion      s      p      d      f    tot
    1  0.016  0.286  0.003  0.002  0.306
    2  0.016  0.286  0.003  0.002  0.306
tot    0.032  0.571  0.006  0.003  0.613
 
band     6 # energy   -0.60400962 # occ.  0.00000000
 
ion      s      p      d      f    tot
    1  0.051  0.224  0.025  0.005  0.305
    2  0.051  0.224  0.025  0.005  0.305
tot    0.102  0.448  0.050  0.010  0.611
 
band     7 # energy    1.04082958 # occ.  0.00000000
 
ion      s      p      d      f    tot
    1  0.000  0.372  0.020  0.006  0.398
    2  0.000  0.372  0.020  0.006  0.398
tot    0.000  0.745  0.040  0.011  0.796
 
band     8 # energy    1.08527132 # occ.  0.00000000
 
ion      s      p      d      f    tot
    1  0.065  0.259  0.008  0.007  0.340
    2  0.065  0.259  0.008  0.007  0.340
tot    0.131  0.518  0.016  0.014  0.679
 
band     9 # energy    2.44145367 # occ.  0.00000000
 
ion      s      p      d      f    tot
    1  0.001  0.021  0.024  0.002  0.048
    2  0.001  0.021  0.024  0.002  0.048
tot    0.003  0.042  0.049  0.003  0.097
 
band    10 # energy    2.59401550 # occ.  0.00000000
 
ion      s      p      d      f    tot
    1  0.002  0.049  0.008  0.002  0.060
    2  0.002  0.049  0.008  0.002  0.060
tot    0.003  0.098  0.016  0.004  0.120
 
band    11 # energy    3.76641508 # occ.  0.00000000
 
ion      s      p      d      f    tot
    1  0.006  0.046  0.043  0.006  0.101
    2  0.006  0.046  0.043  0.006  0.101
tot    0.013  0.092  0.086  0.012  0.202
 
band    12 # energy    4.51495483 # occ.  0.00000000
 
ion      s      p      d      f    tot
    1  0.014  0.036  0.061  0.007  0.118
    2  0.014  0.036  0.061  0.007  0.118
tot    0.029  0.072  0.122  0.014  0.236
 
band    13 # energy    4.95578192 # occ.  0.00000000
 
ion      s      p      d      f    tot
    1  0.001  0.005  0.058  0.004  0.068
    2  0.001  0.005  0.058  0.004  0.068
tot    0.001  0.010  0.116  0.009  0.136
 
band    14 # energy    5.46205738 # occ.  0.00000000
 
ion      s      p      d      f    tot
    1  0.016  0.057  0.087  0.003  0.164
    2  0.016  0.057  0.087  0.003  0.164
tot    0.032  0.115  0.175  0.007  0.328
 
band    15 # energy    5.91113049 # occ.  0.00000000
 
ion      s      p      d      f    tot
    1  0.000  0.006  0.187  0.014  0.206
    2  0.000  0.006  0.187  0.014  0.206
tot    0.000  0.012  0.373  0.028  0.413
 
band    16 # energy    6.59616541 # occ.  0.00000000
 
ion      s      p      d      f    tot
    1  0.044  0.094  0.031  0.011  0.180
    2  0.044  0.094  0.031  0.011  0.180
tot    0.087  0.188  0.062  0.023  0.360
 

 k-point     4 :    0.27272727 0.00000000 0.00000000     weight = 0.04958678

band     1 # energy  -12.79809428 # occ.  2.00000000
 
ion      s      p      d      f    tot
    1  0.338  0.023  0.002  0.001  0.364
    2  0.338  0.023  0.002  0.001  0.364
tot    0.677  0.046  0.004  0.001  0.729
 
band     2 # energy   -8.85926194 # occ.  2.00000000
 
ion      s      p      d      f    tot
    1  0.401  0.021  0.006  0.001  0.428
    2  0.401  0.021  0.006  0.001  0.428
tot    0.801  0.042  0.011  0.002  0.856
 
band     3 # energy   -5.05620469 # occ.  2.00000000
 
ion      s      p      d      f    tot
    1  0.003  0.273  0.012  0.001  0.289
    2  0.003  0.273  0.012  0.001  0.289
tot    0.005  0.546  0.025  0.002  0.578
 
band     4 # energy   -3.33005990 # occ.  2.00000000
 
ion      s      p      d      f    tot
    1  0.000  0.348  0.019  0.003  0.371
    2  0.000  0.348  0.019  0.003  0.371
tot    0.000  0.697  0.038  0.007  0.742
 
band     5 # energy   -2.87606120 # occ.  2.00000000
 
ion      s      p      d      f    tot
    1  0.033  0.295  0.002  0.002  0.332
    2  0.033  0.295  0.002  0.002  0.332
tot    0.066  0.591  0.004  0.003  0.663
 
band     6 # energy   -0.99736874 # occ.  0.00000000
 
ion      s      p      d      f    tot
    1  0.043  0.196  0.028  0.004  0.271
    2  0.043  0.196  0.028  0.004  0.271
tot    0.086  0.391  0.056  0.009  0.541
 
band     7 # energy    1.08811321 # occ.  0.00000000
 
ion      s      p      d      f    tot
    1  0.034  0.211  0.036  0.005  0.286
    2  0.034  0.211  0.036  0.005  0.286
tot    0.068  0.422  0.071  0.010  0.571
 
band     8 # energy    1.24513581 # occ.  0.00000000
 
ion      s      p      d      f    tot
    1  0.000  0.369  0.019  0.004  0.392
    2  0.000  0.369  0.019  0.004  0.392
tot    0.000  0.737  0.039  0.009  0.785
 
band     9 # energy    2.76409645 # occ.  0.00000000
 
ion      s      p      d      f    tot
    1  0.007  0.010  0.028  0.001  0.046
    2  0.007  0.010  0.028  0.001  0.046
tot    0.013  0.021  0.056  0.002  0.091
 
band    10 # energy    2.99806579 # occ.  0.00000000
 
ion      s      p      d      f    tot
    1  0.002  0.053  0.007  0.001  0.064
    2  0.002  0.053  0.007  0.001  0.064
tot    0.005  0.106  0.015  0.002  0.127
 
band    11 # energy    3.88999413 # occ.  0.00000000
 
ion      s      p      d      f    tot
    1  0.003  0.070  0.047  0.004  0.124
    2  0.003  0.070  0.047  0.004  0.124
tot    0.006  0.140  0.094  0.008  0.249
 
band    12 # energy    4.88279164 # occ.  0.00000000
 
ion      s      p      d      f    tot
    1  0.017  0.052  0.031  0.003  0.104
    2  0.017  0.052  0.031  0.003  0.104
tot    0.034  0.105  0.062  0.007  0.207
 
band    13 # energy    5.29222444 # occ.  0.00000000
 
ion      s      p      d      f    tot
    1  0.021  0.038  0.051  0.002  0.112
    2  0.021  0.038  0.051  0.002  0.112
tot    0.041  0.077  0.102  0.005  0.224
 
band    14 # energy    5.58819864 # occ.  0.00000000
 
ion      s      p      d      f    tot
    1  0.004  0.044  0.089  0.014  0.150
    2  0.004  0.044  0.089  0.014  0.150
tot    0.007  0.088  0.178  0.027  0.301
 
band    15 # energy    6.36229489 # occ.  0.00000000
 
ion      s      p      d      f    tot
    1  0.022  0.009  0.034  0.016  0.081
    2  0.022  0.009  0.034  0.016  0.081
tot    0.044  0.018  0.069  0.032  0.163
 
band    16 # energy    6.53754148 # occ.  0.00000000
 
ion      s      p      d      f    tot
    1  0.000  0.012  0.183  0.024  0.220
    2  0.000  0.012  0.183  0.024  0.220
tot    0.000  0.024  0.367  0.049  0.440
 

 k-point     5 :    0.36363636 0.00000000 0.00000000     weight = 0.04958678

band     1 # energy  -12.25931355 # occ.  2.00000000
 
ion      s      p      d      f    tot
    1  0.345  0.027  0.004  0.001  0.376
    2  0.345  0.027  0.004  0.001  0.376
tot    0.689  0.053  0.007  0.001  0.751
 
band     2 # energy   -9.37881974 # occ.  2.00000000
 
ion      s      p      d      f    tot
    1  0.384  0.032  0.007  0.001  0.424
    2  0.384  0.032  0.007  0.001  0.424
tot    0.768  0.064  0.015  0.002  0.848
 
band     3 # energy   -5.32727603 # occ.  2.00000000
 
ion      s      p      d      f    tot
    1  0.026  0.252  0.006  0.000  0.284
    2  0.026  0.252  0.006  0.000  0.284
tot    0.052  0.503  0.012  0.001  0.568
 
band     4 # energy   -3.64793235 # occ.  2.00000000
 
ion      s      p      d      f    tot
    1  0.000  0.343  0.016  0.003  0.363
    2  0.000  0.343  0.016  0.003  0.363
tot    0.000  0.686  0.033  0.006  0.725
 
band     5 # energy   -3.26528754 # occ.  2.00000000
 
ion      s      p      d      f    tot
    1  0.045  0.282  0.002  0.002  0.331
    2  0.045  0.282  0.002  0.002  0.331
tot    0.090  0.565  0.003  0.003  0.661
 
band     6 # energy   -0.95917547 # occ.  0.00000000
 
ion      s      p      d      f    tot
    1  0.032  0.194  0.035  0.004  0.264
    2  0.032  0.194  0.035  0.004  0.264
tot    0.064  0.388  0.069  0.007  0.528
 
band     7 # energy    0.61381278 # occ.  0.00000000
 
ion      s      p      d      f    tot
    1  0.016  0.192  0.047  0.003  0.258
    2  0.016  0.192  0.047  0.003  0.258
tot    0.032  0.383  0.094  0.006  0.516
 
band     8 # energy    1.28486376 # occ.  0.00000000
 
ion      s      p      d      f    tot
    1  0.000  0.353  0.023  0.003  0.379
    2  0.000  0.353  0.023  0.003  0.379
tot    0.000  0.706  0.046  0.006  0.758
 
band     9 # energy    3.09672474 # occ.  0.00000000
 
ion      s      p      d      f    tot
    1  0.002  0.063  0.063  0.001  0.129
    2  0.002  0.063  0.063  0.001  0.129
tot    0.005  0.126  0.126  0.002  0.259
 
band    10 # energy    3.40192198 # occ.  0.00000000
 
ion      s      p      d      f    tot
    1  0.011  0.010  0.017  0.001  0.039
    2  0.011  0.010  0.017  0.001  0.039
tot    0.023  0.021  0.033  0.002  0.079
 
band    11 # energy    4.02324509 # occ.  0.00000000
 
ion      s      p      d      f    tot
    1  0.000  0.022  0.025  0.001  0.047
    2  0.000  0.022  0.025  0.001  0.047
tot    0.000  0.044  0.049  0.002  0.095
 
band    12 # energy    5.20025204 # occ.  0.00000000
 
ion      s      p      d      f    tot
    1  0.017  0.028  0.026  0.005  0.076
    2  0.017  0.028  0.026  0.005  0.076
tot    0.034  0.057  0.052  0.009  0.152
 
band    13 # energy    5.88777652 # occ.  0.00000000
 
ion      s      p      d      f    tot
    1  0.010  0.051  0.025  0.005  0.091
    2  0.010  0.051  0.025  0.005  0.091
tot    0.020  0.102  0.049  0.010  0.181
 
band    14 # energy    5.92668137 # occ.  0.00000000
 
ion      s      p      d      f    tot
    1  0.013  0.020  0.020  0.008  0.061
    2  0.013  0.020  0.020  0.008  0.061
tot    0.026  0.041  0.040  0.016  0.123
 
band    15 # energy    6.48601897 # occ.  0.00000000
 
ion      s      p      d      f    tot
    1  0.005  0.057  0.026  0.006  0.094
    2  0.005  0.057  0.026  0.006  0.094
tot    0.010  0.113  0.052  0.012  0.188
 
band    16 # energy    6.83249954 # occ.  0.00000000
 
ion      s      p      d      f    tot
    1  0.012  0.071  0.038  0.014  0.135
    2  0.012  0.071  0.038  0.014  0.135
tot    0.023  0.142  0.077  0.028  0.270
 

 k-point     6 :    0.45454545 0.00000000 0.00000000     weight = 0.04958678

band     1 # energy  -11.74575679 # occ.  2.00000000
 
ion      s      p      d      f    tot
    1  0.357  0.027  0.006  0.001  0.390
    2  0.357  0.027  0.006  0.001  0.390
tot    0.714  0.053  0.011  0.002  0.780
 
band     2 # energy   -9.95389024 # occ.  2.00000000
 
ion      s      p      d      f    tot
    1  0.355  0.044  0.007  0.001  0.406
    2  0.355  0.044  0.007  0.001  0.406
tot    0.710  0.087  0.013  0.001  0.812
 
band     3 # energy   -5.25576576 # occ.  2.00000000
 
ion      s      p      d      f    tot
    1  0.060  0.236  0.002  0.000  0.299
    2  0.060  0.236  0.002  0.000  0.299
tot    0.120  0.473  0.004  0.001  0.598
 
band     4 # energy   -3.81532936 # occ.  2.00000000
 
ion      s      p      d      f    tot
    1  0.000  0.340  0.015  0.003  0.358
    2  0.000  0.340  0.015  0.003  0.358
tot    0.000  0.680  0.030  0.006  0.717
 
band     5 # energy   -3.67687176 # occ.  2.00000000
 
ion      s      p      d      f    tot
    1  0.039  0.269  0.002  0.002  0.312
    2  0.039  0.269  0.002  0.002  0.312
tot    0.078  0.539  0.005  0.003  0.625
 
band     6 # energy   -0.71664725 # occ.  0.00000000
 
ion      s      p      d      f    tot
    1  0.034  0.188  0.047  0.003  0.272
    2  0.034  0.188  0.047  0.003  0.272
tot    0.067  0.375  0.095  0.007  0.544
 
band     7 # energy    0.21923910 # occ.  0.00000000
 
ion      s      p      d      f    tot
    1  0.005  0.213  0.038  0.001  0.257
    2  0.005  0.213  0.038  0.001  0.257
tot    0.010  0.427  0.075  0.002  0.515
 
band     8 # energy    1.26847801 # occ.  0.00000000
 
ion      s      p      d      f    tot
    1  0.000  0.342  0.025  0.002  0.370
    2  0.000  0.342  0.025  0.002  0.370
tot    0.000  0.684  0.051  0.005  0.740
 
band     9 # energy    2.84688750 # occ.  0.00000000
 
ion      s      p      d      f    tot
    1  0.000  0.028  0.086  0.001  0.115
    2  0.000  0.028  0.086  0.001  0.115
tot    0.001  0.056  0.171  0.001  0.230
 
band    10 # energy    4.21046811 # occ.  0.00000000
 
ion      s      p      d      f    tot
    1  0.015  0.011  0.020  0.002  0.047
    2  0.015  0.011  0.020  0.002  0.047
tot    0.030  0.021  0.039  0.004  0.094
 
band    11 # energy    4.61439908 # occ.  0.00000000
 
ion      s      p      d      f    tot
    1  0.006  0.026  0.012  0.002  0.046
    2  0.006  0.026  0.012  0.002  0.046
tot    0.013  0.051  0.025  0.004  0.092
 
band    12 # energy    5.11144456 # occ.  0.00000000
 
ion      s      p      d      f    tot
    1  0.016  0.011  0.023  0.005  0.054
    2  0.016  0.011  0.023  0.005  0.054
tot    0.032  0.021  0.047  0.009  0.109
 
band    13 # energy    5.43841975 # occ.  0.00000000
 
ion      s      p      d      f    tot
    1  0.002  0.028  0.014  0.005  0.049
    2  0.002  0.028  0.014  0.005  0.049
tot    0.004  0.057  0.027  0.010  0.097
 
band    14 # energy    5.91485563 # occ.  0.00000000
 
ion      s      p      d      f    tot
    1  0.005  0.031  0.012  0.003  0.051
    2  0.005  0.031  0.012  0.003  0.051
tot    0.010  0.062  0.025  0.006  0.103
 
band    15 # energy    6.45889877 # occ.  0.00000000
 
ion      s      p      d      f    tot
    1  0.002  0.050  0.014  0.007  0.072
    2  0.002  0.050  0.014  0.007  0.072
tot    0.004  0.100  0.027  0.014  0.144
 
band    16 # energy    6.77162148 # occ.  0.00000000
 
ion      s      p      d      f    tot
    1  0.009  0.027  0.014  0.003  0.052
    2  0.009  0.027  0.014  0.003  0.052
tot    0.017  0.054  0.029  0.005  0.105
 

 k-point     7 :    0.09090909 0.09090909 0.00000000     weight = 0.04958678

band     1 # energy  -13.30264952 # occ.  2.00000000
 
ion      s      p      d      f    tot
    1  0.336  0.018  0.001  0.001  0.355
    2  0.336  0.018  0.001  0.001  0.355
tot    0.671  0.036  0.002  0.001  0.711
 
band     2 # energy   -8.60682067 # occ.  2.00000000
 
ion      s      p      d      f    tot
    1  0.379  0.024  0.003  0.001  0.406
    2  0.379  0.024  0.003  0.001  0.406
tot    0.757  0.048  0.005  0.001  0.812
 
band     3 # energy   -3.91063440 # occ.  2.00000000
 
ion      s      p      d      f    tot
    1  0.016  0.297  0.021  0.002  0.337
    2  0.016  0.297  0.021  0.002  0.337
tot    0.033  0.594  0.042  0.005  0.673
 
band     4 # energy   -2.94518760 # occ.  2.00000000
 
ion      s      p      d      f    tot
    1  0.007  0.341  0.021  0.003  0.372
    2  0.007  0.341  0.021  0.003  0.372
tot    0.013  0.682  0.042  0.006  0.743
 
band     5 # energy   -2.78370381 # occ.  2.00000000
 
ion      s      p      d      f    tot
    1  0.009  0.287  0.005  0.002  0.303
    2  0.009  0.287  0.005  0.002  0.303
tot    0.018  0.574  0.010  0.005  0.607
 
band     6 # energy    0.04326333 # occ.  0.00000000
 
ion      s      p      d      f    tot
    1  0.027  0.285  0.021  0.006  0.339
    2  0.027  0.285  0.021  0.006  0.339
tot    0.055  0.570  0.042  0.011  0.678
 
band     7 # energy    0.25173696 # occ.  0.00000000
 
ion      s      p      d      f    tot
    1  0.064  0.265  0.021  0.007  0.356
    2  0.064  0.265  0.021  0.007  0.356
tot    0.128  0.530  0.042  0.013  0.713
 
band     8 # energy    1.21658077 # occ.  0.00000000
 
ion      s      p      d      f    tot
    1  0.030  0.329  0.010  0.007  0.376
    2  0.030  0.329  0.010  0.007  0.376
tot    0.060  0.657  0.020  0.014  0.752
 
band     9 # energy    2.42936506 # occ.  0.00000000
 
ion      s      p      d      f    tot
    1  0.000  0.042  0.026  0.003  0.072
    2  0.000  0.042  0.026  0.003  0.072
tot    0.001  0.085  0.052  0.005  0.144
 
band    10 # energy    2.44553723 # occ.  0.00000000
 
ion      s      p      d      f    tot
    1  0.003  0.029  0.005  0.001  0.038
    2  0.003  0.029  0.005  0.001  0.038
tot    0.006  0.059  0.010  0.002  0.076
 
band    11 # energy    3.71234654 # occ.  0.00000000
 
ion      s      p      d      f    tot
    1  0.006  0.030  0.042  0.005  0.082
    2  0.006  0.030  0.042  0.005  0.082
tot    0.011  0.059  0.085  0.009  0.164
 
band    12 # energy    4.56955662 # occ.  0.00000000
 
ion      s      p      d      f    tot
    1  0.004  0.041  0.074  0.010  0.129
    2  0.004  0.041  0.074  0.010  0.129
tot    0.008  0.083  0.148  0.020  0.259
 
band    13 # energy    4.80610612 # occ.  0.00000000
 
ion      s      p      d      f    tot
    1  0.003  0.000  0.043  0.001  0.048
    2  0.003  0.000  0.043  0.001  0.048
tot    0.007  0.001  0.085  0.003  0.096
 
band    14 # energy    5.50477744 # occ.  0.00000000
 
ion      s      p      d      f    tot
    1  0.012  0.035  0.149  0.007  0.202
    2  0.012  0.035  0.149  0.007  0.202
tot    0.023  0.070  0.298  0.013  0.404
 
band    15 # energy    6.17294104 # occ.  0.00000000
 
ion      s      p      d      f    tot
    1  0.000  0.082  0.129  0.008  0.219
    2  0.000  0.082  0.129  0.008  0.219
tot    0.000  0.163  0.259  0.015  0.437
 
band    16 # energy    6.19023040 # occ.  0.00000000
 
ion      s      p      d      f    tot
    1  0.059  0.059  0.026  0.012  0.155
    2  0.059  0.059  0.026  0.012  0.155
tot    0.117  0.117  0.052  0.024  0.311
 

 k-point     8 :    0.18181818 0.09090909 0.00000000     weight = 0.09917355

band     1 # energy  -12.96228888 # occ.  2.00000000
 
ion      s      p      d      f    tot
    1  0.337  0.022  0.002  0.001  0.361
    2  0.337  0.022  0.002  0.001  0.361
tot    0.675  0.043  0.003  0.001  0.722
 
band     2 # energy   -8.73888271 # occ.  2.00000000
 
ion      s      p      d      f    tot
    1  0.399  0.020  0.005  0.001  0.424
    2  0.399  0.020  0.005  0.001  0.424
tot    0.798  0.039  0.009  0.002  0.848
 
band     3 # energy   -4.72887710 # occ.  2.00000000
 
ion      s      p      d      f    tot
    1  0.003  0.282  0.016  0.001  0.302
    2  0.003  0.282  0.016  0.001  0.302
tot    0.005  0.565  0.031  0.003  0.604
 
band     4 # energy   -3.53936102 # occ.  2.00000000
 
ion      s      p      d      f    tot
    1  0.009  0.321  0.020  0.003  0.352
    2  0.009  0.321  0.020  0.003  0.352
tot    0.017  0.641  0.040  0.005  0.703
 
band     5 # energy   -2.76576736 # occ.  2.00000000
 
ion      s      p      d      f    tot
    1  0.019  0.298  0.003  0.002  0.322
    2  0.019  0.298  0.003  0.002  0.322
tot    0.039  0.596  0.006  0.003  0.645
 
band     6 # energy   -0.41286952 # occ.  0.00000000
 
ion      s      p      d      f    tot
    1  0.039  0.240  0.022  0.005  0.306
    2  0.039  0.240  0.022  0.005  0.306
tot    0.078  0.480  0.045  0.010  0.612
 
band     7 # energy    0.72437053 # occ.  0.00000000
 
ion      s      p      d      f    tot
    1  0.028  0.307  0.020  0.005  0.360
    2  0.028  0.307  0.020  0.005  0.360
tot    0.055  0.615  0.040  0.010  0.720
 
band     8 # energy    1.40481166 # occ.  0.00000000
 
ion      s      p      d      f    tot
    1  0.033  0.283  0.018  0.006  0.340
    2  0.033  0.283  0.018  0.006  0.340
tot    0.065  0.565  0.036  0.013  0.679
 
band     9 # energy    2.66833377 # occ.  0.00000000
 
ion      s      p      d      f    tot
    1  0.002  0.018  0.029  0.002  0.051
    2  0.002  0.018  0.029  0.002  0.051
tot    0.004  0.037  0.058  0.004  0.102
 
band    10 # energy    2.83085102 # occ.  0.00000000
 
ion      s      p      d      f    tot
    1  0.001  0.049  0.011  0.002  0.063
    2  0.001  0.049  0.011  0.002  0.063
tot    0.002  0.099  0.021  0.004  0.126
 
band    11 # energy    3.69442393 # occ.  0.00000000
 
ion      s      p      d      f    tot
    1  0.002  0.041  0.068  0.008  0.119
    2  0.002  0.041  0.068  0.008  0.119
tot    0.005  0.082  0.136  0.016  0.239
 
band    12 # energy    4.68668460 # occ.  0.00000000
 
ion      s      p      d      f    tot
    1  0.008  0.046  0.035  0.004  0.093
    2  0.008  0.046  0.035  0.004  0.093
tot    0.015  0.093  0.070  0.009  0.186
 
band    13 # energy    5.14693431 # occ.  0.00000000
 
ion      s      p      d      f    tot
    1  0.002  0.003  0.062  0.004  0.071
    2  0.002  0.003  0.062  0.004  0.071
tot    0.005  0.005  0.123  0.007  0.141
 
band    14 # energy    5.39371989 # occ.  0.00000000
 
ion      s      p      d      f    tot
    1  0.015  0.071  0.094  0.003  0.182
    2  0.015  0.071  0.094  0.003  0.182
tot    0.030  0.142  0.187  0.005  0.364
 
band    15 # energy    6.34993820 # occ.  0.00000000
 
ion      s      p      d      f    tot
    1  0.012  0.046  0.120  0.017  0.194
    2  0.012  0.046  0.120  0.017  0.194
tot    0.023  0.092  0.240  0.033  0.388
 
band    16 # energy    6.82522321 # occ.  0.00000000
 
ion      s      p      d      f    tot
    1  0.022  0.072  0.057  0.010  0.161
    2  0.022  0.072  0.057  0.010  0.161
tot    0.043  0.144  0.113  0.021  0.321
 

 k-point     9 :    0.27272727 0.09090909 0.00000000     weight = 0.09917355

band     1 # energy  -12.47735403 # occ.  2.00000000
 
ion      s      p      d      f    tot
    1  0.341  0.026  0.003  0.001  0.371
    2  0.341  0.026  0.003  0.001  0.371
tot    0.683  0.051  0.006  0.001  0.741
 
band     2 # energy   -9.12586505 # occ.  2.00000000
 
ion      s      p      d      f    tot
    1  0.398  0.025  0.007  0.001  0.431
    2  0.398  0.025  0.007  0.001  0.431
tot    0.796  0.050  0.014  0.002  0.862
 
band     3 # energy   -5.19768257 # occ.  2.00000000
 
ion      s      p      d      f    tot
    1  0.010  0.264  0.009  0.001  0.284
    2  0.010  0.264  0.009  0.001  0.284
tot    0.021  0.528  0.018  0.001  0.568
 
band     4 # energy   -3.97886718 # occ.  2.00000000
 
ion      s      p      d      f    tot
    1  0.009  0.309  0.017  0.002  0.337
    2  0.009  0.309  0.017  0.002  0.337
tot    0.018  0.618  0.034  0.005  0.675
 
band     5 # energy   -2.97032330 # occ.  2.00000000
 
ion      s      p      d      f    tot
    1  0.033  0.303  0.003  0.002  0.340
    2  0.033  0.303  0.003  0.002  0.340
tot    0.065  0.607  0.005  0.003  0.680
 
band     6 # energy   -0.62879986 # occ.  0.00000000
 