<?xml version="1.0" encoding="ISO-8859-1"?>
<modeling>
 <generator>
  <i name="program" type="string">vasp </i>
  <i name="version" type="string">6.4.2  </i>
  <i name="subversion" type="string">20Jul23 (build Nov 14 2023 12:59:38) complex                          parallel </i>
  <i name="platform" type="string">LinuxIFC </i>
  <i name="date" type="string">2023 12 29 </i>
  <i name="time" type="string">16:09:13 </i>
 </generator>
 <incar>
  <i type="string" name="PREC">Accurate</i>
  <i type="string" name="ALGO">Normal</i>
  <i type="logical" name="ADDGRID"> T  </i>
  <i type="int" name="ISPIN">     1</i>
  <i name="AMIX">      0.10000000</i>
  <i name="BMIX">      0.00010000</i>
  <i type="int" name="ICHARG">     2</i>
  <i type="int" name="NELM">   200</i>
  <i type="int" name="NELMDL">   -12</i>
  <i type="int" name="NELMIN">     6</i>
  <i type="int" name="IBRION">     8</i>
  <i name="EDIFF">      0.00000100</i>
  <i name="EDIFFG">     -0.01000000</i>
  <i type="int" name="NSW">     1</i>
  <i name="ENCUT">    193.57762500</i>
  <i name="POTIM">      0.01000000</i>
  <i type="int" name="NEDOS">  6001</i>
  <i type="logical" name="LREAL"> F  </i>
  <i type="logical" name="LPLANE"> T  </i>
  <i type="int" name="ISMEAR">     0</i>
  <i name="SIGMA">      0.01000000</i>
  <i type="int" name="NWRITE">     3</i>
  <i type="logical" name="LWAVE"> F  </i>
  <i type="logical" name="LCHARG"> F  </i>
  <i type="logical" name="LVTOT"> F  </i>
  <i type="int" name="LORBIT">    10</i>
  <i type="logical" name="LELF"> F  </i>
  <i type="logical" name="LASPH"> T  </i>
  <i type="logical" name="LEPSILON"> F  </i>
  <i type="int" name="IVDW">     0</i>
 </incar>
 <primitive_cell>
  <structure name="primitive_cell" >
   <crystal>
    <varray name="basis" >
     <v>       4.11336655       0.00000000       0.00000000 </v>
     <v>      -2.05668327       3.56227993       0.00000000 </v>
     <v>       0.00000000       0.00000000      16.00000000 </v>
    </varray>
    <i name="volume">    234.44740948 </i>
    <varray name="rec_basis" >
     <v>       0.24310987       0.14035955       0.00000000 </v>
     <v>       0.00000000       0.28071910       0.00000000 </v>
     <v>       0.00000000       0.00000000       0.06250000 </v>
    </varray>
   </crystal>
   <varray name="positions" >
    <v>       0.66666667       0.33333333       0.44862540 </v>
    <v>       0.33333333       0.66666667       0.55137460 </v>
   </varray>
  </structure>
  <varray name="primitive_index" >
   <v type="int" >        1 </v>
   <v type="int" >        2 </v>
  </varray>
 </primitive_cell>
 <kpoints>
  <generation param="Gamma">
   <v type="int" name="divisions">      11       11        1 </v>
   <v name="usershift">      0.00000000       0.00000000       0.00000000 </v>
   <v name="genvec1">      0.09090909       0.00000000       0.00000000 </v>
   <v name="genvec2">      0.00000000       0.09090909       0.00000000 </v>
   <v name="genvec3">      0.00000000       0.00000000       1.00000000 </v>
   <v name="shift">      0.00000000       0.00000000       0.00000000 </v>
  </generation>
  <varray name="kpointlist" >
   <v>       0.00000000       0.00000000       0.00000000 </v>
   <v>       0.09090909       0.00000000       0.00000000 </v>
   <v>       0.18181818       0.00000000       0.00000000 </v>
   <v>       0.27272727       0.00000000       0.00000000 </v>
   <v>       0.36363636       0.00000000       0.00000000 </v>
   <v>       0.45454545       0.00000000       0.00000000 </v>
   <v>       0.09090909       0.09090909       0.00000000 </v>
   <v>       0.18181818       0.09090909       0.00000000 </v>
   <v>       0.27272727       0.09090909       0.00000000 </v>
   <v>       0.36363636       0.09090909       0.00000000 </v>
   <v>       0.45454545       0.09090909       0.00000000 </v>
   <v>       0.18181818       0.18181818       0.00000000 </v>
   <v>       0.27272727       0.18181818       0.00000000 </v>
   <v>       0.36363636       0.18181818       0.00000000 </v>
   <v>       0.27272727       0.27272727       0.00000000 </v>
   <v>       0.36363636       0.27272727       0.00000000 </v>
  </varray>
  <varray name="weights" >
   <v>       0.00826446 </v>
   <v>       0.04958678 </v>
   <v>       0.04958678 </v>
   <v>       0.04958678 </v>
   <v>       0.04958678 </v>
   <v>       0.04958678 </v>
   <v>       0.04958678 </v>
   <v>       0.09917355 </v>
   <v>       0.09917355 </v>
   <v>       0.09917355 </v>
   <v>       0.04958678 </v>
   <v>       0.04958678 </v>
   <v>       0.09917355 </v>
   <v>       0.09917355 </v>
   <v>       0.04958678 </v>
   <v>       0.04958678 </v>
  </varray>
 </kpoints>
 <parameters>
  <separator name="general" >
   <i type="string" name="SYSTEM">unknown system</i>
   <i type="logical" name="LCOMPAT"> F  </i>
  </separator>
  <separator name="electronic" >
   <i type="string" name="PREC">accura</i>
   <i name="ENMAX">    193.57762500</i>
   <i name="ENAUG">    560.61200000</i>
   <i name="EDIFF">      0.00000100</i>
   <i type="int" name="IALGO">    38</i>
   <i type="int" name="IWAVPR">    11</i>
   <i type="int" name="NBANDS">    16</i>
   <i type="int" name="NBANDSLOW">    -1</i>
   <i type="int" name="NBANDSHIGH">    -1</i>
   <i name="NELECT">     10.00000000</i>
   <i type="int" name="TURBO">     0</i>
   <i type="int" name="IRESTART">     0</i>
   <i type="int" name="NREBOOT">     0</i>
   <i type="int" name="NMIN">     0</i>
   <i name="EREF">      0.00000000</i>
   <separator name="electronic smearing" >
    <i type="int" name="ISMEAR">     0</i>
    <i name="SIGMA">      0.01000000</i>
    <i name="KSPACING">      0.50000000</i>
    <i type="logical" name="KGAMMA"> T  </i>
    <i type="logical" name="KBLOWUP"> T  </i>
   </separator>
   <separator name="electronic projectors" >
    <i type="logical" name="LREAL"> F  </i>
    <v name="ROPT">      0.00000000</v>
    <i type="int" name="LMAXPAW">  -100</i>
    <i type="int" name="LMAXMIX">     2</i>
    <i type="logical" name="NLSPLINE"> F  </i>
   </separator>
   <separator name="electronic startup" >
    <i type="int" name="ISTART">     0</i>
    <i type="int" name="ICHARG">     2</i>
    <i type="int" name="INIWAV">     1</i>
   </separator>
   <separator name="electronic spin" >
    <i type="int" name="ISPIN">     1</i>
    <i type="logical" name="LNONCOLLINEAR"> F  </i>
    <v name="MAGMOM">      1.00000000      1.00000000</v>
    <i name="NUPDOWN">     -1.00000000</i>
    <i type="logical" name="LSORBIT"> F  </i>
    <v name="SAXIS">      0.00000000      0.00000000      1.00000000</v>
    <i type="logical" name="LSPIRAL"> F  </i>
    <v name="QSPIRAL">      0.00000000      0.00000000      0.00000000</v>
    <i type="logical" name="LZEROZ"> F  </i>
   </separator>
   <separator name="electronic exchange-correlation" >
    <i type="logical" name="LASPH"> T  </i>
    <i type="logical" name="LMETAGGA"> F  </i>
   </separator>
   <separator name="electronic convergence" >
    <i type="int" name="NELM">   200</i>
    <i type="int" name="NELMDL">   -12</i>
    <i type="int" name="NELMIN">     6</i>
    <i name="ENINI">    193.57762500</i>
    <separator name="electronic convergence detail" >
     <i type="logical" name="LDIAG"> T  </i>
     <i type="logical" name="LSUBROT"> F  </i>
     <i name="WEIMIN">      0.00100000</i>
     <i name="EBREAK">      0.00000002</i>
     <i name="DEPER">      0.30000000</i>
     <i type="int" name="NRMM">     4</i>
     <i name="TIME">      0.40000000</i>
    </separator>
   </separator>
   <separator name="electronic mixer" >
    <i name="AMIX">      0.10000000</i>
    <i name="BMIX">      0.00010000</i>
    <i name="AMIN">      0.10000000</i>
    <i name="AMIX_MAG">      0.40000000</i>
    <i name="BMIX_MAG">      0.00010000</i>
    <separator name="electronic mixer details" >
     <i type="int" name="IMIX">     4</i>
     <i type="logical" name="MIXFIRST"> F  </i>
     <i type="int" name="MAXMIX">   -45</i>
     <i name="WC">    100.00000000</i>
     <i type="int" name="INIMIX">     1</i>
     <i type="int" name="MIXPRE">     1</i>
     <i type="int" name="MREMOVE">     5</i>
    </separator>
   </separator>
   <separator name="electronic dipolcorrection" >
    <i type="logical" name="LDIPOL"> F  </i>
    <i type="logical" name="LMONO"> F  </i>
    <i type="int" name="IDIPOL">     0</i>
    <i name="EPSILON">      1.00000000</i>
    <v name="DIPOL">   -100.00000000   -100.00000000   -100.00000000</v>
    <i name="EFIELD">      0.00000000</i>
   </separator>
  </separator>
  <separator name="grids" >
   <i type="int" name="NGX">    20</i>
   <i type="int" name="NGY">    20</i>
   <i type="int" name="NGZ">    80</i>
   <i type="int" name="NGXF">    40</i>
   <i type="int" name="NGYF">    40</i>
   <i type="int" name="NGZF">   160</i>
   <i type="logical" name="ADDGRID"> T  </i>
  </separator>
  <separator name="ionic" >
   <i type="int" name="NSW">     1</i>
   <i type="int" name="IBRION">     8</i>
   <i type="int" name="MDALGO">     0</i>
   <i type="int" name="ISIF">     2</i>
   <i name="PSTRESS">      0.00000000</i>
   <i name="EDIFFG">     -0.01000000</i>
   <i type="int" name="NFREE">     0</i>
   <i name="POTIM">      0.01000000</i>
   <i name="SMASS">     -3.00000000</i>
   <i name="SCALEE">      1.00000000</i>
  </separator>
  <separator name="ionic md" >
   <i name="TEBEG">      0.00010000</i>
   <i name="TEEND">      0.00010000</i>
   <i type="int" name="NBLOCK">     1</i>
   <i type="int" name="KBLOCK">     1</i>
   <i type="int" name="NPACO">   256</i>
   <i name="APACO">     10.00000000</i>
  </separator>
  <separator name="symmetry" >
   <i type="int" name="ISYM">     2</i>
   <i name="SYMPREC">      0.00001000</i>
  </separator>
  <separator name="dos" >
   <i type="int" name="LORBIT">    10</i>
   <v name="RWIGS">     -1.00000000</v>
   <i type="int" name="NEDOS">  6001</i>
   <i name="EMIN">     10.00000000</i>
   <i name="EMAX">    -10.00000000</i>
   <i name="EFERMI">      0.00000000</i>
  </separator>
  <separator name="writing" >
   <i type="int" name="NWRITE">     3</i>
   <i type="logical" name="LWAVE"> F  </i>
   <i type="logical" name="LDOWNSAMPLE"> F  </i>
   <i type="logical" name="LCHARG"> F  </i>
   <i type="logical" name="LPARD"> F  </i>
   <i type="logical" name="LVTOT"> F  </i>
   <i type="logical" name="LVHAR"> F  </i>
   <i type="logical" name="LELF"> F  </i>
   <i type="logical" name="LOPTICS"> F  </i>
   <v name="STM">      0.00000000      0.00000000      0.00000000      0.00000000      0.00000000      0.00000000      0.00000000</v>
  </separator>
  <separator name="performance" >
   <i type="int" name="NPAR">    16</i>
   <i type="int" name="NSIM">     4</i>
   <i type="int" name="NBLK">    -1</i>
   <i type="logical" name="LPLANE"> T  </i>
   <i type="logical" name="LSCALAPACK"> T  </i>
   <i type="logical" name="LSCAAWARE"> F  </i>
   <i type="logical" name="LSCALU"> F  </i>
   <i type="logical" name="LASYNC"> F  </i>
   <i type="logical" name="LORBITALREAL"> F  </i>
  </separator>
  <separator name="miscellaneous" >
   <i type="int" name="IDIOT">     3</i>
   <i type="int" name="PHON_NSTRUCT">    -1</i>
   <i type="logical" name="LMUSIC"> F  </i>
   <v name="POMASS">    121.75000000</v>
   <v name="DARWINR">      0.00000000</v>
   <v name="DARWINV">      1.00000000</v>
   <i type="logical" name="LCORR"> T  </i>
  </separator>
  <i type="logical" name="GGA_COMPAT"> T  </i>
  <i type="logical" name="LBERRY"> F  </i>
  <i type="int" name="ICORELEVEL">     0</i>
  <i type="logical" name="LDAU"> F  </i>
  <i type="int" name="I_CONSTRAINED_M">     0</i>
  <separator name="electronic exchange-correlation" >
   <i type="string" name="GGA">--</i>
   <i type="int" name="VOSKOWN">     0</i>
   <i type="logical" name="LHFCALC"> F  </i>
   <i type="string" name="PRECFOCK"></i>
   <i type="logical" name="LSYMGRAD"> F  </i>
   <i type="logical" name="LHFONE"> F  </i>
   <i type="logical" name="LRHFCALC"> F  </i>
   <i type="logical" name="LTHOMAS"> F  </i>
   <i type="logical" name="LMODELHF"> F  </i>
   <i type="logical" name="LFOCKACE"> F  </i>
   <i name="ENCUT4O">     -1.00000000</i>
   <i type="int" name="EXXOEP">     0</i>
   <i type="int" name="FOURORBIT">     0</i>
   <i name="AEXX">      0.00000000</i>
   <i name="HFALPHA">      0.00000000</i>
   <i name="MCALPHA">      0.00000000</i>
   <i name="ALDAX">      1.00000000</i>
   <i name="AGGAX">      1.00000000</i>
   <i name="ALDAC">      1.00000000</i>
   <i name="AGGAC">      1.00000000</i>
   <i type="int" name="NKREDX">     1</i>
   <i type="int" name="NKREDY">     1</i>
   <i type="int" name="NKREDZ">     1</i>
   <i type="logical" name="SHIFTRED"> F  </i>
   <i type="logical" name="ODDONLY"> F  </i>
   <i type="logical" name="EVENONLY"> F  </i>
   <i type="int" name="LMAXFOCK">     0</i>
   <i type="int" name="NMAXFOCKAE">     0</i>
   <i type="logical" name="LFOCKAEDFT"> F  </i>
   <i name="HFSCREEN">      0.00000000</i>
   <i name="HFSCREENC">      0.00000000</i>
   <i type="int" name="NBANDSGWLOW">     0</i>
  </separator>
  <separator name="vdW DFT" >
   <i type="logical" name="LUSE_VDW"> F  </i>
   <i type="int" name="IVDW_NL">     1</i>
   <i type="logical" name="LSPIN_VDW"> F  </i>
   <i name="Zab_VDW">     -0.84910000</i>
   <i name="PARAM1">      0.12340000</i>
   <i name="PARAM2">      1.00000000</i>
   <i name="PARAM3">      0.00000000</i>
  </separator>
  <separator name="model GW" >
   <i type="int" name="MODEL_GW">     0</i>
   <i name="MODEL_EPS0">     70.33422284</i>
   <i name="MODEL_ALPHA">      1.00000000</i>
  </separator>
  <separator name="linear response parameters" >
   <i type="logical" name="LEPSILON"> F  </i>
   <i type="logical" name="LRPA"> F  </i>
   <i type="logical" name="LNABLA"> F  </i>
   <i type="logical" name="LVEL"> F  </i>
   <i name="CSHIFT">      0.10000000</i>
   <i name="OMEGAMAX">     -1.00000000</i>
   <i name="DEG_THRESHOLD">      0.00200000</i>
   <i name="RTIME">     -0.10000000</i>
   <i name="WPLASMAI">      0.00000000</i>
   <v name="DFIELD">      0.00000000      0.00000000      0.00000000</v>
   <v name="WPLASMA">      0.00000000      0.00000000      0.00000000      0.00000000      0.00000000      0.00000000      0.00000000      0.00000000      0.00000000</v>
  </separator>
  <separator name="orbital magnetization" >
   <i type="logical" name="NUCIND"> F  </i>
   <v name="MAGPOS">      0.00000000      0.00000000      0.00000000</v>
   <i type="logical" name="LNICSALL"> T  </i>
   <i type="logical" name="ORBITALMAG"> F  </i>
   <i type="logical" name="LMAGBLOCH"> F  </i>
   <i type="logical" name="LCHIMAG"> F  </i>
   <i type="logical" name="LGAUGE"> T  </i>
   <i type="int" name="MAGATOM">     0</i>
   <v name="MAGDIPOL">      0.00000000      0.00000000      0.00000000</v>
   <v name="AVECCONST">      0.00000000      0.00000000      0.00000000</v>
  </separator>
  <separator name="response functions" >
   <i type="logical" name="LALL_IN_ONE"> F  </i>
   <i type="int" name="IALL_IN_ONE">    -1</i>
   <i type="int" name="NBANDS_WAVE">    -1</i>
   <i type="logical" name="LFINITE_TEMPERATURE"> F  </i>
   <i type="logical" name="LADDER"> F  </i>
   <i type="logical" name="LRPAFORCE"> F  </i>
   <i type="logical" name="LFXC"> F  </i>
   <i type="logical" name="LHARTREE"> T  </i>
   <i type="int" name="IBSE">     0</i>
   <v type="int" name="KPOINT">    -1     0     0     0</v>
   <i type="logical" name="LTCTC"> F  </i>
   <i type="logical" name="LTCTE"> F  </i>
   <i type="logical" name="LTETE"> F  </i>
   <i type="logical" name="LTRIPLET"> F  </i>
   <i type="logical" name="LFXCEPS"> F  </i>
   <i type="logical" name="LFXHEG"> F  </i>
   <i type="int" name="NATURALO">     2</i>
   <i type="logical" name="LHOLEGF"> F  </i>
   <i type="logical" name="L2ORDER"> F  </i>
   <i type="logical" name="LDMP1"> F  </i>
   <i type="logical" name="LMP2LT"> F  </i>
   <i type="logical" name="LSMP2LT"> F  </i>
   <i type="logical" name="LGWLF"> F  </i>
   <i name="ENCUTGW">     -1.60000002</i>
   <i name="ENCUTGWSOFT">     -1.60000002</i>
   <i name="ENCUTLF">     -1.00000000</i>
   <i type="logical" name="LESF_SPLINES"> F  </i>
   <i type="int" name="LMAXMP2">    -1</i>
   <i name="SCISSOR">      0.00000000</i>
   <i type="int" name="NOMEGA">     0</i>
   <i type="int" name="NOMEGAR">     0</i>
   <i type="int" name="NBANDSGW">    -1</i>
   <i type="int" name="NBANDSO">    -1</i>
   <i type="int" name="NBANDSV">    -1</i>
   <i type="int" name="NELMGW">     1</i>
   <i type="int" name="NELMHF">     1</i>
   <i type="int" name="DIM">     3</i>
   <i type="int" name="IESPILON">     4</i>
   <i type="int" name="ANTIRES">     0</i>
   <i name="OMEGAMAX">    -30.00000000</i>
   <i name="OMEGAMIN">    -30.00000000</i>
   <i name="OMEGATL">   -200.00000000</i>
   <i type="int" name="OMEGAGRID">     0</i>
   <i name="CSHIFT">     -0.10000000</i>
   <i type="logical" name="LSELFENERGY"> F  </i>
   <i type="logical" name="LSPECTRAL"> F  </i>
   <i type="logical" name="LSPECTRALGW"> F  </i>
   <i type="logical" name="LSINGLES"> F  </i>
   <i type="logical" name="LFERMIGW"> F  </i>
   <i type="logical" name="ODDONLYGW"> F  </i>
   <i type="logical" name="EVENONLYGW"> F  </i>
   <i type="int" name="NKREDLFX">     1</i>
   <i type="int" name="NKREDLFY">     1</i>
   <i type="int" name="NKREDLFZ">     1</i>
   <i type="int" name="MAXMEM">  2800</i>
   <i type="int" name="TELESCOPE">     0</i>
   <i type="int" name="NTAUPAR">    -1</i>
   <i type="int" name="NOMEGAPAR">    -1</i>
   <i name="DAMP_NEWTON">      0.80000001</i>
   <i name="LAMBDA">      1.00000000</i>
  </separator>
  <separator name="External order field" >
   <i name="OFIELD_KAPPA">      0.00000000</i>
   <v name="OFIELD_K">      0.00000000      0.00000000      0.00000000</v>
   <i name="OFIELD_Q6_NEAR">      0.00000000</i>
   <i name="OFIELD_Q6_FAR">      0.00000000</i>
   <i name="OFIELD_A">      0.00000000</i>
  </separator>
  <separator name="optional k-points parameters" >
   <i type="int" name="KPOINTS_OPT_MODE">     1</i>
   <i type="logical" name="LKPOINTS_OPT"> F  </i>
  </separator>
 </parameters>
 <atominfo>
  <atoms>       2 </atoms>
  <types>       1 </types>
  <array name="atoms" >
   <dimension dim="1">ion</dimension>
   <field type="string">element</field>
   <field type="int">atomtype</field>
   <set>
    <rc><c>Sb</c><c>   1</c></rc>
    <rc><c>Sb</c><c>   1</c></rc>
   </set>
  </array>
  <array name="atomtypes" >
   <dimension dim="1">type</dimension>
   <field type="int">atomspertype</field>
   <field type="string">element</field>
   <field>mass</field>
   <field>valence</field>
   <field type="string">pseudopotential</field>
   <set>
    <rc><c>   2</c><c>Sb</c><c>    121.75000000</c><c>      5.00000000</c><c>  PAW_PBE Sb_GW 21Mar2012               </c></rc>
   </set>
  </array>
 </atominfo>
 <structure name="initialpos" >
  <crystal>
   <varray name="basis" >
    <v>       4.11336655       0.00000000       0.00000000 </v>
    <v>      -2.05668327       3.56227993       0.00000000 </v>
    <v>       0.00000000       0.00000000      16.00000000 </v>
   </varray>
   <i name="volume">    234.44740948 </i>
   <varray name="rec_basis" >
    <v>       0.24310987       0.14035955       0.00000000 </v>
    <v>       0.00000000       0.28071910       0.00000000 </v>
    <v>       0.00000000       0.00000000       0.06250000 </v>
   </varray>
  </crystal>
  <varray name="positions" >
   <v>       0.66666667       0.33333333       0.44862540 </v>
   <v>       0.33333333       0.66666667       0.55137460 </v>
  </varray>
 </structure>
 <calculation>
  <scstep>
   <time name="dav">    0.11    0.11</time>
   <time name="total">    0.39    0.39</time>
   <energy>
    <i name="alphaZ">      2.97593478 </i>
    <i name="ewald">    213.91894841 </i>
    <i name="hartreedc">   -467.82089709 </i>
    <i name="XCdc">    -92.70009852 </i>
    <i name="pawpsdc">    327.35893868 </i>
    <i name="pawaedc">   -219.44694627 </i>
    <i name="eentropy">     -0.00000000 </i>
    <i name="bandstr">    -46.64661148 </i>
    <i name="atom">    299.89217194 </i>
    <i name="e_fr_energy">     17.53144045 </i>
    <i name="e_wo_entrp">     17.53144045 </i>
    <i name="e_0_energy">     17.53144045 </i>
   </energy>
  </scstep>
  <scstep>
   <time name="dav">    0.17    0.17</time>
   <time name="total">    0.17    0.17</time>
   <energy>
    <i name="e_fr_energy">     -7.80669095 </i>
    <i name="e_wo_entrp">     -7.80669095 </i>
    <i name="e_0_energy">     -7.80669095 </i>
   </energy>
  </scstep>
  <scstep>
   <time name="dav">    0.13    0.13</time>
   <time name="total">    0.13    0.13</time>
   <energy>
    <i name="e_fr_energy">     -8.16390197 </i>
    <i name="e_wo_entrp">     -8.16390197 </i>
    <i name="e_0_energy">     -8.16390197 </i>
   </energy>
  </scstep>
  <scstep>
   <time name="dav">    0.17    0.17</time>
   <time name="total">    0.17    0.17</time>
   <energy>
    <i name="e_fr_energy">     -8.16625317 </i>
    <i name="e_wo_entrp">     -8.16625317 </i>
    <i name="e_0_energy">     -8.16625317 </i>
   </energy>
  </scstep>
  <scstep>
   <time name="dav">    0.12    0.12</time>
   <time name="total">    0.12    0.12</time>
   <energy>
    <i name="e_fr_energy">     -8.16625464 </i>
    <i name="e_wo_entrp">     -8.16625464 </i>
    <i name="e_0_energy">     -8.16625464 </i>
   </energy>
  </scstep>
  <scstep>
   <time name="dav">    0.23    0.23</time>
   <time name="total">    0.23    0.23</time>
   <energy>
    <i name="e_fr_energy">     -8.16625467 </i>
    <i name="e_wo_entrp">     -8.16625467 </i>
    <i name="e_0_energy">     -8.16625467 </i>
   </energy>
  </scstep>
  <scstep>
   <time name="dav">    0.18    0.18</time>
   <time name="total">    0.18    0.18</time>
   <energy>
    <i name="e_fr_energy">     -8.16625467 </i>
    <i name="e_wo_entrp">     -8.16625467 </i>
    <i name="e_0_energy">     -8.16625467 </i>
   </energy>
  </scstep>
  <scstep>
   <time name="dav">    0.20    0.20</time>
   <time name="total">    0.20    0.20</time>
   <energy>
    <i name="e_fr_energy">     -8.16625467 </i>
    <i name="e_wo_entrp">     -8.16625467 </i>
    <i name="e_0_energy">     -8.16625467 </i>
   </energy>
  </scstep>
  <scstep>
   <time name="dav">    0.16    0.16</time>
   <time name="total">    0.16    0.16</time>
   <energy>
    <i name="e_fr_energy">     -8.16625467 </i>
    <i name="e_wo_entrp">     -8.16625467 </i>
    <i name="e_0_energy">     -8.16625467 </i>
   </energy>
  </scstep>
  <scstep>
   <time name="dav">    0.16    0.16</time>
   <time name="total">    0.16    0.16</time>
   <energy>
    <i name="e_fr_energy">     -8.16625467 </i>
    <i name="e_wo_entrp">     -8.16625467 </i>
    <i name="e_0_energy">     -8.16625467 </i>
   </energy>
  </scstep>
  <scstep>
   <time name="dav">    0.12    0.12</time>
   <time name="total">    0.12    0.12</time>
   <energy>
    <i name="e_fr_energy">     -8.16625467 </i>
    <i name="e_wo_entrp">     -8.16625467 </i>
    <i name="e_0_energy">     -8.16625467 </i>
   </energy>
  </scstep>
  <scstep>
   <time name="dav">    0.06    0.06</time>
   <time name="total">    0.08    0.08</time>
   <energy>
    <i name="e_fr_energy">     -8.16625467 </i>
    <i name="e_wo_entrp">     -8.16625467 </i>
    <i name="e_0_energy">     -8.16625467 </i>
   </energy>
  </scstep>
  <scstep>
   <time name="dav">    0.25    0.25</time>
   <time name="total">    0.55    0.55</time>
   <energy>
    <i name="e_fr_energy">     -8.15096159 </i>
    <i name="e_wo_entrp">     -8.15096159 </i>
    <i name="e_0_energy">     -8.15096159 </i>
   </energy>
  </scstep>
  <scstep>
   <time name="dav">    0.28    0.28</time>
   <time name="total">    0.59    0.77</time>
   <energy>
    <i name="e_fr_energy">     -8.12116128 </i>
    <i name="e_wo_entrp">     -8.12116128 </i>
    <i name="e_0_energy">     -8.12116128 </i>
   </energy>
  </scstep>
  <scstep>
   <time name="dav">    0.25    0.25</time>
   <time name="total">    0.62    0.62</time>
   <energy>
    <i name="e_fr_energy">     -8.11766948 </i>
    <i name="e_wo_entrp">     -8.11766948 </i>
    <i name="e_0_energy">     -8.11766948 </i>
   </energy>
  </scstep>
  <scstep>
   <time name="dav">    0.16    0.16</time>
   <time name="total">    0.46    0.46</time>
   <energy>
    <i name="e_fr_energy">     -8.11736623 </i>
    <i name="e_wo_entrp">     -8.11736623 </i>
    <i name="e_0_energy">     -8.11736623 </i>
   </energy>
  </scstep>
  <scstep>
   <time name="dav">    0.12    0.13</time>
   <time name="total">    0.44    0.44</time>
   <energy>
    <i name="e_fr_energy">     -8.11726978 </i>
    <i name="e_wo_entrp">     -8.11726978 </i>
    <i name="e_0_energy">     -8.11726978 </i>
   </energy>
  </scstep>
  <scstep>
   <time name="dav">    0.11    0.11</time>
   <time name="total">    0.43    0.43</time>
   <energy>
    <i name="e_fr_energy">     -8.11727519 </i>
    <i name="e_wo_entrp">     -8.11727519 </i>
    <i name="e_0_energy">     -8.11727519 </i>
   </energy>
  </scstep>
  <scstep>
   <time name="dav">    0.11    0.11</time>
   <time name="total">    0.39    0.39</time>
   <energy>
    <i name="alphaZ">      2.97593478 </i>
    <i name="ewald">    213.91894841 </i>
    <i name="hartreedc">   -472.85891470 </i>
    <i name="XCdc">    -92.29528153 </i>
    <i name="pawpsdc">    366.58328181 </i>
    <i name="pawaedc">   -258.81255448 </i>
    <i name="eentropy">     -0.00000000 </i>
    <i name="bandstr">    -67.52086112 </i>
    <i name="atom">    299.89217194 </i>
    <i name="e_fr_energy">     -8.11727490 </i>
    <i name="e_wo_entrp">     -8.11727490 </i>
    <i name="e_0_energy">     -8.11727490 </i>
   </energy>
  </scstep>
  <structure>
   <crystal>
    <varray name="basis" >
     <v>       4.11336655       0.00000000       0.00000000 </v>
     <v>      -2.05668327       3.56227993       0.00000000 </v>
     <v>       0.00000000       0.00000000      16.00000000 </v>
    </varray>
    <i name="volume">    234.44740948 </i>
    <varray name="rec_basis" >
     <v>       0.24310987       0.14035955       0.00000000 </v>
     <v>       0.00000000       0.28071910       0.00000000 </v>
     <v>       0.00000000       0.00000000       0.06250000 </v>
    </varray>
   </crystal>
   <varray name="positions" >
    <v>       0.66666667       0.33333333       0.44862540 </v>
    <v>       0.33333333       0.66666667       0.55137460 </v>
   </varray>
  </structure>
  <varray name="forces" >
   <v>       0.00000000       0.00000000      -0.00394202 </v>
   <v>      -0.00000000       0.00000000       0.00394202 </v>
  </varray>
  <varray name="stress" >
   <v>      -0.07511443       0.00000000       0.00000000 </v>
   <v>       0.00000000      -0.07511443       0.00000000 </v>
   <v>      -0.00000000      -0.00000000      -0.23145089 </v>
  </varray>
  <energy>
   <i name="e_fr_energy">     -8.11727490 </i>
   <i name="e_wo_entrp">     -8.11727490 </i>
   <i name="e_0_energy">     -8.11727490 </i>
  </energy>
  <kpoints>
   <generation param="Gamma">
    <v type="int" name="divisions">      11       11        1 </v>
    <v name="usershift">      0.00000000       0.00000000       0.00000000 </v>
    <v name="genvec1">      0.09090909       0.00000000       0.00000000 </v>
    <v name="genvec2">      0.00000000       0.09090909       0.00000000 </v>
    <v name="genvec3">      0.00000000       0.00000000       1.00000000 </v>
    <v name="shift">      0.00000000       0.00000000       0.00000000 </v>
   </generation>
   <varray name="kpointlist" >
    <v>       0.00000000       0.00000000       0.00000000 </v>
    <v>       0.09090909       0.00000000       0.00000000 </v>
    <v>       0.00000000       0.09090909       0.00000000 </v>
    <v>      -0.09090909       0.09090909       0.00000000 </v>
    <v>       0.18181818       0.00000000       0.00000000 </v>
    <v>       0.00000000       0.18181818       0.00000000 </v>
    <v>      -0.18181818       0.18181818       0.00000000 </v>
    <v>       0.27272727       0.00000000       0.00000000 </v>
    <v>       0.00000000       0.27272727       0.00000000 </v>
    <v>      -0.27272727       0.27272727       0.00000000 </v>
    <v>       0.36363636       0.00000000       0.00000000 </v>
    <v>       0.00000000       0.36363636       0.00000000 </v>
    <v>      -0.36363636       0.36363636       0.00000000 </v>
    <v>       0.45454545       0.00000000       0.00000000 </v>
    <v>       0.00000000       0.45454545       0.00000000 </v>
    <v>      -0.45454545       0.45454545       0.00000000 </v>
    <v>       0.09090909       0.09090909       0.00000000 </v>
    <v>      -0.09090909       0.18181818       0.00000000 </v>
    <v>      -0.18181818       0.09090909       0.00000000 </v>
    <v>       0.18181818       0.09090909       0.00000000 </v>
    <v>      -0.09090909       0.27272727       0.00000000 </v>
    <v>      -0.27272727       0.18181818       0.00000000 </v>
    <v>      -0.18181818       0.27272727       0.00000000 </v>
    <v>       0.09090909       0.18181818       0.00000000 </v>
    <v>       0.27272727      -0.09090909       0.00000000 </v>
    <v>       0.27272727       0.09090909       0.00000000 </v>
    <v>      -0.09090909       0.36363636       0.00000000 </v>
    <v>      -0.36363636       0.27272727       0.00000000 </v>
    <v>      -0.27272727       0.36363636       0.00000000 </v>
    <v>       0.09090909       0.27272727       0.00000000 </v>
    <v>       0.36363636      -0.09090909       0.00000000 </v>
    <v>       0.36363636       0.09090909       0.00000000 </v>
    <v>      -0.09090909       0.45454545       0.00000000 </v>
    <v>      -0.45454545       0.36363636       0.00000000 </v>
    <v>      -0.36363636       0.45454545       0.00000000 </v>
    <v>       0.09090909       0.36363636       0.00000000 </v>
    <v>       0.45454545      -0.09090909       0.00000000 </v>
    <v>       0.45454545       0.09090909       0.00000000 </v>
    <v>      -0.09090909      -0.45454545       0.00000000 </v>
    <v>       0.45454545       0.45454545       0.00000000 </v>
    <v>       0.18181818       0.18181818       0.00000000 </v>
    <v>      -0.18181818       0.36363636       0.00000000 </v>
    <v>      -0.36363636       0.18181818       0.00000000 </v>
    <v>       0.27272727       0.18181818       0.00000000 </v>
    <v>      -0.18181818       0.45454545       0.00000000 </v>
    <v>      -0.45454545       0.27272727       0.00000000 </v>
    <v>      -0.27272727       0.45454545       0.00000000 </v>
    <v>       0.18181818       0.27272727       0.00000000 </v>
    <v>       0.45454545      -0.18181818       0.00000000 </v>
    <v>       0.36363636       0.18181818       0.00000000 </v>
    <v>      -0.18181818      -0.45454545       0.00000000 </v>
    <v>       0.45454545       0.36363636       0.00000000 </v>
    <v>      -0.36363636      -0.45454545       0.00000000 </v>
    <v>       0.18181818       0.36363636       0.00000000 </v>
    <v>      -0.45454545      -0.18181818       0.00000000 </v>
    <v>       0.27272727       0.27272727       0.00000000 </v>
    <v>      -0.27272727      -0.45454545       0.00000000 </v>
    <v>       0.45454545       0.27272727       0.00000000 </v>
    <v>       0.36363636       0.27272727       0.00000000 </v>
    <v>      -0.27272727      -0.36363636       0.00000000 </v>
    <v>       0.36363636       0.36363636       0.00000000 </v>
   </varray>
   <varray name="weights" >
    <v>       0.00826446 </v>
    <v>       0.01652893 </v>
    <v>       0.01652893 </v>
    <v>       0.01652893 </v>
    <v>       0.01652893 </v>
    <v>       0.01652893 </v>
    <v>       0.01652893 </v>
    <v>       0.01652893 </v>
    <v>       0.01652893 </v>
    <v>       0.01652893 </v>
    <v>       0.01652893 </v>
    <v>       0.01652893 </v>
    <v>       0.01652893 </v>
    <v>       0.01652893 </v>
    <v>       0.01652893 </v>
    <v>       0.01652893 </v>
    <v>       0.01652893 </v>
    <v>       0.01652893 </v>
    <v>       0.01652893 </v>
    <v>       0.01652893 </v>
    <v>       0.01652893 </v>
    <v>       0.01652893 </v>
    <v>       0.01652893 </v>
    <v>       0.01652893 </v>
    <v>       0.01652893 </v>
    <v>       0.01652893 </v>
    <v>       0.01652893 </v>
    <v>       0.01652893 </v>
    <v>       0.01652893 </v>
    <v>       0.01652893 </v>
    <v>       0.01652893 </v>
    <v>       0.01652893 </v>
    <v>       0.01652893 </v>
    <v>       0.01652893 </v>
    <v>       0.01652893 </v>
    <v>       0.01652893 </v>
    <v>       0.01652893 </v>
    <v>       0.01652893 </v>
    <v>       0.01652893 </v>
    <v>       0.01652893 </v>
    <v>       0.01652893 </v>
    <v>       0.01652893 </v>
    <v>       0.01652893 </v>
    <v>       0.01652893 </v>
    <v>       0.01652893 </v>
    <v>       0.01652893 </v>
    <v>       0.01652893 </v>
    <v>       0.01652893 </v>
    <v>       0.01652893 </v>
    <v>       0.01652893 </v>
    <v>       0.01652893 </v>
    <v>       0.01652893 </v>
    <v>       0.01652893 </v>
    <v>       0.01652893 </v>
    <v>       0.01652893 </v>
    <v>       0.01652893 </v>
    <v>       0.01652893 </v>
    <v>       0.01652893 </v>
    <v>       0.01652893 </v>
    <v>       0.01652893 </v>
    <v>       0.01652893 </v>
   </varray>
  </kpoints>
  <scstep>
   <time name="total">    1.48    1.48</time>
   <energy>
    <i name="e_fr_energy">    -58.18329332 </i>
    <i name="e_wo_entrp">    -58.18329332 </i>
    <i name="e_0_energy">    -58.18329332 </i>
   </energy>
  </scstep>
  <scstep>
   <time name="total">    1.66    1.66</time>
   <energy>
    <i name="e_fr_energy">    -59.98670519 </i>
    <i name="e_wo_entrp">    -59.98670519 </i>
    <i name="e_0_energy">    -59.98670519 </i>
   </energy>
  </scstep>
  <scstep>
   <time name="total">    1.69    1.70</time>
   <energy>
    <i name="e_fr_energy">    -60.02438351 </i>
    <i name="e_wo_entrp">    -60.02438351 </i>
    <i name="e_0_energy">    -60.02438351 </i>
   </energy>
  </scstep>
  <scstep>
   <time name="total">    1.59    1.59</time>
   <energy>
    <i name="e_fr_energy">    -59.90078190 </i>
    <i name="e_wo_entrp">    -59.90078190 </i>
    <i name="e_0_energy">    -59.90078190 </i>
   </energy>
  </scstep>
  <scstep>
   <time name="total">    1.87    1.87</time>
   <energy>
    <i name="e_fr_energy">    -59.89461936 </i>
    <i name="e_wo_entrp">    -59.89461936 </i>
    <i name="e_0_energy">    -59.89461936 </i>
   </energy>
  </scstep>
  <scstep>
   <time name="total">    1.67    1.67</time>
   <energy>
    <i name="e_fr_energy">    -59.88175285 </i>
    <i name="e_wo_entrp">    -59.88175285 </i>
    <i name="e_0_energy">    -59.88175285 </i>
   </energy>
  </scstep>
  <scstep>
   <time name="total">    1.84    1.84</time>
   <energy>
    <i name="e_fr_energy">    -59.87792332 </i>
    <i name="e_wo_entrp">    -59.87792332 </i>
    <i name="e_0_energy">    -59.87792332 </i>
   </energy>
  </scstep>
  <scstep>
   <time name="total">    1.75    1.75</time>
   <energy>
    <i name="e_fr_energy">    -59.86566045 </i>
    <i name="e_wo_entrp">    -59.86566045 </i>
    <i name="e_0_energy">    -59.86566045 </i>
   </energy>
  </scstep>
  <scstep>
   <time name="total">    1.70    1.71</time>
   <energy>
    <i name="e_fr_energy">    -59.86198614 </i>
    <i name="e_wo_entrp">    -59.86198614 </i>
    <i name="e_0_energy">    -59.86198614 </i>
   </energy>
  </scstep>
  <scstep>
   <time name="total">    1.69    1.69</time>
   <energy>
    <i name="e_fr_energy">    -59.86173996 </i>
    <i name="e_wo_entrp">    -59.86173996 </i>
    <i name="e_0_energy">    -59.86173996 </i>
   </energy>
  </scstep>
  <kpoints>
   <generation param="Gamma">
    <v type="int" name="divisions">      11       11        1 </v>
    <v name="usershift">      0.00000000       0.00000000       0.00000000 </v>
    <v name="genvec1">      0.09090909       0.00000000       0.00000000 </v>
    <v name="genvec2">      0.00000000       0.09090909       0.00000000 </v>
    <v name="genvec3">      0.00000000       0.00000000       1.00000000 </v>
    <v name="shift">      0.00000000       0.00000000       0.00000000 </v>
   </generation>
   <varray name="kpointlist" >
    <v>       0.00000000       0.00000000       0.00000000 </v>
    <v>       0.09090909       0.00000000       0.00000000 </v>
    <v>       0.18181818       0.00000000       0.00000000 </v>
    <v>       0.27272727       0.00000000       0.00000000 </v>
    <v>       0.36363636       0.00000000       0.00000000 </v>
    <v>       0.45454545       0.00000000       0.00000000 </v>
    <v>       0.09090909       0.09090909       0.00000000 </v>
    <v>       0.18181818       0.09090909       0.00000000 </v>
    <v>       0.27272727       0.09090909       0.00000000 </v>
    <v>       0.36363636       0.09090909       0.00000000 </v>
    <v>       0.45454545       0.09090909       0.00000000 </v>
    <v>       0.18181818       0.18181818       0.00000000 </v>
    <v>       0.27272727       0.18181818       0.00000000 </v>
    <v>       0.36363636       0.18181818       0.00000000 </v>
    <v>       0.27272727       0.27272727       0.00000000 </v>
    <v>       0.36363636       0.27272727       0.00000000 </v>
   </varray>
   <varray name="weights" >
    <v>       0.00826446 </v>
    <v>       0.04958678 </v>
    <v>       0.04958678 </v>
    <v>       0.04958678 </v>
    <v>       0.04958678 </v>
    <v>       0.04958678 </v>
    <v>       0.04958678 </v>
    <v>       0.09917355 </v>
    <v>       0.09917355 </v>
    <v>       0.09917355 </v>
    <v>       0.04958678 </v>
    <v>       0.04958678 </v>
    <v>       0.09917355 </v>
    <v>       0.09917355 </v>
    <v>       0.04958678 </v>
    <v>       0.04958678 </v>
   </varray>
  </kpoints>
  <scstep>
   <time name="total">    1.22    1.22</time>
   <energy>
    <i name="e_fr_energy">   -101.65560585 </i>
    <i name="e_wo_entrp">   -101.65560585 </i>
    <i name="e_0_energy">   -101.65560585 </i>
   </energy>
  </scstep>
  <scstep>
   <time name="total">    1.31    1.31</time>
   <energy>
    <i name="e_fr_energy">   -101.99301538 </i>
    <i name="e_wo_entrp">   -101.99301538 </i>
    <i name="e_0_energy">   -101.99301538 </i>
   </energy>
  </scstep>
  <scstep>
   <time name="total">    1.27    1.27</time>
   <energy>
    <i name="e_fr_energy">   -101.86354297 </i>
    <i name="e_wo_entrp">   -101.86354297 </i>
    <i name="e_0_energy">   -101.86354297 </i>
   </energy>
  </scstep>
  <scstep>
   <time name="total">    1.30    1.30</time>
   <energy>
    <i name="e_fr_energy">   -101.15895730 </i>
    <i name="e_wo_entrp">   -101.15895730 </i>
    <i name="e_0_energy">   -101.15895730 </i>
   </energy>
  </scstep>
  <scstep>
   <time name="total">    1.31    1.31</time>
   <energy>
    <i name="e_fr_energy">   -101.03821329 </i>
    <i name="e_wo_entrp">   -101.03821329 </i>
    <i name="e_0_energy">   -101.03821329 </i>
   </energy>
  </scstep>
  <scstep>
   <time name="total">    1.31    1.31</time>
   <energy>
    <i name="e_fr_energy">   -101.03064147 </i>
    <i name="e_wo_entrp">   -101.03064147 </i>
    <i name="e_0_energy">   -101.03064147 </i>
   </energy>
  </scstep>
  <scstep>
   <time name="total">    1.31    1.31</time>
   <energy>
    <i name="e_fr_energy">   -101.07110126 </i>
    <i name="e_wo_entrp">   -101.07110126 </i>
    <i name="e_0_energy">   -101.07110126 </i>
   </energy>
  </scstep>
  <scstep>
   <time name="total">    1.37    1.37</time>
   <energy>
    <i name="e_fr_energy">   -101.08116100 </i>
    <i name="e_wo_entrp">   -101.08116100 </i>
    <i name="e_0_energy">   -101.08116100 </i>
   </energy>
  </scstep>
  <scstep>
   <time name="total">    1.36    1.36</time>
   <energy>
    <i name="e_fr_energy">   -101.07894296 </i>
    <i name="e_wo_entrp">   -101.07894296 </i>
    <i name="e_0_energy">   -101.07894296 </i>
   </energy>
  </scstep>
  <kpoints>
   <generation param="Gamma">
    <v type="int" name="divisions">      11       11        1 </v>
    <v name="usershift">      0.00000000       0.00000000       0.00000000 </v>
    <v name="genvec1">      0.09090909       0.00000000       0.00000000 </v>
    <v name="genvec2">      0.00000000       0.09090909       0.00000000 </v>
    <v name="genvec3">      0.00000000       0.00000000       1.00000000 </v>
    <v name="shift">      0.00000000       0.00000000       0.00000000 </v>
   </generation>
   <varray name="kpointlist" >
    <v>       0.00000000       0.00000000       0.00000000 </v>
    <v>       0.09090909       0.00000000       0.00000000 </v>
    <v>       0.18181818       0.00000000       0.00000000 </v>
    <v>       0.27272727       0.00000000       0.00000000 </v>
    <v>       0.36363636       0.00000000       0.00000000 </v>
    <v>       0.45454545       0.00000000       0.00000000 </v>
    <v>       0.09090909       0.09090909       0.00000000 </v>
    <v>       0.18181818       0.09090909       0.00000000 </v>
    <v>       0.27272727       0.09090909       0.00000000 </v>
    <v>       0.36363636       0.09090909       0.00000000 </v>
    <v>       0.45454545       0.09090909       0.00000000 </v>
    <v>       0.18181818       0.18181818       0.00000000 </v>
    <v>       0.27272727       0.18181818       0.00000000 </v>
    <v>       0.36363636       0.18181818       0.00000000 </v>
    <v>       0.27272727       0.27272727       0.00000000 </v>
    <v>       0.36363636       0.27272727       0.00000000 </v>
   </varray>
   <varray name="weights" >
    <v>       0.00826446 </v>
    <v>       0.04958678 </v>
    <v>       0.04958678 </v>
    <v>       0.04958678 </v>
    <v>       0.04958678 </v>
    <v>       0.04958678 </v>
    <v>       0.04958678 </v>
    <v>       0.09917355 </v>
    <v>       0.09917355 </v>
    <v>       0.09917355 </v>
    <v>       0.04958678 </v>
    <v>       0.04958678 </v>
    <v>       0.09917355 </v>
    <v>       0.09917355 </v>
    <v>       0.04958678 </v>
    <v>       0.04958678 </v>
   </varray>
  </kpoints>
  <dynmat>
   <i name="unit" type="string">THz^2 </i>
   <varray name="hessian" >
    <v>     -11.45130365       0.00000000      -0.00000000      11.45130365       0.00000000       0.00000000 </v>
    <v>       0.00000000     -11.45130365      -0.00000000       0.00000000      11.45130365       0.00000000 </v>
    <v>      -0.00000000      -0.00000000     -18.21924103       0.00000000       0.00000000      18.21924103 </v>
    <v>      11.45130365       0.00000000       0.00000000     -11.45130365       0.00000000      -0.00000000 </v>
    <v>       0.00000000      11.45130365       0.00000000       0.00000000     -11.45130365      -0.00000000 </v>
    <v>       0.00000000       0.00000000      18.21924103      -0.00000000      -0.00000000     -18.21924103 </v>
   </varray>
   <v name="eigenvalues"> -3.64384821E+001 -2.29026073E+001 -2.29026073E+001 -2.02962527E-016  3.52415822E-015  1.36374708E-014</v>
   <varray name="eigenvectors" >
    <v>  -2.04200795E-033 -2.78408807E-017  7.07106781E-001 -5.53014292E-033  6.07501444E-017 -7.07106781E-001</v>
    <v>  -1.73265955E-002 -7.06894468E-001 -1.81104811E-017  1.73265955E-002  7.06894468E-001  7.04539439E-017</v>
    <v>  -7.06894468E-001  1.73265955E-002  4.43903574E-019  7.06894468E-001 -1.73265955E-002 -1.72688717E-018</v>
    <v>  -6.87610540E-001 -1.64587438E-001 -1.01350930E-002 -6.87610540E-001 -1.64587438E-001 -1.01350930E-002</v>
    <v>   1.64858911E-001 -6.85182276E-001 -5.78514292E-002  1.64858911E-001 -6.85182276E-001 -5.78514292E-002</v>
    <v>  -3.64475706E-003  5.86193118E-002 -7.04663389E-001 -3.64475706E-003  5.86193118E-002 -7.04663389E-001</v>
   </varray>
  </dynmat>
  <time name="totalsc">   45.88   47.13</time>
  <eigenvalues>
   <array>
    <dimension dim="1">band</dimension>
    <dimension dim="2">kpoint</dimension>
    <dimension dim="3">spin</dimension>
    <field>eigene</field>
    <field>occ</field>
    <set>
     <set comment="spin 1">
      <set comment="kpoint 1">
       <r>  -13.5643    1.0000 </r>
       <r>   -8.5915    1.0000 </r>
       <r>   -2.8907    1.0000 </r>
       <r>   -2.2835    1.0000 </r>
       <r>   -2.2835    1.0000 </r>
       <r>   -0.7168    0.0000 </r>
       <r>    0.5067    0.0000 </r>
       <r>    0.5067    0.0000 </r>
       <r>    2.0889    0.0000 </r>
       <r>    2.1673    0.0000 </r>
       <r>    3.6274    0.0000 </r>
       <r>    4.5278    0.0000 </r>
       <r>    4.8459    0.0000 </r>
       <r>    5.8850    0.0000 </r>
       <r>    5.8850    0.0000 </r>
       <r>    6.4964    0.0000 </r>
      </set>
      <set comment="kpoint 2">
       <r>  -13.4765    1.0000 </r>
       <r>   -8.5887    1.0000 </r>
       <r>   -3.1089    1.0000 </r>
       <r>   -2.8526    1.0000 </r>
       <r>   -2.4824    1.0000 </r>
       <r>   -0.1960    0.0000 </r>
       <r>    0.4353    0.0000 </r>
       <r>    0.6978    0.0000 </r>
       <r>    2.2078    0.0000 </r>
       <r>    2.2693    0.0000 </r>
       <r>    3.7076    0.0000 </r>
       <r>    4.6241    0.0000 </r>
       <r>    4.8729    0.0000 </r>
       <r>    5.5671    0.0000 </r>
       <r>    5.8030    0.0000 </r>
       <r>    6.2149    0.0000 </r>
      </set>
      <set comment="kpoint 3">
       <r>  -13.2167    1.0000 </r>
       <r>   -8.6295    1.0000 </r>
       <r>   -4.2545    1.0000 </r>
       <r>   -2.9059    1.0000 </r>
       <r>   -2.7872    1.0000 </r>
       <r>   -0.6040    0.0000 </r>
       <r>    1.0408    0.0000 </r>
       <r>    1.0853    0.0000 </r>
       <r>    2.4415    0.0000 </r>
       <r>    2.5940    0.0000 </r>
       <r>    3.7664    0.0000 </r>
       <r>    4.5150    0.0000 </r>
       <r>    4.9558    0.0000 </r>
       <r>    5.4621    0.0000 </r>
       <r>    5.9111    0.0000 </r>
       <r>    6.5962    0.0000 </r>
      </set>
      <set comment="kpoint 4">
       <r>  -12.7981    1.0000 </r>
       <r>   -8.8593    1.0000 </r>
       <r>   -5.0562    1.0000 </r>
       <r>   -3.3301    1.0000 </r>
       <r>   -2.8761    1.0000 </r>
       <r>   -0.9974    0.0000 </r>
       <r>    1.0881    0.0000 </r>
       <r>    1.2451    0.0000 </r>
       <r>    2.7641    0.0000 </r>
       <r>    2.9981    0.0000 </r>
       <r>    3.8900    0.0000 </r>
       <r>    4.8828    0.0000 </r>
       <r>    5.2922    0.0000 </r>
       <r>    5.5882    0.0000 </r>
       <r>    6.3623    0.0000 </r>
       <r>    6.5375    0.0000 </r>
      </set>
      <set comment="kpoint 5">
       <r>  -12.2593    1.0000 </r>
       <r>   -9.3788    1.0000 </r>
       <r>   -5.3273    1.0000 </r>
       <r>   -3.6479    1.0000 </r>
       <r>   -3.2653    1.0000 </r>
       <r>   -0.9592    0.0000 </r>
       <r>    0.6138    0.0000 </r>
       <r>    1.2849    0.0000 </r>
       <r>    3.0967    0.0000 </r>
       <r>    3.4019    0.0000 </r>
       <r>    4.0232    0.0000 </r>
       <r>    5.2003    0.0000 </r>
       <r>    5.8878    0.0000 </r>
       <r>    5.9267    0.0000 </r>
       <r>    6.4860    0.0000 </r>
       <r>    6.8325    0.0000 </r>
      </set>
      <set comment="kpoint 6">
       <r>  -11.7458    1.0000 </r>
       <r>   -9.9539    1.0000 </r>
       <r>   -5.2558    1.0000 </r>
       <r>   -3.8153    1.0000 </r>
       <r>   -3.6769    1.0000 </r>
       <r>   -0.7166    0.0000 </r>
       <r>    0.2192    0.0000 </r>
       <r>    1.2685    0.0000 </r>
       <r>    2.8469    0.0000 </r>
       <r>    4.2105    0.0000 </r>
       <r>    4.6144    0.0000 </r>
       <r>    5.1114    0.0000 </r>
       <r>    5.4384    0.0000 </r>
       <r>    5.9149    0.0000 </r>
       <r>    6.4589    0.0000 </r>
       <r>    6.7716    0.0000 </r>
      </set>
      <set comment="kpoint 7">
       <r>  -13.3026    1.0000 </r>
       <r>   -8.6068    1.0000 </r>
       <r>   -3.9106    1.0000 </r>
       <r>   -2.9452    1.0000 </r>
       <r>   -2.7837    1.0000 </r>
       <r>    0.0433    0.0000 </r>
       <r>    0.2517    0.0000 </r>
       <r>    1.2166    0.0000 </r>
       <r>    2.4294    0.0000 </r>
       <r>    2.4455    0.0000 </r>
       <r>    3.7123    0.0000 </r>
       <r>    4.5696    0.0000 </r>
       <r>    4.8061    0.0000 </r>
       <r>    5.5048    0.0000 </r>
       <r>    6.1729    0.0000 </r>
       <r>    6.1902    0.0000 </r>
      </set>
      <set comment="kpoint 8">
       <r>  -12.9623    1.0000 </r>
       <r>   -8.7389    1.0000 </r>
       <r>   -4.7289    1.0000 </r>
       <r>   -3.5394    1.0000 </r>
       <r>   -2.7658    1.0000 </r>
       <r>   -0.4129    0.0000 </r>
       <r>    0.7244    0.0000 </r>
       <r>    1.4048    0.0000 </r>
       <r>    2.6683    0.0000 </r>
       <r>    2.8309    0.0000 </r>
       <r>    3.6944    0.0000 </r>
       <r>    4.6867    0.0000 </r>
       <r>    5.1469    0.0000 </r>
       <r>    5.3937    0.0000 </r>
       <r>    6.3499    0.0000 </r>
       <r>    6.8252    0.0000 </r>
      </set>
      <set comment="kpoint 9">
       <r>  -12.4774    1.0000 </r>
       <r>   -9.1259    1.0000 </r>
       <r>   -5.1977    1.0000 </r>
       <r>   -3.9789    1.0000 </r>
       <r>   -2.9703    1.0000 </r>
       <r>   -0.6288    0.0000 </r>
       <r>    0.9132    0.0000 </r>
       <r>    1.0530    0.0000 </r>
       <r>    3.1017    0.0000 </r>
       <r>    3.2647    0.0000 </r>
       <r>    3.9170    0.0000 </r>
       <r>    5.1549    0.0000 </r>
       <r>    5.2958    0.0000 </r>
       <r>    5.7308    0.0000 </r>
       <r>    6.5271    0.0000 </r>
       <r>    6.8583    0.0000 </r>
      </set>
      <set comment="kpoint 10">
       <r>  -11.9168    1.0000 </r>
       <r>   -9.7229    1.0000 </r>
       <r>   -5.2820    1.0000 </r>
       <r>   -4.1654    1.0000 </r>
       <r>   -3.4192    1.0000 </r>
       <r>   -0.4576    0.0000 </r>
       <r>    0.4468    0.0000 </r>
       <r>    1.0567    0.0000 </r>
       <r>    3.0977    0.0000 </r>
       <r>    3.8839    0.0000 </r>
       <r>    4.3753    0.0000 </r>
       <r>    5.3945    0.0000 </r>
       <r>    5.7883    0.0000 </r>
       <r>    6.0075    0.0000 </r>
       <r>    6.4084    0.0000 </r>
       <r>    6.6876    0.0000 </r>
      </set>
      <set comment="kpoint 11">
       <r>  -11.5787    1.0000 </r>
       <r>  -10.0970    1.0000 </r>
       <r>   -5.2537    1.0000 </r>
       <r>   -4.1203    1.0000 </r>
       <r>   -3.7407    1.0000 </r>
       <r>   -0.1561    0.0000 </r>
       <r>    0.0517    0.0000 </r>
       <r>    1.0850    0.0000 </r>
       <r>    2.9111    0.0000 </r>
       <r>    4.7582    0.0000 </r>
       <r>    4.7739    0.0000 </r>
       <r>    5.0696    0.0000 </r>
       <r>    5.3210    0.0000 </r>
       <r>    5.8771    0.0000 </r>
       <r>    6.2282    0.0000 </r>
       <r>    7.1554    0.0000 </r>
      </set>
      <set comment="kpoint 12">
       <r>  -12.5520    1.0000 </r>
       <r>   -9.0318    1.0000 </r>
       <r>   -4.9823    1.0000 </r>
       <r>   -4.3737    1.0000 </r>
       <r>   -2.8617    1.0000 </r>
       <r>   -0.0610    0.0000 </r>
       <r>    0.3744    0.0000 </r>
       <r>    1.4677    0.0000 </r>
       <r>    3.0976    0.0000 </r>
       <r>    3.1569    0.0000 </r>
       <r>    3.7471    0.0000 </r>
       <r>    4.9606    0.0000 </r>
       <r>    5.0283    0.0000 </r>
       <r>    5.6567    0.0000 </r>
       <r>    6.4652    0.0000 </r>
       <r>    7.1582    0.0000 </r>
      </set>
      <set comment="kpoint 13">
       <r>  -12.0193    1.0000 </r>
       <r>   -9.5440    1.0000 </r>
       <r>   -5.1514    1.0000 </r>
       <r>   -4.7418    1.0000 </r>
       <r>   -3.1876    1.0000 </r>
       <r>   -0.1308    0.0000 </r>
       <r>    0.3504    0.0000 </r>
       <r>    1.3885    0.0000 </r>
       <r>    3.4841    0.0000 </r>
       <r>    3.7578    0.0000 </r>
       <r>    4.2287    0.0000 </r>
       <r>    4.8367    0.0000 </r>
       <r>    5.3357    0.0000 </r>
       <r>    6.2293    0.0000 </r>
       <r>    6.3026    0.0000 </r>
       <r>    6.8150    0.0000 </r>
      </set>
      <set comment="kpoint 14">
       <r>  -11.4879    1.0000 </r>
       <r>  -10.1027    1.0000 </r>
       <r>   -5.4122    1.0000 </r>
       <r>   -4.4824    1.0000 </r>
       <r>   -3.6437    1.0000 </r>
       <r>   -0.2995    0.0000 </r>
       <r>    0.6618    0.0000 </r>
       <r>    1.0996    0.0000 </r>
       <r>    3.3724    0.0000 </r>
       <r>    4.5501    0.0000 </r>
       <r>    4.8449    0.0000 </r>
       <r>    5.2078    0.0000 </r>
       <r>    5.6172    0.0000 </r>
       <r>    5.7993    0.0000 </r>
       <r>    6.3686    0.0000 </r>
       <r>    6.8859    0.0000 </r>
      </set>
      <set comment="kpoint 15">
       <r>  -11.4669    1.0000 </r>
       <r>  -10.0742    1.0000 </r>
       <r>   -5.5336    1.0000 </r>
       <r>   -4.6026    1.0000 </r>
       <r>   -3.5516    1.0000 </r>
       <r>   -0.5008    0.0000 </r>
       <r>    0.7079    0.0000 </r>
       <r>    1.5549    0.0000 </r>
       <r>    4.2032    0.0000 </r>
       <r>    4.3769    0.0000 </r>
       <r>    4.5520    0.0000 </r>
       <r>    4.7281    0.0000 </r>
       <r>    5.2589    0.0000 </r>
       <r>    6.4294    0.0000 </r>
       <r>    6.5836    0.0000 </r>
       <r>    6.6163    0.0000 </r>
      </set>
      <set comment="kpoint 16">
       <r>  -11.0462    1.0000 </r>
       <r>  -10.4884    1.0000 </r>
       <r>   -5.7346    1.0000 </r>
       <r>   -4.2749    1.0000 </r>
       <r>   -3.8850    1.0000 </r>
       <r>   -0.7051    0.0000 </r>
       <r>    1.1304    0.0000 </r>
       <r>    1.3259    0.0000 </r>
       <r>    4.2802    0.0000 </r>
       <r>    4.4586    0.0000 </r>
       <r>    5.2852    0.0000 </r>
       <r>    5.3849    0.0000 </r>
       <r>    5.5329    0.0000 </r>
       <r>    6.0992    0.0000 </r>
       <r>    6.1281    0.0000 </r>
       <r>    6.2193    0.0000 </r>
      </set>
     </set>
    </set>
   </array>
  </eigenvalues>
  <separator name="orbital magnetization" >
   <v name="MAGDIPOLOUT">      0.00000000      0.00000000      0.00000000</v>
  </separator>
  <dos>
   <i name="efermi">     -2.24187346 </i>
   <total>
    <array>
     <dimension dim="1">gridpoints</dimension>
     <dimension dim="2">spin</dimension>
     <field>energy</field>
     <field>total</field>
     <field>integrated</field>
     <set>
      <set comment="spin 1">
       <r>   -14.6004     0.0000     0.0000 </r>
       <r>   -14.5966     0.0000     0.0000 </r>
       <r>   -14.5928     0.0000     0.0000 </r>
       <r>   -14.5891     0.0000     0.0000 </r>
       <r>   -14.5853     0.0000     0.0000 </r>
       <r>   -14.5815     0.0000     0.0000 </r>
       <r>   -14.5777     0.0000     0.0000 </r>
       <r>   -14.5739     0.0000     0.0000 </r>
       <r>   -14.5701     0.0000     0.0000 </r>
       <r>   -14.5663     0.0000     0.0000 </r>
       <r>   -14.5625     0.0000     0.0000 </r>
       <r>   -14.5587     0.0000     0.0000 </r>
       <r>   -14.5549     0.0000     0.0000 </r>
       <r>   -14.5511     0.0000     0.0000 </r>
       <r>   -14.5473     0.0000     0.0000 </r>
       <r>   -14.5435     0.0000     0.0000 </r>
       <r>   -14.5397     0.0000     0.0000 </r>
       <r>   -14.5359     0.0000     0.0000 </r>
       <r>   -14.5321     0.0000     0.0000 </r>
       <r>   -14.5283     0.0000     0.0000 </r>
       <r>   -14.5245     0.0000     0.0000 </r>
       <r>   -14.5207     0.0000     0.0000 </r>
       <r>   -14.5169     0.0000     0.0000 </r>
       <r>   -14.5131     0.0000     0.0000 </r>
       <r>   -14.5093     0.0000     0.0000 </r>
       <r>   -14.5055     0.0000     0.0000 </r>
       <r>   -14.5017     0.0000     0.0000 </r>
       <r>   -14.4979     0.0000     0.0000 </r>
       <r>   -14.4941     0.0000     0.0000 </r>
       <r>   -14.4903     0.0000     0.0000 </r>
       <r>   -14.4865     0.0000     0.0000 </r>
       <r>   -14.4827     0.0000     0.0000 </r>
       <r>   -14.4789     0.0000     0.0000 </r>
       <r>   -14.4751     0.0000     0.0000 </r>
       <r>   -14.4713     0.0000     0.0000 </r>
       <r>   -14.4675     0.0000     0.0000 </r>
       <r>   -14.4637     0.0000     0.0000 </r>
       <r>   -14.4599     0.0000     0.0000 </r>
       <r>   -14.4561     0.0000     0.0000 </r>
       <r>   -14.4523     0.0000     0.0000 </r>
       <r>   -14.4485     0.0000     0.0000 </r>
       <r>   -14.4447     0.0000     0.0000 </r>
       <r>   -14.4409     0.0000     0.0000 </r>
       <r>   -14.4371     0.0000     0.0000 </r>
       <r>   -14.4333     0.0000     0.0000 </r>
       <r>   -14.4295     0.0000     0.0000 </r>
       <r>   -14.4257     0.0000     0.0000 </r>
       <r>   -14.4219     0.0000     0.0000 </r>
       <r>   -14.4181     0.0000     0.0000 </r>
       <r>   -14.4143     0.0000     0.0000 </r>
       <r>   -14.4105     0.0000     0.0000 </r>
       <r>   -14.4067     0.0000     0.0000 </r>
       <r>   -14.4029     0.0000     0.0000 </r>
       <r>   -14.3991     0.0000     0.0000 </r>
       <r>   -14.3953     0.0000     0.0000 </r>
       <r>   -14.3915     0.0000     0.0000 </r>
       <r>   -14.3877     0.0000     0.0000 </r>
       <r>   -14.3839     0.0000     0.0000 </r>
       <r>   -14.3801     0.0000     0.0000 </r>
       <r>   -14.3763     0.0000     0.0000 </r>
       <r>   -14.3725     0.0000     0.0000 </r>
       <r>   -14.3687     0.0000     0.0000 </r>
       <r>   -14.3649     0.0000     0.0000 </r>
       <r>   -14.3611     0.0000     0.0000 </r>
       <r>   -14.3573     0.0000     0.0000 </r>
       <r>   -14.3535     0.0000     0.0000 </r>
       <r>   -14.3497     0.0000     0.0000 </r>
       <r>   -14.3459     0.0000     0.0000 </r>
       <r>   -14.3421     0.0000     0.0000 </r>
       <r>   -14.3383     0.0000     0.0000 </r>
       <r>   -14.3345     0.0000     0.0000 </r>
       <r>   -14.3307     0.0000     0.0000 </r>
       <r>   -14.3269     0.0000     0.0000 </r>
       <r>   -14.3231     0.0000     0.0000 </r>
       <r>   -14.3193     0.0000     0.0000 </r>
       <r>   -14.3155     0.0000     0.0000 </r>
       <r>   -14.3117     0.0000     0.0000 </r>
       <r>   -14.3079     0.0000     0.0000 </r>
       <r>   -14.3041     0.0000     0.0000 </r>
       <r>   -14.3003     0.0000     0.0000 </r>
       <r>   -14.2965     0.0000     0.0000 </r>
       <r>   -14.2927     0.0000     0.0000 </r>
       <r>   -14.2889     0.0000     0.0000 </r>
       <r>   -14.2851     0.0000     0.0000 </r>
       <r>   -14.2813     0.0000     0.0000 </r>
       <r>   -14.2775     0.0000     0.0000 </r>
       <r>   -14.2737     0.0000     0.0000 </r>
       <r>   -14.2699     0.0000     0.0000 </r>
       <r>   -14.2661     0.0000     0.0000 </r>
       <r>   -14.2623     0.0000     0.0000 </r>
       <r>   -14.2585     0.0000     0.0000 </r>
       <r>   -14.2547     0.0000     0.0000 </r>
       <r>   -14.2509     0.0000     0.0000 </r>
       <r>   -14.2471     0.0000     0.0000 </r>
       <r>   -14.2433     0.0000     0.0000 </r>
       <r>   -14.2395     0.0000     0.0000 </r>
       <r>   -14.2357     0.0000     0.0000 </r>
       <r>   -14.2319     0.0000     0.0000 </r>
       <r>   -14.2281     0.0000     0.0000 </r>
       <r>   -14.2243     0.0000     0.0000 </r>
       <r>   -14.2205     0.0000     0.0000 </r>
       <r>   -14.2167     0.0000     0.0000 </r>
       <r>   -14.2129     0.0000     0.0000 </r>
       <r>   -14.2091     0.0000     0.0000 </r>
       <r>   -14.2053     0.0000     0.0000 </r>
       <r>   -14.2015     0.0000     0.0000 </r>
       <r>   -14.1977     0.0000     0.0000 </r>
       <r>   -14.1939     0.0000     0.0000 </r>
       <r>   -14.1901     0.0000     0.0000 </r>
       <r>   -14.1863     0.0000     0.0000 </r>
       <r>   -14.1825     0.0000     0.0000 </r>
       <r>   -14.1787     0.0000     0.0000 </r>
       <r>   -14.1749     0.0000     0.0000 </r>
       <r>   -14.1711     0.0000     0.0000 </r>
       <r>   -14.1673     0.0000     0.0000 </r>
       <r>   -14.1635     0.0000     0.0000 </r>
       <r>   -14.1597     0.0000     0.0000 </r>
       <r>   -14.1559     0.0000     0.0000 </r>
       <r>   -14.1522     0.0000     0.0000 </r>
       <r>   -14.1484     0.0000     0.0000 </r>
       <r>   -14.1446     0.0000     0.0000 </r>
       <r>   -14.1408     0.0000     0.0000 </r>
       <r>   -14.1370     0.0000     0.0000 </r>
       <r>   -14.1332     0.0000     0.0000 </r>
       <r>   -14.1294     0.0000     0.0000 </r>
       <r>   -14.1256     0.0000     0.0000 </r>
       <r>   -14.1218     0.0000     0.0000 </r>
       <r>   -14.1180     0.0000     0.0000 </r>
       <r>   -14.1142     0.0000     0.0000 </r>
       <r>   -14.1104     0.0000     0.0000 </r>
       <r>   -14.1066     0.0000     0.0000 </r>
       <r>   -14.1028     0.0000     0.0000 </r>
       <r>   -14.0990     0.0000     0.0000 </r>
       <r>   -14.0952     0.0000     0.0000 </r>
       <r>   -14.0914     0.0000     0.0000 </r>
       <r>   -14.0876     0.0000     0.0000 </r>
       <r>   -14.0838     0.0000     0.0000 </r>
       <r>   -14.0800     0.0000     0.0000 </r>
       <r>   -14.0762     0.0000     0.0000 </r>
       <r>   -14.0724     0.0000     0.0000 </r>
       <r>   -14.0686     0.0000     0.0000 </r>
       <r>   -14.0648     0.0000     0.0000 </r>
       <r>   -14.0610     0.0000     0.0000 </r>
       <r>   -14.0572     0.0000     0.0000 </r>
       <r>   -14.0534     0.0000     0.0000 </r>
       <r>   -14.0496     0.0000     0.0000 </r>
       <r>   -14.0458     0.0000     0.0000 </r>
       <r>   -14.0420     0.0000     0.0000 </r>
       <r>   -14.0382     0.0000     0.0000 </r>
       <r>   -14.0344     0.0000     0.0000 </r>
       <r>   -14.0306     0.0000     0.0000 </r>
       <r>   -14.0268     0.0000     0.0000 </r>
       <r>   -14.0230     0.0000     0.0000 </r>
       <r>   -14.0192     0.0000     0.0000 </r>
       <r>   -14.0154     0.0000     0.0000 </r>
       <r>   -14.0116     0.0000     0.0000 </r>
       <r>   -14.0078     0.0000     0.0000 </r>
       <r>   -14.0040     0.0000     0.0000 </r>
       <r>   -14.0002     0.0000     0.0000 </r>
       <r>   -13.9964     0.0000     0.0000 </r>
       <r>   -13.9926     0.0000     0.0000 </r>
       <r>   -13.9888     0.0000     0.0000 </r>
       <r>   -13.9850     0.0000     0.0000 </r>
       <r>   -13.9812     0.0000     0.0000 </r>
       <r>   -13.9774     0.0000     0.0000 </r>
       <r>   -13.9736     0.0000     0.0000 </r>
       <r>   -13.9698     0.0000     0.0000 </r>
       <r>   -13.9660     0.0000     0.0000 </r>
       <r>   -13.9622     0.0000     0.0000 </r>
       <r>   -13.9584     0.0000     0.0000 </r>
       <r>   -13.9546     0.0000     0.0000 </r>
       <r>   -13.9508     0.0000     0.0000 </r>
       <r>   -13.9470     0.0000     0.0000 </r>
       <r>   -13.9432     0.0000     0.0000 </r>
       <r>   -13.9394     0.0000     0.0000 </r>
       <r>   -13.9356     0.0000     0.0000 </r>
       <r>   -13.9318     0.0000     0.0000 </r>
       <r>   -13.9280     0.0000     0.0000 </r>
       <r>   -13.9242     0.0000     0.0000 </r>
       <r>   -13.9204     0.0000     0.0000 </r>
       <r>   -13.9166     0.0000     0.0000 </r>
       <r>   -13.9128     0.0000     0.0000 </r>
       <r>   -13.9090     0.0000     0.0000 </r>
       <r>   -13.9052     0.0000     0.0000 </r>
       <r>   -13.9014     0.0000     0.0000 </r>
       <r>   -13.8976     0.0000     0.0000 </r>
       <r>   -13.8938     0.0000     0.0000 </r>
       <r>   -13.8900     0.0000     0.0000 </r>
       <r>   -13.8862     0.0000     0.0000 </r>
       <r>   -13.8824     0.0000     0.0000 </r>
       <r>   -13.8786     0.0000     0.0000 </r>
       <r>   -13.8748     0.0000     0.0000 </r>
       <r>   -13.8710     0.0000     0.0000 </r>
       <r>   -13.8672     0.0000     0.0000 </r>
       <r>   -13.8634     0.0000     0.0000 </r>
       <r>   -13.8596     0.0000     0.0000 </r>
       <r>   -13.8558     0.0000     0.0000 </r>
       <r>   -13.8520     0.0000     0.0000 </r>
       <r>   -13.8482     0.0000     0.0000 </r>
       <r>   -13.8444     0.0000     0.0000 </r>
       <r>   -13.8406     0.0000     0.0000 </r>
       <r>   -13.8368     0.0000     0.0000 </r>
       <r>   -13.8330     0.0000     0.0000 </r>
       <r>   -13.8292     0.0000     0.0000 </r>
       <r>   -13.8254     0.0000     0.0000 </r>
       <r>   -13.8216     0.0000     0.0000 </r>
       <r>   -13.8178     0.0000     0.0000 </r>
       <r>   -13.8140     0.0000     0.0000 </r>
       <r>   -13.8102     0.0000     0.0000 </r>
       <r>   -13.8064     0.0000     0.0000 </r>
       <r>   -13.8026     0.0000     0.0000 </r>
       <r>   -13.7988     0.0000     0.0000 </r>
       <r>   -13.7950     0.0000     0.0000 </r>
       <r>   -13.7912     0.0000     0.0000 </r>
       <r>   -13.7874     0.0000     0.0000 </r>
       <r>   -13.7836     0.0000     0.0000 </r>
       <r>   -13.7798     0.0000     0.0000 </r>
       <r>   -13.7760     0.0000     0.0000 </r>
       <r>   -13.7722     0.0000     0.0000 </r>
       <r>   -13.7684     0.0000     0.0000 </r>
       <r>   -13.7646     0.0000     0.0000 </r>
       <r>   -13.7608     0.0000     0.0000 </r>
       <r>   -13.7570     0.0000     0.0000 </r>
       <r>   -13.7532     0.0000     0.0000 </r>
       <r>   -13.7494     0.0000     0.0000 </r>
       <r>   -13.7456     0.0000     0.0000 </r>
       <r>   -13.7418     0.0000     0.0000 </r>
       <r>   -13.7380     0.0000     0.0000 </r>
       <r>   -13.7342     0.0000     0.0000 </r>
       <r>   -13.7304     0.0000     0.0000 </r>
       <r>   -13.7266     0.0000     0.0000 </r>
       <r>   -13.7228     0.0000     0.0000 </r>
       <r>   -13.7190     0.0000     0.0000 </r>
       <r>   -13.7153     0.0000     0.0000 </r>
       <r>   -13.7115     0.0000     0.0000 </r>
       <r>   -13.7077     0.0000     0.0000 </r>
       <r>   -13.7039     0.0000     0.0000 </r>
       <r>   -13.7001     0.0000     0.0000 </r>
       <r>   -13.6963     0.0000     0.0000 </r>
       <r>   -13.6925     0.0000     0.0000 </r>
       <r>   -13.6887     0.0000     0.0000 </r>
       <r>   -13.6849     0.0000     0.0000 </r>
       <r>   -13.6811     0.0000     0.0000 </r>
       <r>   -13.6773     0.0000     0.0000 </r>
       <r>   -13.6735     0.0000     0.0000 </r>
       <r>   -13.6697     0.0000     0.0000 </r>
       <r>   -13.6659     0.0000     0.0000 </r>
       <r>   -13.6621     0.0000     0.0000 </r>
       <r>   -13.6583     0.0000     0.0000 </r>
       <r>   -13.6545     0.0000     0.0000 </r>
       <r>   -13.6507     0.0000     0.0000 </r>
       <r>   -13.6469     0.0000     0.0000 </r>
       <r>   -13.6431     0.0000     0.0000 </r>
       <r>   -13.6393     0.0000     0.0000 </r>
       <r>   -13.6355     0.0000     0.0000 </r>
       <r>   -13.6317     0.0000     0.0000 </r>
       <r>   -13.6279     0.0000     0.0000 </r>
       <r>   -13.6241     0.0000     0.0000 </r>
       <r>   -13.6203     0.0000     0.0000 </r>
       <r>   -13.6165     0.0000     0.0000 </r>
       <r>   -13.6127     0.0000     0.0000 </r>
       <r>   -13.6089     0.0000     0.0000 </r>
       <r>   -13.6051     0.0000     0.0000 </r>
       <r>   -13.6013     0.0000     0.0000 </r>
       <r>   -13.5975     0.0000     0.0000 </r>
       <r>   -13.5937     0.0001     0.0000 </r>
       <r>   -13.5899     0.0006     0.0000 </r>
       <r>   -13.5861     0.0039     0.0000 </r>
       <r>   -13.5823     0.0196     0.0001 </r>
       <r>   -13.5785     0.0743     0.0004 </r>
       <r>   -13.5747     0.2123     0.0012 </r>
       <r>   -13.5709     0.4580     0.0029 </r>
       <r>   -13.5671     0.7453     0.0058 </r>
       <r>   -13.5633     0.9148     0.0092 </r>
       <r>   -13.5595     0.8471     0.0124 </r>
       <r>   -13.5557     0.5918     0.0147 </r>
       <r>   -13.5519     0.3119     0.0159 </r>
       <r>   -13.5481     0.1240     0.0163 </r>
       <r>   -13.5443     0.0372     0.0165 </r>
       <r>   -13.5405     0.0084     0.0165 </r>
       <r>   -13.5367     0.0014     0.0165 </r>
       <r>   -13.5329     0.0002     0.0165 </r>
       <r>   -13.5291     0.0000     0.0165 </r>
       <r>   -13.5253     0.0000     0.0165 </r>
       <r>   -13.5215     0.0000     0.0165 </r>
       <r>   -13.5177     0.0000     0.0165 </r>
       <r>   -13.5139     0.0000     0.0165 </r>
       <r>   -13.5101     0.0000     0.0165 </r>
       <r>   -13.5063     0.0003     0.0165 </r>
       <r>   -13.5025     0.0027     0.0165 </r>
       <r>   -13.4987     0.0186     0.0166 </r>
       <r>   -13.4949     0.0971     0.0170 </r>
       <r>   -13.4911     0.3818     0.0184 </r>
       <r>   -13.4873     1.1318     0.0227 </r>
       <r>   -13.4835     2.5308     0.0323 </r>
       <r>   -13.4797     4.2686     0.0486 </r>
       <r>   -13.4759     5.4314     0.0692 </r>
       <r>   -13.4721     5.2138     0.0890 </r>
       <r>   -13.4683     3.7758     0.1033 </r>
       <r>   -13.4645     2.0628     0.1112 </r>
       <r>   -13.4607     0.8500     0.1144 </r>
       <r>   -13.4569     0.2642     0.1154 </r>
       <r>   -13.4531     0.0619     0.1157 </r>
       <r>   -13.4493     0.0109     0.1157 </r>
       <r>   -13.4455     0.0015     0.1157 </r>
       <r>   -13.4417     0.0001     0.1157 </r>
       <r>   -13.4379     0.0000     0.1157 </r>
       <r>   -13.4341     0.0000     0.1157 </r>
       <r>   -13.4303     0.0000     0.1157 </r>
       <r>   -13.4265     0.0000     0.1157 </r>
       <r>   -13.4227     0.0000     0.1157 </r>
       <r>   -13.4189     0.0000     0.1157 </r>
       <r>   -13.4151     0.0000     0.1157 </r>
       <r>   -13.4113     0.0000     0.1157 </r>
       <r>   -13.4075     0.0000     0.1157 </r>
       <r>   -13.4037     0.0000     0.1157 </r>
       <r>   -13.3999     0.0000     0.1157 </r>
       <r>   -13.3961     0.0000     0.1157 </r>
       <r>   -13.3923     0.0000     0.1157 </r>
       <r>   -13.3885     0.0000     0.1157 </r>
       <r>   -13.3847     0.0000     0.1157 </r>
       <r>   -13.3809     0.0000     0.1157 </r>
       <r>   -13.3771     0.0000     0.1157 </r>
       <r>   -13.3733     0.0000     0.1157 </r>
       <r>   -13.3695     0.0000     0.1157 </r>
       <r>   -13.3657     0.0000     0.1157 </r>
       <r>   -13.3619     0.0000     0.1157 </r>
       <r>   -13.3581     0.0000     0.1157 </r>
       <r>   -13.3543     0.0000     0.1157 </r>
       <r>   -13.3505     0.0000     0.1157 </r>
       <r>   -13.3467     0.0000     0.1157 </r>
       <r>   -13.3429     0.0000     0.1157 </r>
       <r>   -13.3391     0.0000     0.1157 </r>
       <r>   -13.3353     0.0000     0.1157 </r>
       <r>   -13.3315     0.0005     0.1157 </r>
       <r>   -13.3277     0.0045     0.1157 </r>
       <r>   -13.3239     0.0289     0.1158 </r>
       <r>   -13.3201     0.1406     0.1164 </r>
       <r>   -13.3163     0.5148     0.1183 </r>
       <r>   -13.3125     1.4221     0.1237 </r>
       <r>   -13.3087     2.9628     0.1350 </r>
       <r>   -13.3049     4.6562     0.1527 </r>
       <r>   -13.3011     5.5203     0.1736 </r>
       <r>   -13.2973     4.9375     0.1924 </r>
       <r>   -13.2935     3.3317     0.2051 </r>
       <r>   -13.2897     1.6959     0.2115 </r>
       <r>   -13.2859     0.6511     0.2140 </r>
       <r>   -13.2821     0.1885     0.2147 </r>
       <r>   -13.2784     0.0412     0.2148 </r>
       <r>   -13.2746     0.0068     0.2149 </r>
       <r>   -13.2708     0.0008     0.2149 </r>
       <r>   -13.2670     0.0001     0.2149 </r>
       <r>   -13.2632     0.0000     0.2149 </r>
       <r>   -13.2594     0.0000     0.2149 </r>
       <r>   -13.2556     0.0000     0.2149 </r>
       <r>   -13.2518     0.0000     0.2149 </r>
       <r>   -13.2480     0.0001     0.2149 </r>
       <r>   -13.2442     0.0012     0.2149 </r>
       <r>   -13.2404     0.0094     0.2149 </r>
       <r>   -13.2366     0.0544     0.2151 </r>
       <r>   -13.2328     0.2374     0.2160 </r>
       <r>   -13.2290     0.7815     0.2190 </r>
       <r>   -13.2252     1.9402     0.2264 </r>
       <r>   -13.2214     3.6335     0.2402 </r>
       <r>   -13.2176     5.1330     0.2597 </r>
       <r>   -13.2138     5.4705     0.2805 </r>
       <r>   -13.2100     4.3985     0.2972 </r>
       <r>   -13.2062     2.6680     0.3073 </r>
       <r>   -13.2024     1.2207     0.3119 </r>
       <r>   -13.1986     0.4212     0.3135 </r>
       <r>   -13.1948     0.1096     0.3140 </r>
       <r>   -13.1910     0.0215     0.3140 </r>
       <r>   -13.1872     0.0032     0.3140 </r>
       <r>   -13.1834     0.0004     0.3140 </r>
       <r>   -13.1796     0.0000     0.3140 </r>
       <r>   -13.1758     0.0000     0.3140 </r>
       <r>   -13.1720     0.0000     0.3140 </r>
       <r>   -13.1682     0.0000     0.3140 </r>
       <r>   -13.1644     0.0000     0.3140 </r>
       <r>   -13.1606     0.0000     0.3140 </r>
       <r>   -13.1568     0.0000     0.3140 </r>
       <r>   -13.1530     0.0000     0.3140 </r>
       <r>   -13.1492     0.0000     0.3140 </r>
       <r>   -13.1454     0.0000     0.3140 </r>
       <r>   -13.1416     0.0000     0.3140 </r>
       <r>   -13.1378     0.0000     0.3140 </r>
       <r>   -13.1340     0.0000     0.3140 </r>
       <r>   -13.1302     0.0000     0.3140 </r>
       <r>   -13.1264     0.0000     0.3140 </r>
       <r>   -13.1226     0.0000     0.3140 </r>
       <r>   -13.1188     0.0000     0.3140 </r>
       <r>   -13.1150     0.0000     0.3140 </r>
       <r>   -13.1112     0.0000     0.3140 </r>
       <r>   -13.1074     0.0000     0.3140 </r>
       <r>   -13.1036     0.0000     0.3140 </r>
       <r>   -13.0998     0.0000     0.3140 </r>
       <r>   -13.0960     0.0000     0.3140 </r>
       <r>   -13.0922     0.0000     0.3140 </r>
       <r>   -13.0884     0.0000     0.3140 </r>
       <r>   -13.0846     0.0000     0.3140 </r>
       <r>   -13.0808     0.0000     0.3140 </r>
       <r>   -13.0770     0.0000     0.3140 </r>
       <r>   -13.0732     0.0000     0.3140 </r>
       <r>   -13.0694     0.0000     0.3140 </r>
       <r>   -13.0656     0.0000     0.3140 </r>
       <r>   -13.0618     0.0000     0.3140 </r>
       <r>   -13.0580     0.0000     0.3140 </r>
       <r>   -13.0542     0.0000     0.3140 </r>
       <r>   -13.0504     0.0000     0.3140 </r>
       <r>   -13.0466     0.0000     0.3140 </r>
       <r>   -13.0428     0.0000     0.3140 </r>
       <r>   -13.0390     0.0000     0.3140 </r>
       <r>   -13.0352     0.0000     0.3140 </r>
       <r>   -13.0314     0.0000     0.3140 </r>
       <r>   -13.0276     0.0000     0.3140 </r>
       <r>   -13.0238     0.0000     0.3140 </r>
       <r>   -13.0200     0.0000     0.3140 </r>
       <r>   -13.0162     0.0000     0.3140 </r>
       <r>   -13.0124     0.0000     0.3140 </r>
       <r>   -13.0086     0.0000     0.3140 </r>
       <r>   -13.0048     0.0000     0.3140 </r>
       <r>   -13.0010     0.0000     0.3140 </r>
       <r>   -12.9972     0.0000     0.3140 </r>
       <r>   -12.9934     0.0003     0.3141 </r>
       <r>   -12.9896     0.0026     0.3141 </r>
       <r>   -12.9858     0.0200     0.3141 </r>
       <r>   -12.9820     0.1146     0.3146 </r>
       <r>   -12.9782     0.4959     0.3165 </r>
       <r>   -12.9744     1.6176     0.3226 </r>
       <r>   -12.9706     3.9790     0.3377 </r>
       <r>   -12.9668     7.3828     0.3658 </r>
       <r>   -12.9630    10.3336     0.4050 </r>
       <r>   -12.9592    10.9117     0.4465 </r>
       <r>   -12.9554     8.6926     0.4795 </r>
       <r>   -12.9516     5.2240     0.4994 </r>
       <r>   -12.9478     2.3682     0.5083 </r>
       <r>   -12.9440     0.8097     0.5114 </r>
       <r>   -12.9402     0.2087     0.5122 </r>
       <r>   -12.9364     0.0406     0.5124 </r>
       <r>   -12.9326     0.0059     0.5124 </r>
       <r>   -12.9288     0.0007     0.5124 </r>
       <r>   -12.9250     0.0001     0.5124 </r>
       <r>   -12.9212     0.0000     0.5124 </r>
       <r>   -12.9174     0.0000     0.5124 </r>
       <r>   -12.9136     0.0000     0.5124 </r>
       <r>   -12.9098     0.0000     0.5124 </r>
       <r>   -12.9060     0.0000     0.5124 </r>
       <r>   -12.9022     0.0000     0.5124 </r>
       <r>   -12.8984     0.0000     0.5124 </r>
       <r>   -12.8946     0.0000     0.5124 </r>
       <r>   -12.8908     0.0000     0.5124 </r>
       <r>   -12.8870     0.0000     0.5124 </r>
       <r>   -12.8832     0.0000     0.5124 </r>
       <r>   -12.8794     0.0000     0.5124 </r>
       <r>   -12.8756     0.0000     0.5124 </r>
       <r>   -12.8718     0.0000     0.5124 </r>
       <r>   -12.8680     0.0000     0.5124 </r>
       <r>   -12.8642     0.0000     0.5124 </r>
       <r>   -12.8604     0.0000     0.5124 </r>
       <r>   -12.8566     0.0000     0.5124 </r>
       <r>   -12.8528     0.0000     0.5124 </r>
       <r>   -12.8490     0.0000     0.5124 </r>
       <r>   -12.8452     0.0000     0.5124 </r>
       <r>   -12.8415     0.0000     0.5124 </r>
       <r>   -12.8377     0.0000     0.5124 </r>
       <r>   -12.8339     0.0000     0.5124 </r>
       <r>   -12.8301     0.0001     0.5124 </r>
       <r>   -12.8263     0.0008     0.5124 </r>
       <r>   -12.8225     0.0066     0.5124 </r>
       <r>   -12.8187     0.0401     0.5126 </r>
       <r>   -12.8149     0.1843     0.5133 </r>
       <r>   -12.8111     0.6395     0.5157 </r>
       <r>   -12.8073     1.6735     0.5221 </r>
       <r>   -12.8035     3.3027     0.5346 </r>
       <r>   -12.7997     4.9171     0.5533 </r>
       <r>   -12.7959     5.5227     0.5743 </r>
       <r>   -12.7921     4.6796     0.5921 </r>
       <r>   -12.7883     2.9914     0.6034 </r>
       <r>   -12.7845     1.4425     0.6089 </r>
       <r>   -12.7807     0.5246     0.6109 </r>
       <r>   -12.7769     0.1439     0.6114 </r>
       <r>   -12.7731     0.0297     0.6116 </r>
       <r>   -12.7693     0.0046     0.6116 </r>
       <r>   -12.7655     0.0005     0.6116 </r>
       <r>   -12.7617     0.0000     0.6116 </r>
       <r>   -12.7579     0.0000     0.6116 </r>
       <r>   -12.7541     0.0000     0.6116 </r>
       <r>   -12.7503     0.0000     0.6116 </r>
       <r>   -12.7465     0.0000     0.6116 </r>
       <r>   -12.7427     0.0000     0.6116 </r>
       <r>   -12.7389     0.0000     0.6116 </r>
       <r>   -12.7351     0.0000     0.6116 </r>
       <r>   -12.7313     0.0000     0.6116 </r>
       <r>   -12.7275     0.0000     0.6116 </r>
       <r>   -12.7237     0.0000     0.6116 </r>
       <r>   -12.7199     0.0000     0.6116 </r>
       <r>   -12.7161     0.0000     0.6116 </r>
       <r>   -12.7123     0.0000     0.6116 </r>
       <r>   -12.7085     0.0000     0.6116 </r>
       <r>   -12.7047     0.0000     0.6116 </r>
       <r>   -12.7009     0.0000     0.6116 </r>
       <r>   -12.6971     0.0000     0.6116 </r>
       <r>   -12.6933     0.0000     0.6116 </r>
       <r>   -12.6895     0.0000     0.6116 </r>
       <r>   -12.6857     0.0000     0.6116 </r>
       <r>   -12.6819     0.0000     0.6116 </r>
       <r>   -12.6781     0.0000     0.6116 </r>
       <r>   -12.6743     0.0000     0.6116 </r>
       <r>   -12.6705     0.0000     0.6116 </r>
       <r>   -12.6667     0.0000     0.6116 </r>
       <r>   -12.6629     0.0000     0.6116 </r>
       <r>   -12.6591     0.0000     0.6116 </r>
       <r>   -12.6553     0.0000     0.6116 </r>
       <r>   -12.6515     0.0000     0.6116 </r>
       <r>   -12.6477     0.0000     0.6116 </r>
       <r>   -12.6439     0.0000     0.6116 </r>
       <r>   -12.6401     0.0000     0.6116 </r>
       <r>   -12.6363     0.0000     0.6116 </r>
       <r>   -12.6325     0.0000     0.6116 </r>
       <r>   -12.6287     0.0000     0.6116 </r>
       <r>   -12.6249     0.0000     0.6116 </r>
[...]
       <set comment="band 13">
        <r>  0.0024  0.0027  0.0617  0.0037 </r>
        <r>  0.0024  0.0027  0.0617  0.0037 </r>
       </set>
       <set comment="band 14">
        <r>  0.0150  0.0708  0.0936  0.0025 </r>
        <r>  0.0150  0.0708  0.0936  0.0025 </r>
       </set>
       <set comment="band 15">
        <r>  0.0115  0.0460  0.1199  0.0166 </r>
        <r>  0.0115  0.0460  0.1199  0.0166 </r>
       </set>
       <set comment="band 16">
        <r>  0.0217  0.0720  0.0565  0.0103 </r>
        <r>  0.0217  0.0720  0.0565  0.0103 </r>
       </set>
      </set>
      <set comment="kpoint 9">
       <set comment="band 1">
        <r>  0.3414  0.0256  0.0030  0.0007 </r>
        <r>  0.3414  0.0256  0.0030  0.0007 </r>
       </set>
       <set comment="band 2">
        <r>  0.3982  0.0248  0.0069  0.0009 </r>
        <r>  0.3982  0.0248  0.0069  0.0009 </r>
       </set>
       <set comment="band 3">
        <r>  0.0104  0.2639  0.0092  0.0006 </r>
        <r>  0.0104  0.2639  0.0092  0.0006 </r>
       </set>
       <set comment="band 4">
        <r>  0.0091  0.3089  0.0172  0.0023 </r>
        <r>  0.0091  0.3089  0.0172  0.0023 </r>
       </set>
       <set comment="band 5">
        <r>  0.0326  0.3033  0.0025  0.0016 </r>
        <r>  0.0326  0.3033  0.0025  0.0016 </r>
       </set>
       <set comment="band 6">
        <r>  0.0311  0.2165  0.0267  0.0040 </r>
        <r>  0.0311  0.2165  0.0267  0.0040 </r>
       </set>
       <set comment="band 7">
        <r>  0.0028  0.3125  0.0255  0.0034 </r>
        <r>  0.0028  0.3125  0.0255  0.0034 </r>
       </set>
       <set comment="band 8">
        <r>  0.0317  0.2199  0.0382  0.0051 </r>
        <r>  0.0317  0.2199  0.0382  0.0051 </r>
       </set>
       <set comment="band 9">
        <r>  0.0062  0.0273  0.0377  0.0020 </r>
        <r>  0.0062  0.0273  0.0377  0.0020 </r>
       </set>
       <set comment="band 10">
        <r>  0.0024  0.0613  0.0157  0.0016 </r>
        <r>  0.0024  0.0613  0.0157  0.0016 </r>
       </set>
       <set comment="band 11">
        <r>  0.0003  0.0444  0.0466  0.0031 </r>
        <r>  0.0003  0.0444  0.0466  0.0031 </r>
       </set>
       <set comment="band 12">
        <r>  0.0059  0.0508  0.0239  0.0018 </r>
        <r>  0.0059  0.0508  0.0239  0.0018 </r>
       </set>
       <set comment="band 13">
        <r>  0.0097  0.0592  0.1050  0.0133 </r>
        <r>  0.0097  0.0592  0.1050  0.0133 </r>
       </set>
       <set comment="band 14">
        <r>  0.0084  0.0123  0.0267  0.0038 </r>
        <r>  0.0084  0.0123  0.0267  0.0038 </r>
       </set>
       <set comment="band 15">
        <r>  0.0267  0.0327  0.0484  0.0137 </r>
        <r>  0.0267  0.0327  0.0484  0.0137 </r>
       </set>
       <set comment="band 16">
        <r>  0.0000  0.0444  0.0539  0.0101 </r>
        <r>  0.0000  0.0444  0.0539  0.0101 </r>
       </set>
      </set>
      <set comment="kpoint 10">
       <set comment="band 1">
        <r>  0.3504  0.0279  0.0047  0.0007 </r>
        <r>  0.3504  0.0279  0.0047  0.0007 </r>
       </set>
       <set comment="band 2">
        <r>  0.3724  0.0369  0.0074  0.0007 </r>
        <r>  0.3724  0.0369  0.0074  0.0007 </r>
       </set>
       <set comment="band 3">
        <r>  0.0425  0.2448  0.0047  0.0005 </r>
        <r>  0.0425  0.2448  0.0047  0.0005 </r>
       </set>
       <set comment="band 4">
        <r>  0.0057  0.3071  0.0150  0.0021 </r>
        <r>  0.0057  0.3071  0.0150  0.0021 </r>
       </set>
       <set comment="band 5">
        <r>  0.0372  0.2882  0.0032  0.0016 </r>
        <r>  0.0372  0.2882  0.0032  0.0016 </r>
       </set>
       <set comment="band 6">
        <r>  0.0247  0.2177  0.0332  0.0035 </r>
        <r>  0.0247  0.2177  0.0332  0.0035 </r>
       </set>
       <set comment="band 7">
        <r>  0.0121  0.2305  0.0417  0.0031 </r>
        <r>  0.0121  0.2305  0.0417  0.0031 </r>
       </set>
       <set comment="band 8">
        <r>  0.0109  0.2829  0.0277  0.0031 </r>
        <r>  0.0109  0.2829  0.0277  0.0031 </r>
       </set>
       <set comment="band 9">
        <r>  0.0002  0.0517  0.0818  0.0020 </r>
        <r>  0.0002  0.0517  0.0818  0.0020 </r>
       </set>
       <set comment="band 10">
        <r>  0.0096  0.0141  0.0167  0.0016 </r>
        <r>  0.0096  0.0141  0.0167  0.0016 </r>
       </set>
       <set comment="band 11">
        <r>  0.0007  0.0247  0.0132  0.0007 </r>
        <r>  0.0007  0.0247  0.0132  0.0007 </r>
       </set>
       <set comment="band 12">
        <r>  0.0116  0.0516  0.0316  0.0068 </r>
        <r>  0.0116  0.0516  0.0316  0.0068 </r>
       </set>
       <set comment="band 13">
        <r>  0.0034  0.0686  0.0367  0.0042 </r>
        <r>  0.0034  0.0686  0.0367  0.0042 </r>
       </set>
       <set comment="band 14">
        <r>  0.0045  0.0479  0.0147  0.0048 </r>
        <r>  0.0045  0.0479  0.0147  0.0048 </r>
       </set>
       <set comment="band 15">
        <r>  0.0124  0.0187  0.0173  0.0041 </r>
        <r>  0.0124  0.0187  0.0173  0.0041 </r>
       </set>
       <set comment="band 16">
        <r>  0.0009  0.0162  0.0184  0.0070 </r>
        <r>  0.0009  0.0162  0.0184  0.0070 </r>
       </set>
      </set>
      <set comment="kpoint 11">
       <set comment="band 1">
        <r>  0.3608  0.0267  0.0060  0.0008 </r>
        <r>  0.3608  0.0267  0.0060  0.0008 </r>
       </set>
       <set comment="band 2">
        <r>  0.3529  0.0440  0.0066  0.0006 </r>
        <r>  0.3529  0.0440  0.0066  0.0006 </r>
       </set>
       <set comment="band 3">
        <r>  0.0601  0.2380  0.0034  0.0005 </r>
        <r>  0.0601  0.2380  0.0034  0.0005 </r>
       </set>
       <set comment="band 4">
        <r>  0.0020  0.3164  0.0148  0.0021 </r>
        <r>  0.0020  0.3164  0.0148  0.0021 </r>
       </set>
       <set comment="band 5">
        <r>  0.0373  0.2697  0.0029  0.0015 </r>
        <r>  0.0373  0.2697  0.0029  0.0015 </r>
       </set>
       <set comment="band 6">
        <r>  0.0349  0.2151  0.0449  0.0047 </r>
        <r>  0.0349  0.2151  0.0449  0.0047 </r>
       </set>
       <set comment="band 7">
        <r>  0.0007  0.2327  0.0326  0.0012 </r>
        <r>  0.0007  0.2327  0.0326  0.0012 </r>
       </set>
       <set comment="band 8">
        <r>  0.0075  0.2924  0.0260  0.0027 </r>
        <r>  0.0075  0.2924  0.0260  0.0027 </r>
       </set>
       <set comment="band 9">
        <r>  0.0001  0.0205  0.0908  0.0018 </r>
        <r>  0.0001  0.0205  0.0908  0.0018 </r>
       </set>
       <set comment="band 10">
        <r>  0.0162  0.0296  0.0140  0.0028 </r>
        <r>  0.0162  0.0296  0.0140  0.0028 </r>
       </set>
       <set comment="band 11">
        <r>  0.0083  0.0087  0.0275  0.0020 </r>
        <r>  0.0083  0.0087  0.0275  0.0020 </r>
       </set>
       <set comment="band 12">
        <r>  0.0000  0.0488  0.0056  0.0024 </r>
        <r>  0.0000  0.0488  0.0056  0.0024 </r>
       </set>
       <set comment="band 13">
        <r>  0.0000  0.0390  0.0127  0.0009 </r>
        <r>  0.0000  0.0390  0.0127  0.0009 </r>
       </set>
       <set comment="band 14">
        <r>  0.0081  0.0280  0.0245  0.0080 </r>
        <r>  0.0081  0.0280  0.0245  0.0080 </r>
       </set>
       <set comment="band 15">
        <r>  0.0009  0.0545  0.0354  0.0043 </r>
        <r>  0.0009  0.0545  0.0354  0.0043 </r>
       </set>
       <set comment="band 16">
        <r>  0.0057  0.0372  0.0086  0.0081 </r>
        <r>  0.0057  0.0372  0.0086  0.0081 </r>
       </set>
      </set>
      <set comment="kpoint 12">
       <set comment="band 1">
        <r>  0.3403  0.0252  0.0027  0.0007 </r>
        <r>  0.3403  0.0252  0.0027  0.0007 </r>
       </set>
       <set comment="band 2">
        <r>  0.4043  0.0216  0.0067  0.0009 </r>
        <r>  0.4043  0.0216  0.0067  0.0009 </r>
       </set>
       <set comment="band 3">
        <r>  0.0019  0.2744  0.0112  0.0008 </r>
        <r>  0.0019  0.2744  0.0112  0.0008 </r>
       </set>
       <set comment="band 4">
        <r>  0.0129  0.2889  0.0172  0.0017 </r>
        <r>  0.0129  0.2889  0.0172  0.0017 </r>
       </set>
       <set comment="band 5">
        <r>  0.0284  0.3066  0.0027  0.0015 </r>
        <r>  0.0284  0.3066  0.0027  0.0015 </r>
       </set>
       <set comment="band 6">
        <r>  0.0271  0.2317  0.0221  0.0037 </r>
        <r>  0.0271  0.2317  0.0221  0.0037 </r>
       </set>
       <set comment="band 7">
        <r>  0.0134  0.2867  0.0236  0.0039 </r>
        <r>  0.0134  0.2867  0.0236  0.0039 </r>
       </set>
       <set comment="band 8">
        <r>  0.0429  0.2808  0.0200  0.0071 </r>
        <r>  0.0429  0.2808  0.0200  0.0071 </r>
       </set>
       <set comment="band 9">
        <r>  0.0002  0.0514  0.0511  0.0056 </r>
        <r>  0.0002  0.0514  0.0511  0.0056 </r>
       </set>
       <set comment="band 10">
        <r>  0.0019  0.0256  0.0198  0.0021 </r>
        <r>  0.0019  0.0256  0.0198  0.0021 </r>
       </set>
       <set comment="band 11">
        <r>  0.0001  0.0178  0.0605  0.0060 </r>
        <r>  0.0001  0.0178  0.0605  0.0060 </r>
       </set>
       <set comment="band 12">
        <r>  0.0013  0.0440  0.1231  0.0067 </r>
        <r>  0.0013  0.0440  0.1231  0.0067 </r>
       </set>
       <set comment="band 13">
        <r>  0.0029  0.0520  0.0218  0.0024 </r>
        <r>  0.0029  0.0520  0.0218  0.0024 </r>
       </set>
       <set comment="band 14">
        <r>  0.0106  0.0178  0.0183  0.0013 </r>
        <r>  0.0106  0.0178  0.0183  0.0013 </r>
       </set>
       <set comment="band 15">
        <r>  0.0002  0.0152  0.0650  0.0076 </r>
        <r>  0.0002  0.0152  0.0650  0.0076 </r>
       </set>
       <set comment="band 16">
        <r>  0.0142  0.1084  0.0596  0.0119 </r>
        <r>  0.0142  0.1084  0.0596  0.0119 </r>
       </set>
      </set>
      <set comment="kpoint 13">
       <set comment="band 1">
        <r>  0.3466  0.0285  0.0042  0.0007 </r>
        <r>  0.3466  0.0285  0.0042  0.0007 </r>
       </set>
       <set comment="band 2">
        <r>  0.3902  0.0294  0.0078  0.0009 </r>
        <r>  0.3902  0.0294  0.0078  0.0009 </r>
       </set>
       <set comment="band 3">
        <r>  0.0215  0.2609  0.0098  0.0007 </r>
        <r>  0.0215  0.2609  0.0098  0.0007 </r>
       </set>
       <set comment="band 4">
        <r>  0.0099  0.2784  0.0123  0.0010 </r>
        <r>  0.0099  0.2784  0.0123  0.0010 </r>
       </set>
       <set comment="band 5">
        <r>  0.0376  0.2995  0.0030  0.0013 </r>
        <r>  0.0376  0.2995  0.0030  0.0013 </r>
       </set>
       <set comment="band 6">
        <r>  0.0100  0.2371  0.0270  0.0028 </r>
        <r>  0.0100  0.2371  0.0270  0.0028 </r>
       </set>
       <set comment="band 7">
        <r>  0.0150  0.2428  0.0264  0.0030 </r>
        <r>  0.0150  0.2428  0.0264  0.0030 </r>
       </set>
       <set comment="band 8">
        <r>  0.0362  0.2770  0.0260  0.0063 </r>
        <r>  0.0362  0.2770  0.0260  0.0063 </r>
       </set>
       <set comment="band 9">
        <r>  0.0004  0.0683  0.0799  0.0068 </r>
        <r>  0.0004  0.0683  0.0799  0.0068 </r>
       </set>
       <set comment="band 10">
        <r>  0.0053  0.0231  0.0122  0.0018 </r>
        <r>  0.0053  0.0231  0.0122  0.0018 </r>
       </set>
       <set comment="band 11">
        <r>  0.0003  0.0249  0.0311  0.0021 </r>
        <r>  0.0003  0.0249  0.0311  0.0021 </r>
       </set>
       <set comment="band 12">
        <r>  0.0035  0.0495  0.1120  0.0121 </r>
        <r>  0.0035  0.0495  0.1120  0.0121 </r>
       </set>
       <set comment="band 13">
        <r>  0.0006  0.0483  0.0373  0.0029 </r>
        <r>  0.0006  0.0483  0.0373  0.0029 </r>
       </set>
       <set comment="band 14">
        <r>  0.0033  0.0080  0.0415  0.0062 </r>
        <r>  0.0033  0.0080  0.0415  0.0062 </r>
       </set>
       <set comment="band 15">
        <r>  0.0089  0.0162  0.0184  0.0026 </r>
        <r>  0.0089  0.0162  0.0184  0.0026 </r>
       </set>
       <set comment="band 16">
        <r>  0.0037  0.0355  0.0167  0.0056 </r>
        <r>  0.0037  0.0355  0.0167  0.0056 </r>
       </set>
      </set>
      <set comment="kpoint 14">
       <set comment="band 1">
        <r>  0.3580  0.0292  0.0059  0.0008 </r>
        <r>  0.3580  0.0292  0.0059  0.0008 </r>
       </set>
       <set comment="band 2">
        <r>  0.3682  0.0371  0.0074  0.0008 </r>
        <r>  0.3682  0.0371  0.0074  0.0008 </r>
       </set>
       <set comment="band 3">
        <r>  0.0283  0.2545  0.0098  0.0006 </r>
        <r>  0.0283  0.2545  0.0098  0.0006 </r>
       </set>
       <set comment="band 4">
        <r>  0.0204  0.2799  0.0090  0.0008 </r>
        <r>  0.0204  0.2799  0.0090  0.0008 </r>
       </set>
       <set comment="band 5">
        <r>  0.0403  0.2805  0.0034  0.0012 </r>
        <r>  0.0403  0.2805  0.0034  0.0012 </r>
       </set>
       <set comment="band 6">
        <r>  0.0011  0.2361  0.0294  0.0022 </r>
        <r>  0.0011  0.2361  0.0294  0.0022 </r>
       </set>
       <set comment="band 7">
        <r>  0.0240  0.2487  0.0288  0.0040 </r>
        <r>  0.0240  0.2487  0.0288  0.0040 </r>
       </set>
       <set comment="band 8">
        <r>  0.0233  0.2568  0.0285  0.0041 </r>
        <r>  0.0233  0.2568  0.0285  0.0041 </r>
       </set>
       <set comment="band 9">
        <r>  0.0013  0.0311  0.0975  0.0057 </r>
        <r>  0.0013  0.0311  0.0975  0.0057 </r>
       </set>
       <set comment="band 10">
        <r>  0.0076  0.0175  0.0218  0.0025 </r>
        <r>  0.0076  0.0175  0.0218  0.0025 </r>
       </set>
       <set comment="band 11">
        <r>  0.0000  0.0469  0.0243  0.0014 </r>
        <r>  0.0000  0.0469  0.0243  0.0014 </r>
       </set>
       <set comment="band 12">
        <r>  0.0016  0.0571  0.0447  0.0029 </r>
        <r>  0.0016  0.0571  0.0447  0.0029 </r>
       </set>
       <set comment="band 13">
        <r>  0.0053  0.0324  0.0138  0.0041 </r>
        <r>  0.0053  0.0324  0.0138  0.0041 </r>
       </set>
       <set comment="band 14">
        <r>  0.0006  0.0658  0.0366  0.0067 </r>
        <r>  0.0006  0.0658  0.0366  0.0067 </r>
       </set>
       <set comment="band 15">
        <r>  0.0010  0.0215  0.0320  0.0059 </r>
        <r>  0.0010  0.0215  0.0320  0.0059 </r>
       </set>
       <set comment="band 16">
        <r>  0.0058  0.0411  0.0419  0.0096 </r>
        <r>  0.0058  0.0411  0.0419  0.0096 </r>
       </set>
      </set>
      <set comment="kpoint 15">
       <set comment="band 1">
        <r>  0.3552  0.0308  0.0057  0.0007 </r>
        <r>  0.3552  0.0308  0.0057  0.0007 </r>
       </set>
       <set comment="band 2">
        <r>  0.3792  0.0324  0.0079  0.0009 </r>
        <r>  0.3792  0.0324  0.0079  0.0009 </r>
       </set>
       <set comment="band 3">
        <r>  0.0067  0.2645  0.0132  0.0005 </r>
        <r>  0.0067  0.2645  0.0132  0.0005 </r>
       </set>
       <set comment="band 4">
        <r>  0.0326  0.2649  0.0056  0.0005 </r>
        <r>  0.0326  0.2649  0.0056  0.0005 </r>
       </set>
       <set comment="band 5">
        <r>  0.0428  0.2883  0.0035  0.0009 </r>
        <r>  0.0428  0.2883  0.0035  0.0009 </r>
       </set>
       <set comment="band 6">
        <r>  0.0013  0.2287  0.0280  0.0027 </r>
        <r>  0.0013  0.2287  0.0280  0.0027 </r>
       </set>
       <set comment="band 7">
        <r>  0.0177  0.2268  0.0271  0.0025 </r>
        <r>  0.0177  0.2268  0.0271  0.0025 </r>
       </set>
       <set comment="band 8">
        <r>  0.0302  0.2969  0.0180  0.0051 </r>
        <r>  0.0302  0.2969  0.0180  0.0051 </r>
       </set>
       <set comment="band 9">
        <r>  0.0017  0.0879  0.0862  0.0117 </r>
        <r>  0.0017  0.0879  0.0862  0.0117 </r>
       </set>
       <set comment="band 10">
        <r>  0.0115  0.0353  0.0305  0.0044 </r>
        <r>  0.0115  0.0353  0.0305  0.0044 </r>
       </set>
       <set comment="band 11">
        <r>  0.0001  0.0348  0.0646  0.0017 </r>
        <r>  0.0001  0.0348  0.0646  0.0017 </r>
       </set>
       <set comment="band 12">
        <r>  0.0004  0.0354  0.0884  0.0106 </r>
        <r>  0.0004  0.0354  0.0884  0.0106 </r>
       </set>
       <set comment="band 13">
        <r>  0.0006  0.0022  0.0264  0.0033 </r>
        <r>  0.0006  0.0022  0.0264  0.0033 </r>
       </set>
       <set comment="band 14">
        <r>  0.0080  0.0156  0.0165  0.0042 </r>
        <r>  0.0080  0.0156  0.0165  0.0042 </r>
       </set>
       <set comment="band 15">
        <r>  0.0001  0.0646  0.0231  0.0041 </r>
        <r>  0.0001  0.0646  0.0231  0.0041 </r>
       </set>
       <set comment="band 16">
        <r>  0.0002  0.0417  0.0092  0.0061 </r>
        <r>  0.0002  0.0417  0.0092  0.0061 </r>
       </set>
      </set>
      <set comment="kpoint 16">
       <set comment="band 1">
        <r>  0.3643  0.0310  0.0068  0.0008 </r>
        <r>  0.3643  0.0310  0.0068  0.0008 </r>
       </set>
       <set comment="band 2">
        <r>  0.3690  0.0341  0.0074  0.0008 </r>
        <r>  0.3690  0.0341  0.0074  0.0008 </r>
       </set>
       <set comment="band 3">
        <r>  0.0038  0.2619  0.0125  0.0003 </r>
        <r>  0.0038  0.2619  0.0125  0.0003 </r>
       </set>
       <set comment="band 4">
        <r>  0.0398  0.2718  0.0050  0.0005 </r>
        <r>  0.0398  0.2718  0.0050  0.0005 </r>
       </set>
       <set comment="band 5">
        <r>  0.0437  0.2767  0.0038  0.0008 </r>
        <r>  0.0437  0.2767  0.0038  0.0008 </r>
       </set>
       <set comment="band 6">
        <r>  0.0003  0.2200  0.0279  0.0028 </r>
        <r>  0.0003  0.2200  0.0279  0.0028 </r>
       </set>
       <set comment="band 7">
        <r>  0.0174  0.2437  0.0261  0.0028 </r>
        <r>  0.0174  0.2437  0.0261  0.0028 </r>
       </set>
       <set comment="band 8">
        <r>  0.0246  0.2720  0.0222  0.0040 </r>
        <r>  0.0246  0.2720  0.0222  0.0040 </r>
       </set>
       <set comment="band 9">
        <r>  0.0074  0.0613  0.0827  0.0113 </r>
        <r>  0.0074  0.0613  0.0827  0.0113 </r>
       </set>
       <set comment="band 10">
        <r>  0.0001  0.0270  0.0799  0.0011 </r>
        <r>  0.0001  0.0270  0.0799  0.0011 </r>
       </set>
       <set comment="band 11">
        <r>  0.0078  0.1023  0.0281  0.0065 </r>
        <r>  0.0078  0.1023  0.0281  0.0065 </r>
       </set>
       <set comment="band 12">
        <r>  0.0060  0.0138  0.0282  0.0044 </r>
        <r>  0.0060  0.0138  0.0282  0.0044 </r>
       </set>
       <set comment="band 13">
        <r>  0.0012  0.0458  0.0166  0.0043 </r>
        <r>  0.0012  0.0458  0.0166  0.0043 </r>
       </set>
       <set comment="band 14">
        <r>  0.0004  0.0675  0.0716  0.0148 </r>
        <r>  0.0004  0.0675  0.0716  0.0148 </r>
       </set>
       <set comment="band 15">
        <r>  0.0027  0.0326  0.0219  0.0064 </r>
        <r>  0.0027  0.0326  0.0219  0.0064 </r>
       </set>
       <set comment="band 16">
        <r>  0.0006  0.0309  0.0551  0.0074 </r>
        <r>  0.0006  0.0309  0.0551  0.0074 </r>
       </set>
      </set>
     </set>
    </set>
   </array>
  </projected>
 </calculation>
 <structure name="finalpos" >
  <crystal>
   <varray name="basis" >
    <v>       4.11336655       0.00000000       0.00000000 </v>
    <v>      -2.05668327       3.56227993       0.00000000 </v>
    <v>       0.00000000       0.00000000      16.00000000 </v>
   </varray>
   <i name="volume">    234.44740948 </i>
   <varray name="rec_basis" >
    <v>       0.24310987       0.14035955       0.00000000 </v>
    <v>       0.00000000       0.28071910       0.00000000 </v>
    <v>       0.00000000       0.00000000       0.06250000 </v>
   </varray>
  </crystal>
  <varray name="positions" >
   <v>       0.66666667       0.33333333       0.44862540 </v>
   <v>       0.33333333       0.66666667       0.55137460 </v>
  </varray>
 </structure>
</modeling>
