   2   2   1   0
  0.1119644E+03  0.3282343E-09  0.3282343E-09  0.2400000E-08  0.5000000E-15
  1.000000000000000E-004
  CAR 
 unknown system                          
      8.98960254    -19.71231972 6001     -4.27067620      1.00000000
    -19.712  0.0000E+00  0.0000E+00
    -19.708  0.0000E+00  0.0000E+00
    -19.703  0.0000E+00  0.0000E+00
    -19.698  0.0000E+00  0.0000E+00
    -19.693  0.0000E+00  0.0000E+00
    -19.688  0.0000E+00  0.0000E+00
    -19.684  0.0000E+00  0.0000E+00
    -19.679  0.0000E+00  0.0000E+00
    -19.674  0.0000E+00  0.0000E+00
    -19.669  0.0000E+00  0.0000E+00
    -19.664  0.0000E+00  0.0000E+00
    -19.660  0.0000E+00  0.0000E+00
    -19.655  0.0000E+00  0.0000E+00
    -19.650  0.0000E+00  0.0000E+00
    -19.645  0.0000E+00  0.0000E+00
    -19.641  0.0000E+00  0.0000E+00
    -19.636  0.0000E+00  0.0000E+00
    -19.631  0.0000E+00  0.0000E+00
    -19.626  0.0000E+00  0.0000E+00
    -19.621  0.0000E+00  0.0000E+00
    -19.617  0.0000E+00  0.0000E+00
    -19.612  0.0000E+00  0.0000E+00
    -19.607  0.0000E+00  0.0000E+00
    -19.602  0.0000E+00  0.0000E+00
    -19.598  0.0000E+00  0.0000E+00
    -19.593  0.0000E+00  0.0000E+00
    -19.588  0.0000E+00  0.0000E+00
    -19.583  0.0000E+00  0.0000E+00
    -19.578  0.0000E+00  0.0000E+00
    -19.574  0.0000E+00  0.0000E+00
    -19.569  0.0000E+00  0.0000E+00
    -19.564  0.0000E+00  0.0000E+00
    -19.559  0.0000E+00  0.0000E+00
    -19.554  0.0000E+00  0.0000E+00
    -19.550  0.0000E+00  0.0000E+00
    -19.545  0.0000E+00  0.0000E+00
    -19.540  0.0000E+00  0.0000E+00
    -19.535  0.0000E+00  0.0000E+00
    -19.531  0.0000E+00  0.0000E+00
    -19.526  0.0000E+00  0.0000E+00
    -19.521  0.0000E+00  0.0000E+00
    -19.516  0.0000E+00  0.0000E+00
    -19.511  0.0000E+00  0.0000E+00
    -19.507  0.0000E+00  0.0000E+00
    -19.502  0.0000E+00  0.0000E+00
    -19.497  0.0000E+00  0.0000E+00
    -19.492  0.0000E+00  0.0000E+00
    -19.487  0.0000E+00  0.0000E+00
    -19.483  0.0000E+00  0.0000E+00
    -19.478  0.0000E+00  0.0000E+00
    -19.473  0.0000E+00  0.0000E+00
    -19.468  0.0000E+00  0.0000E+00
    -19.464  0.0000E+00  0.0000E+00
    -19.459  0.0000E+00  0.0000E+00
    -19.454  0.0000E+00  0.0000E+00
    -19.449  0.0000E+00  0.0000E+00
    -19.444  0.0000E+00  0.0000E+00
    -19.440  0.0000E+00  0.0000E+00
    -19.435  0.0000E+00  0.0000E+00
    -19.430  0.0000E+00  0.0000E+00
    -19.425  0.0000E+00  0.0000E+00
    -19.421  0.0000E+00  0.0000E+00
    -19.416  0.0000E+00  0.0000E+00
    -19.411  0.0000E+00  0.0000E+00
    -19.406  0.0000E+00  0.0000E+00
    -19.401  0.0000E+00  0.0000E+00
    -19.397  0.0000E+00  0.0000E+00
    -19.392  0.0000E+00  0.0000E+00
    -19.387  0.0000E+00  0.0000E+00
    -19.382  0.0000E+00  0.0000E+00
    -19.377  0.0000E+00  0.0000E+00
    -19.373  0.0000E+00  0.0000E+00
    -19.368  0.0000E+00  0.0000E+00
    -19.363  0.0000E+00  0.0000E+00
    -19.358  0.0000E+00  0.0000E+00
    -19.354  0.0000E+00  0.0000E+00
    -19.349  0.0000E+00  0.0000E+00
    -19.344  0.0000E+00  0.0000E+00
    -19.339  0.0000E+00  0.0000E+00
    -19.334  0.0000E+00  0.0000E+00
    -19.330  0.0000E+00  0.0000E+00
    -19.325  0.0000E+00  0.0000E+00
    -19.320  0.0000E+00  0.0000E+00
    -19.315  0.0000E+00  0.0000E+00
    -19.310  0.0000E+00  0.0000E+00
    -19.306  0.0000E+00  0.0000E+00
    -19.301  0.0000E+00  0.0000E+00
    -19.296  0.0000E+00  0.0000E+00
    -19.291  0.0000E+00  0.0000E+00
    -19.287  0.0000E+00  0.0000E+00
    -19.282  0.0000E+00  0.0000E+00
    -19.277  0.0000E+00  0.0000E+00
    -19.272  0.0000E+00  0.0000E+00
    -19.267  0.0000E+00  0.0000E+00
    -19.263  0.0000E+00  0.0000E+00
    -19.258  0.0000E+00  0.0000E+00
    -19.253  0.0000E+00  0.0000E+00
    -19.248  0.0000E+00  0.0000E+00
    -19.244  0.0000E+00  0.0000E+00
    -19.239  0.0000E+00  0.0000E+00
    -19.234  0.0000E+00  0.0000E+00
    -19.229  0.0000E+00  0.0000E+00
    -19.224  0.0000E+00  0.0000E+00
    -19.220  0.0000E+00  0.0000E+00
    -19.215  0.0000E+00  0.0000E+00
    -19.210  0.0000E+00  0.0000E+00
    -19.205  0.0000E+00  0.0000E+00
    -19.200  0.0000E+00  0.0000E+00
    -19.196  0.0000E+00  0.0000E+00
    -19.191  0.0000E+00  0.0000E+00
    -19.186  0.0000E+00  0.0000E+00
    -19.181  0.0000E+00  0.0000E+00
    -19.177  0.0000E+00  0.0000E+00
    -19.172  0.0000E+00  0.0000E+00
    -19.167  0.0000E+00  0.0000E+00
    -19.162  0.0000E+00  0.0000E+00
    -19.157  0.0000E+00  0.0000E+00
    -19.153  0.0000E+00  0.0000E+00
    -19.148  0.0000E+00  0.0000E+00
    -19.143  0.0000E+00  0.0000E+00
    -19.138  0.0000E+00  0.0000E+00
    -19.133  0.0000E+00  0.0000E+00
    -19.129  0.0000E+00  0.0000E+00
    -19.124  0.0000E+00  0.0000E+00
    -19.119  0.0000E+00  0.0000E+00
    -19.114  0.0000E+00  0.0000E+00
    -19.110  0.0000E+00  0.0000E+00
    -19.105  0.0000E+00  0.0000E+00
    -19.100  0.0000E+00  0.0000E+00
    -19.095  0.0000E+00  0.0000E+00
    -19.090  0.0000E+00  0.0000E+00
    -19.086  0.0000E+00  0.0000E+00
    -19.081  0.0000E+00  0.0000E+00
    -19.076  0.0000E+00  0.0000E+00
    -19.071  0.0000E+00  0.0000E+00
    -19.067  0.0000E+00  0.0000E+00
    -19.062  0.0000E+00  0.0000E+00
    -19.057  0.0000E+00  0.0000E+00
    -19.052  0.0000E+00  0.0000E+00
    -19.047  0.0000E+00  0.0000E+00
    -19.043  0.0000E+00  0.0000E+00
    -19.038  0.0000E+00  0.0000E+00
    -19.033  0.0000E+00  0.0000E+00
    -19.028  0.0000E+00  0.0000E+00
    -19.023  0.0000E+00  0.0000E+00
    -19.019  0.0000E+00  0.0000E+00
    -19.014  0.0000E+00  0.0000E+00
    -19.009  0.0000E+00  0.0000E+00
    -19.004  0.0000E+00  0.0000E+00
    -19.000  0.0000E+00  0.0000E+00
    -18.995  0.0000E+00  0.0000E+00
    -18.990  0.0000E+00  0.0000E+00
    -18.985  0.0000E+00  0.0000E+00
    -18.980  0.0000E+00  0.0000E+00
    -18.976  0.0000E+00  0.0000E+00
    -18.971  0.0000E+00  0.0000E+00
    -18.966  0.0000E+00  0.0000E+00
    -18.961  0.0000E+00  0.0000E+00
    -18.957  0.0000E+00  0.0000E+00
    -18.952  0.0000E+00  0.0000E+00
    -18.947  0.0000E+00  0.0000E+00
    -18.942  0.0000E+00  0.0000E+00
    -18.937  0.0000E+00  0.0000E+00
    -18.933  0.0000E+00  0.0000E+00
    -18.928  0.0000E+00  0.0000E+00
    -18.923  0.0000E+00  0.0000E+00
    -18.918  0.0000E+00  0.0000E+00
    -18.913  0.0000E+00  0.0000E+00
    -18.909  0.0000E+00  0.0000E+00
    -18.904  0.0000E+00  0.0000E+00
    -18.899  0.0000E+00  0.0000E+00
    -18.894  0.0000E+00  0.0000E+00
    -18.890  0.0000E+00  0.0000E+00
    -18.885  0.0000E+00  0.0000E+00
    -18.880  0.0000E+00  0.0000E+00
    -18.875  0.0000E+00  0.0000E+00
    -18.870  0.0000E+00  0.0000E+00
    -18.866  0.0000E+00  0.0000E+00
    -18.861  0.0000E+00  0.0000E+00
    -18.856  0.0000E+00  0.0000E+00
    -18.851  0.0000E+00  0.0000E+00
    -18.846  0.0000E+00  0.0000E+00
    -18.842  0.0000E+00  0.0000E+00
    -18.837  0.0000E+00  0.0000E+00
    -18.832  0.0000E+00  0.0000E+00
    -18.827  0.0000E+00  0.0000E+00
    -18.823  0.0000E+00  0.0000E+00
    -18.818  0.0000E+00  0.0000E+00
    -18.813  0.0000E+00  0.0000E+00
    -18.808  0.0000E+00  0.0000E+00
    -18.803  0.0000E+00  0.0000E+00
    -18.799  0.0000E+00  0.0000E+00
    -18.794  0.0000E+00  0.0000E+00
    -18.789  0.0000E+00  0.0000E+00
    -18.784  0.0000E+00  0.0000E+00
    -18.780  0.0000E+00  0.0000E+00
    -18.775  0.0000E+00  0.0000E+00
    -18.770  0.0000E+00  0.0000E+00
    -18.765  0.0000E+00  0.0000E+00
    -18.760  0.0000E+00  0.0000E+00
    -18.756  0.0000E+00  0.0000E+00
    -18.751  0.0000E+00  0.0000E+00
    -18.746  0.0000E+00  0.0000E+00
    -18.741  0.0000E+00  0.0000E+00
    -18.736  0.0000E+00  0.0000E+00
    -18.732  0.0000E+00  0.0000E+00
    -18.727  0.0000E+00  0.0000E+00
    -18.722  0.0000E+00  0.0000E+00
    -18.717  0.0000E+00  0.0000E+00
    -18.713  0.0000E+00  0.0000E+00
    -18.708  0.0000E+00  0.0000E+00
    -18.703  0.0000E+00  0.0000E+00
    -18.698  0.0000E+00  0.0000E+00
    -18.693  0.0000E+00  0.0000E+00
    -18.689  0.0000E+00  0.0000E+00
    -18.684  0.0000E+00  0.0000E+00
    -18.679  0.0000E+00  0.0000E+00
    -18.674  0.0000E+00  0.0000E+00
    -18.669  0.0000E+00  0.0000E+00
    -18.665  0.0000E+00  0.0000E+00
    -18.660  0.0000E+00  0.0000E+00
    -18.655  0.0000E+00  0.0000E+00
    -18.650  0.0000E+00  0.0000E+00
    -18.646  0.0000E+00  0.0000E+00
    -18.641  0.0000E+00  0.0000E+00
    -18.636  0.0000E+00  0.0000E+00
    -18.631  0.0000E+00  0.0000E+00
    -18.626  0.0000E+00  0.0000E+00
    -18.622  0.0000E+00  0.0000E+00
    -18.617  0.0000E+00  0.0000E+00
    -18.612  0.0000E+00  0.0000E+00
    -18.607  0.0000E+00  0.0000E+00
    -18.603  0.0000E+00  0.0000E+00
    -18.598  0.0000E+00  0.0000E+00
    -18.593  0.0000E+00  0.0000E+00
    -18.588  0.0000E+00  0.0000E+00
    -18.583  0.0000E+00  0.0000E+00
    -18.579  0.0000E+00  0.0000E+00
    -18.574  0.0000E+00  0.0000E+00
    -18.569  0.0000E+00  0.0000E+00
    -18.564  0.0000E+00  0.0000E+00
    -18.559  0.0000E+00  0.0000E+00
    -18.555  0.0000E+00  0.0000E+00
    -18.550  0.0000E+00  0.0000E+00
    -18.545  0.0000E+00  0.0000E+00
    -18.540  0.0000E+00  0.0000E+00
    -18.536  0.0000E+00  0.0000E+00
    -18.531  0.0000E+00  0.0000E+00
    -18.526  0.0000E+00  0.0000E+00
    -18.521  0.0000E+00  0.0000E+00
    -18.516  0.0000E+00  0.0000E+00
    -18.512  0.0000E+00  0.0000E+00
    -18.507  0.0000E+00  0.0000E+00
    -18.502  0.0000E+00  0.0000E+00
    -18.497  0.0000E+00  0.0000E+00
    -18.492  0.0000E+00  0.0000E+00
    -18.488  0.0000E+00  0.0000E+00
    -18.483  0.0000E+00  0.0000E+00
    -18.478  0.0000E+00  0.0000E+00
    -18.473  0.0000E+00  0.0000E+00
    -18.469  0.0000E+00  0.0000E+00
    -18.464  0.2250E-14  0.1076E-16
    -18.459  0.4195E-12  0.2018E-14
    -18.454  0.4955E-10  0.2390E-12
    -18.449  0.3732E-08  0.1809E-10
    -18.445  0.1794E-06  0.8762E-09
    -18.440  0.5509E-05  0.2723E-07
    -18.435  0.1082E-03  0.5450E-06
    -18.430  0.1362E-02  0.7059E-05
    -18.426  0.1099E-01  0.5961E-04
    -18.421  0.5690E-01  0.3318E-03
    -18.416  0.1894E+00  0.1238E-02
    -18.411  0.4054E+00  0.3177E-02
    -18.406  0.5585E+00  0.5849E-02
    -18.402  0.4953E+00  0.8218E-02
    -18.397  0.2827E+00  0.9571E-02
    -18.392  0.1038E+00  0.1007E-01
    -18.387  0.2451E-01  0.1018E-01
    -18.382  0.3717E-02  0.1020E-01
    -18.378  0.3616E-03  0.1020E-01
    -18.373  0.2254E-04  0.1020E-01
    -18.368  0.9112E-06  0.1020E-01
    -18.363  0.6344E-06  0.1020E-01
    -18.359  0.2012E-04  0.1020E-01
    -18.354  0.4232E-03  0.1021E-01
    -18.349  0.5701E-02  0.1023E-01
    -18.344  0.4924E-01  0.1047E-01
    -18.339  0.2730E+00  0.1177E-01
    -18.335  0.9722E+00  0.1643E-01
    -18.330  0.2227E+01  0.2708E-01
    -18.325  0.3283E+01  0.4278E-01
    -18.320  0.3115E+01  0.5768E-01
    -18.315  0.1902E+01  0.6679E-01
    -18.311  0.7476E+00  0.7036E-01
    -18.306  0.1889E+00  0.7127E-01
    -18.301  0.3066E-01  0.7141E-01
    -18.296  0.3193E-02  0.7143E-01
    -18.292  0.2132E-03  0.7143E-01
    -18.287  0.9109E-05  0.7143E-01
    -18.282  0.2489E-06  0.7143E-01
    -18.277  0.4343E-08  0.7143E-01
    -18.272  0.4834E-10  0.7143E-01
    -18.268  0.3424E-12  0.7143E-01
    -18.263  0.1421E-14  0.7143E-01
    -18.258  0.0000E+00  0.7143E-01
    -18.253  0.0000E+00  0.7143E-01
    -18.249  0.0000E+00  0.7143E-01
    -18.244  0.0000E+00  0.7143E-01
    -18.239  0.0000E+00  0.7143E-01
    -18.234  0.0000E+00  0.7143E-01
    -18.229  0.0000E+00  0.7143E-01
    -18.225  0.0000E+00  0.7143E-01
    -18.220  0.2131E-14  0.7143E-01
    -18.215  0.4760E-12  0.7143E-01
    -18.210  0.6518E-10  0.7143E-01
    -18.205  0.5691E-08  0.7143E-01
    -18.201  0.3170E-06  0.7143E-01
    -18.196  0.1128E-04  0.7143E-01
    -18.191  0.2565E-03  0.7143E-01
    -18.186  0.3736E-02  0.7145E-01
    -18.182  0.3487E-01  0.7161E-01
    -18.177  0.2089E+00  0.7261E-01
    -18.172  0.8038E+00  0.7646E-01
    -18.167  0.1989E+01  0.8597E-01
    -18.162  0.3167E+01  0.1011E+00
    -18.158  0.3245E+01  0.1166E+00
    -18.153  0.2141E+01  0.1269E+00
    -18.148  0.9088E+00  0.1312E+00
    -18.143  0.2481E+00  0.1324E+00
    -18.138  0.4351E-01  0.1326E+00
    -18.134  0.4898E-02  0.1327E+00
    -18.129  0.3534E-03  0.1327E+00
    -18.124  0.1634E-04  0.1327E+00
    -18.119  0.7737E-06  0.1327E+00
    -18.115  0.1047E-04  0.1327E+00
    -18.110  0.2404E-03  0.1327E+00
    -18.105  0.3536E-02  0.1327E+00
    -18.100  0.3334E-01  0.1328E+00
    -18.095  0.2017E+00  0.1338E+00
    -18.091  0.7837E+00  0.1375E+00
    -18.086  0.1958E+01  0.1469E+00
    -18.081  0.3149E+01  0.1620E+00
    -18.076  0.3259E+01  0.1776E+00
    -18.072  0.2171E+01  0.1880E+00
    -18.067  0.9308E+00  0.1924E+00
    -18.062  0.2566E+00  0.1936E+00
    -18.057  0.4545E-01  0.1939E+00
    -18.052  0.5167E-02  0.1939E+00
    -18.048  0.3766E-03  0.1939E+00
    -18.043  0.1757E-04  0.1939E+00
    -18.038  0.5245E-06  0.1939E+00
    -18.033  0.9998E-08  0.1939E+00
    -18.028  0.1216E-09  0.1939E+00
    -18.024  0.9421E-12  0.1939E+00
    -18.019  0.5684E-14  0.1939E+00
    -18.014  0.0000E+00  0.1939E+00
    -18.009  0.0000E+00  0.1939E+00
    -18.005  0.0000E+00  0.1939E+00
    -18.000  0.0000E+00  0.1939E+00
    -17.995  0.0000E+00  0.1939E+00
    -17.990  0.0000E+00  0.1939E+00
    -17.985  0.0000E+00  0.1939E+00
    -17.981  0.0000E+00  0.1939E+00
    -17.976  0.0000E+00  0.1939E+00
    -17.971  0.0000E+00  0.1939E+00
    -17.966  0.0000E+00  0.1939E+00
    -17.962  0.0000E+00  0.1939E+00
    -17.957  0.0000E+00  0.1939E+00
    -17.952  0.0000E+00  0.1939E+00
    -17.947  0.0000E+00  0.1939E+00
    -17.942  0.0000E+00  0.1939E+00
    -17.938  0.0000E+00  0.1939E+00
    -17.933  0.0000E+00  0.1939E+00
    -17.928  0.0000E+00  0.1939E+00
    -17.923  0.0000E+00  0.1939E+00
    -17.918  0.0000E+00  0.1939E+00
    -17.914  0.0000E+00  0.1939E+00
    -17.909  0.0000E+00  0.1939E+00
    -17.904  0.0000E+00  0.1939E+00
    -17.899  0.0000E+00  0.1939E+00
    -17.895  0.1137E-13  0.1939E+00
    -17.890  0.2238E-11  0.1939E+00
    -17.885  0.2842E-09  0.1939E+00
    -17.880  0.2301E-07  0.1939E+00
    -17.875  0.1189E-05  0.1939E+00
    -17.871  0.3925E-04  0.1939E+00
    -17.866  0.8285E-03  0.1939E+00
    -17.861  0.1120E-01  0.1939E+00
    -17.856  0.9705E-01  0.1944E+00
    -17.851  0.5398E+00  0.1970E+00
    -17.847  0.1929E+01  0.2062E+00
    -17.842  0.4434E+01  0.2274E+00
    -17.837  0.6557E+01  0.2588E+00
    -17.832  0.6243E+01  0.2887E+00
    -17.828  0.3825E+01  0.3070E+00
    -17.823  0.1508E+01  0.3142E+00
    -17.818  0.3824E+00  0.3160E+00
    -17.813  0.6227E-01  0.3163E+00
    -17.808  0.6508E-02  0.3163E+00
    -17.804  0.4359E-03  0.3163E+00
    -17.799  0.1869E-04  0.3163E+00
    -17.794  0.5124E-06  0.3163E+00
    -17.789  0.8970E-08  0.3163E+00
    -17.785  0.1002E-09  0.3163E+00
    -17.780  0.7133E-12  0.3163E+00
    -17.775  0.2842E-14  0.3163E+00
    -17.770  0.0000E+00  0.3163E+00
    -17.765  0.0000E+00  0.3163E+00
    -17.761  0.0000E+00  0.3163E+00
    -17.756  0.0000E+00  0.3163E+00
    -17.751  0.0000E+00  0.3163E+00
    -17.746  0.0000E+00  0.3163E+00
    -17.741  0.0000E+00  0.3163E+00
    -17.737  0.0000E+00  0.3163E+00
    -17.732  0.5542E-13  0.3163E+00
    -17.727  0.9105E-11  0.3163E+00
    -17.722  0.9565E-09  0.3163E+00
    -17.718  0.6409E-07  0.3163E+00
    -17.713  0.2741E-05  0.3163E+00
    -17.708  0.7493E-04  0.3163E+00
    -17.703  0.1311E-02  0.3163E+00
    -17.698  0.1469E-01  0.3164E+00
    -17.694  0.1056E+00  0.3169E+00
    -17.689  0.4872E+00  0.3192E+00
    -17.684  0.1445E+01  0.3262E+00
    -17.679  0.2759E+01  0.3394E+00
    -17.674  0.3389E+01  0.3556E+00
    -17.670  0.2679E+01  0.3684E+00
    -17.665  0.1364E+01  0.3749E+00
    -17.660  0.4463E+00  0.3770E+00
    -17.655  0.9391E-01  0.3775E+00
    -17.651  0.1269E-01  0.3775E+00
    -17.646  0.1099E-02  0.3776E+00
    -17.641  0.6103E-04  0.3776E+00
    -17.636  0.2167E-05  0.3776E+00
    -17.631  0.4919E-07  0.3776E+00
    -17.627  0.7127E-09  0.3776E+00
    -17.622  0.6585E-11  0.3776E+00
    -17.617  0.3979E-13  0.3776E+00
    -17.612  0.0000E+00  0.3776E+00
    -17.608  0.0000E+00  0.3776E+00
    -17.603  0.0000E+00  0.3776E+00
    -17.598  0.0000E+00  0.3776E+00
    -17.593  0.0000E+00  0.3776E+00
    -17.588  0.0000E+00  0.3776E+00
    -17.584  0.0000E+00  0.3776E+00
    -17.579  0.0000E+00  0.3776E+00
    -17.574  0.0000E+00  0.3776E+00
    -17.569  0.0000E+00  0.3776E+00
    -17.564  0.0000E+00  0.3776E+00
    -17.560  0.0000E+00  0.3776E+00
    -17.555  0.0000E+00  0.3776E+00
    -17.550  0.0000E+00  0.3776E+00
    -17.545  0.0000E+00  0.3776E+00
    -17.541  0.0000E+00  0.3776E+00
    -17.536  0.0000E+00  0.3776E+00
    -17.531  0.0000E+00  0.3776E+00
    -17.526  0.0000E+00  0.3776E+00
    -17.521  0.0000E+00  0.3776E+00
    -17.517  0.0000E+00  0.3776E+00
    -17.512  0.0000E+00  0.3776E+00
    -17.507  0.0000E+00  0.3776E+00
    -17.502  0.0000E+00  0.3776E+00
    -17.497  0.0000E+00  0.3776E+00
    -17.493  0.2274E-13  0.3776E+00
    -17.488  0.4024E-11  0.3776E+00
    -17.483  0.4556E-09  0.3776E+00
    -17.478  0.3289E-07  0.3776E+00
    -17.474  0.1515E-05  0.3776E+00
    -17.469  0.4462E-04  0.3776E+00
    -17.464  0.8404E-03  0.3776E+00
    -17.459  0.1014E-01  0.3776E+00
    -17.454  0.7845E-01  0.3780E+00
    -17.450  0.3897E+00  0.3798E+00
    -17.445  0.1244E+01  0.3858E+00
    -17.440  0.2555E+01  0.3980E+00
    -17.435  0.3376E+01  0.4142E+00
    -17.431  0.2872E+01  0.4279E+00
    -17.426  0.1573E+01  0.4354E+00
    -17.421  0.5540E+00  0.4381E+00
    -17.416  0.1254E+00  0.4387E+00
    -17.411  0.1824E-01  0.4388E+00
    -17.407  0.1702E-02  0.4388E+00
    -17.402  0.1017E-03  0.4388E+00
    -17.397  0.4490E-05  0.4388E+00
    -17.392  0.2152E-04  0.4388E+00
    -17.387  0.4907E-03  0.4388E+00
    -17.383  0.7195E-02  0.4388E+00
    -17.378  0.6762E-01  0.4391E+00
    -17.373  0.4078E+00  0.4411E+00
    -17.368  0.1580E+01  0.4486E+00
    -17.364  0.3936E+01  0.4675E+00
    -17.359  0.6309E+01  0.4977E+00
    -17.354  0.6510E+01  0.5288E+00
    -17.349  0.4323E+01  0.5495E+00
    -17.344  0.1848E+01  0.5583E+00
    -17.340  0.5078E+00  0.5607E+00
    -17.335  0.8967E-01  0.5612E+00
    -17.330  0.1016E-01  0.5612E+00
    -17.325  0.7384E-03  0.5612E+00
    -17.320  0.3435E-04  0.5612E+00
    -17.316  0.1022E-05  0.5612E+00
    -17.311  0.1942E-07  0.5612E+00
    -17.306  0.2355E-09  0.5612E+00
    -17.301  0.1822E-11  0.5612E+00
    -17.297  0.8526E-14  0.5612E+00
    -17.292  0.0000E+00  0.5612E+00
    -17.287  0.0000E+00  0.5612E+00
    -17.282  0.0000E+00  0.5612E+00
    -17.277  0.0000E+00  0.5612E+00
    -17.273  0.0000E+00  0.5612E+00
    -17.268  0.0000E+00  0.5612E+00
    -17.263  0.0000E+00  0.5612E+00
    -17.258  0.0000E+00  0.5612E+00
    -17.254  0.0000E+00  0.5612E+00
    -17.249  0.0000E+00  0.5612E+00
    -17.244  0.0000E+00  0.5612E+00
    -17.239  0.0000E+00  0.5612E+00
    -17.234  0.0000E+00  0.5612E+00
    -17.230  0.0000E+00  0.5612E+00
    -17.225  0.0000E+00  0.5612E+00
    -17.220  0.0000E+00  0.5612E+00
    -17.215  0.0000E+00  0.5612E+00
    -17.210  0.0000E+00  0.5612E+00
    -17.206  0.0000E+00  0.5612E+00
    -17.201  0.0000E+00  0.5612E+00
    -17.196  0.0000E+00  0.5612E+00
    -17.191  0.0000E+00  0.5612E+00
    -17.187  0.0000E+00  0.5612E+00
    -17.182  0.2131E-14  0.5612E+00
    -17.177  0.4355E-12  0.5612E+00
    -17.172  0.6010E-10  0.5612E+00
    -17.167  0.5288E-08  0.5612E+00
    -17.163  0.2968E-06  0.5612E+00
    -17.158  0.1064E-04  0.5612E+00
    -17.153  0.2440E-03  0.5612E+00
    -17.148  0.3580E-02  0.5612E+00
    -17.143  0.3368E-01  0.5614E+00
    -17.139  0.2033E+00  0.5624E+00
    -17.134  0.7882E+00  0.5661E+00
    -17.129  0.1965E+01  0.5755E+00
    -17.124  0.3153E+01  0.5906E+00
    -17.120  0.3256E+01  0.6062E+00
    -17.115  0.2164E+01  0.6166E+00
    -17.110  0.9258E+00  0.6210E+00
    -17.105  0.2547E+00  0.6222E+00
    -17.100  0.4501E-01  0.6224E+00
    -17.096  0.5106E-02  0.6224E+00
    -17.091  0.3713E-03  0.6224E+00
    -17.086  0.1729E-04  0.6224E+00
    -17.081  0.5147E-06  0.6224E+00
    -17.077  0.9791E-08  0.6224E+00
    -17.072  0.1188E-09  0.6224E+00
    -17.067  0.9193E-12  0.6224E+00
    -17.062  0.4263E-14  0.6224E+00
    -17.057  0.0000E+00  0.6224E+00
    -17.053  0.0000E+00  0.6224E+00
    -17.048  0.0000E+00  0.6224E+00
    -17.043  0.0000E+00  0.6224E+00
    -17.038  0.0000E+00  0.6224E+00
    -17.033  0.0000E+00  0.6224E+00
    -17.029  0.0000E+00  0.6224E+00
    -17.024  0.0000E+00  0.6224E+00
    -17.019  0.0000E+00  0.6224E+00
    -17.014  0.0000E+00  0.6224E+00
    -17.010  0.0000E+00  0.6224E+00
    -17.005  0.0000E+00  0.6224E+00
    -17.000  0.0000E+00  0.6224E+00
    -16.995  0.0000E+00  0.6224E+00
    -16.990  0.0000E+00  0.6224E+00
    -16.986  0.0000E+00  0.6224E+00
    -16.981  0.0000E+00  0.6224E+00
    -16.976  0.0000E+00  0.6224E+00
    -16.971  0.0000E+00  0.6224E+00
    -16.967  0.0000E+00  0.6224E+00
    -16.962  0.0000E+00  0.6224E+00
    -16.957  0.0000E+00  0.6224E+00
    -16.952  0.0000E+00  0.6224E+00
    -16.947  0.0000E+00  0.6224E+00
    -16.943  0.1535E-12  0.6224E+00
    -16.938  0.2452E-10  0.6224E+00
    -16.933  0.2506E-08  0.6224E+00
    -16.928  0.1634E-06  0.6224E+00
    -16.923  0.6798E-05  0.6224E+00
    -16.919  0.1808E-03  0.6224E+00
    -16.914  0.3078E-02  0.6225E+00
    -16.909  0.3356E-01  0.6226E+00
    -16.904  0.2348E+00  0.6237E+00
    -16.900  0.1055E+01  0.6288E+00
    -16.895  0.3046E+01  0.6434E+00
    -16.890  0.5658E+01  0.6704E+00
    -16.885  0.6766E+01  0.7028E+00
    -16.880  0.5207E+01  0.7277E+00
    -16.876  0.2579E+01  0.7400E+00
    -16.871  0.8219E+00  0.7440E+00
    -16.866  0.1683E+00  0.7448E+00
    -16.861  0.2213E-01  0.7449E+00
    -16.856  0.1866E-02  0.7449E+00
    -16.852  0.1008E-03  0.7449E+00
    -16.847  0.3483E-05  0.7449E+00
    -16.842  0.7692E-07  0.7449E+00
    -16.837  0.1084E-08  0.7449E+00
    -16.833  0.9745E-11  0.7449E+00
    -16.828  0.5684E-13  0.7449E+00
    -16.823  0.0000E+00  0.7449E+00
    -16.818  0.0000E+00  0.7449E+00
    -16.813  0.0000E+00  0.7449E+00
    -16.809  0.0000E+00  0.7449E+00
    -16.804  0.0000E+00  0.7449E+00
    -16.799  0.0000E+00  0.7449E+00
    -16.794  0.4831E-13  0.7449E+00
    -16.790  0.8501E-11  0.7449E+00
    -16.785  0.9576E-09  0.7449E+00
    -16.780  0.6879E-07  0.7449E+00
    -16.775  0.3154E-05  0.7449E+00
    -16.770  0.9240E-04  0.7449E+00
    -16.766  0.1732E-02  0.7449E+00
    -16.761  0.2079E-01  0.7450E+00
    -16.756  0.1601E+00  0.7458E+00
    -16.751  0.7913E+00  0.7496E+00
    -16.746  0.2514E+01  0.7616E+00
    -16.742  0.5138E+01  0.7862E+00
    -16.737  0.6757E+01  0.8185E+00
    -16.732  0.5720E+01  0.8458E+00
    -16.727  0.3117E+01  0.8608E+00
    -16.723  0.1093E+01  0.8660E+00
    -16.718  0.2462E+00  0.8672E+00
    -16.713  0.3563E-01  0.8673E+00
    -16.708  0.3308E-02  0.8673E+00
    -16.703  0.1967E-03  0.8673E+00
    -16.699  0.7488E-05  0.8673E+00
    -16.694  0.1822E-06  0.8673E+00
    -16.689  0.2830E-08  0.8673E+00
    -16.684  0.2804E-10  0.8673E+00
    -16.679  0.1762E-12  0.8673E+00
    -16.675  0.0000E+00  0.8673E+00
    -16.670  0.0000E+00  0.8673E+00
    -16.665  0.0000E+00  0.8673E+00
    -16.660  0.0000E+00  0.8673E+00
    -16.656  0.0000E+00  0.8673E+00
    -16.651  0.0000E+00  0.8673E+00
    -16.646  0.0000E+00  0.8673E+00
    -16.641  0.0000E+00  0.8673E+00
    -16.636  0.0000E+00  0.8673E+00
    -16.632  0.0000E+00  0.8673E+00
    -16.627  0.0000E+00  0.8673E+00
    -16.622  0.0000E+00  0.8673E+00
    -16.617  0.0000E+00  0.8673E+00
    -16.613  0.0000E+00  0.8673E+00
    -16.608  0.0000E+00  0.8673E+00
    -16.603  0.0000E+00  0.8673E+00
    -16.598  0.0000E+00  0.8673E+00
    -16.593  0.0000E+00  0.8673E+00
    -16.589  0.0000E+00  0.8673E+00
    -16.584  0.0000E+00  0.8673E+00
    -16.579  0.0000E+00  0.8673E+00
    -16.574  0.0000E+00  0.8673E+00
    -16.569  0.0000E+00  0.8673E+00
    -16.565  0.0000E+00  0.8673E+00
    -16.560  0.0000E+00  0.8673E+00
    -16.555  0.0000E+00  0.8673E+00
    -16.550  0.0000E+00  0.8673E+00
    -16.546  0.0000E+00  0.8673E+00
    -16.541  0.0000E+00  0.8673E+00
    -16.536  0.0000E+00  0.8673E+00
    -16.531  0.0000E+00  0.8673E+00
    -16.526  0.0000E+00  0.8673E+00
    -16.522  0.0000E+00  0.8673E+00
    -16.517  0.0000E+00  0.8673E+00
    -16.512  0.0000E+00  0.8673E+00
    -16.507  0.0000E+00  0.8673E+00
    -16.502  0.2842E-14  0.8673E+00
    -16.498  0.5478E-12  0.8673E+00
    -16.493  0.7411E-10  0.8673E+00
    -16.488  0.6391E-08  0.8673E+00
    -16.483  0.3516E-06  0.8673E+00
    -16.479  0.1236E-04  0.8673E+00
    -16.474  0.2777E-03  0.8673E+00
    -16.469  0.3995E-02  0.8674E+00
    -16.464  0.3684E-01  0.8675E+00
    -16.459  0.2180E+00  0.8686E+00
    -16.455  0.8288E+00  0.8726E+00
    -16.450  0.2026E+01  0.8822E+00
    -16.445  0.3187E+01  0.8975E+00
    -16.440  0.3227E+01  0.9129E+00
    -16.436  0.2104E+01  0.9230E+00
    -16.431  0.8822E+00  0.9272E+00
    -16.426  0.2379E+00  0.9284E+00
    -16.421  0.4123E-01  0.9285E+00
    -16.416  0.4585E-02  0.9286E+00
    -16.412  0.3268E-03  0.9286E+00
    -16.407  0.1492E-04  0.9286E+00
    -16.402  0.4354E-06  0.9286E+00
    -16.397  0.8117E-08  0.9286E+00
    -16.392  0.9656E-10  0.9286E+00
    -16.388  0.7332E-12  0.9286E+00
    -16.383  0.2842E-14  0.9286E+00
    -16.378  0.0000E+00  0.9286E+00
    -16.373  0.0000E+00  0.9286E+00
    -16.369  0.0000E+00  0.9286E+00
    -16.364  0.0000E+00  0.9286E+00
    -16.359  0.0000E+00  0.9286E+00
    -16.354  0.0000E+00  0.9286E+00
    -16.349  0.0000E+00  0.9286E+00
    -16.345  0.0000E+00  0.9286E+00
    -16.340  0.0000E+00  0.9286E+00
    -16.335  0.1350E-13  0.9286E+00
    -16.330  0.2447E-11  0.9286E+00
    -16.325  0.2898E-09  0.9286E+00
    -16.321  0.2188E-07  0.9286E+00
    -16.316  0.1055E-05  0.9286E+00
    -16.311  0.3247E-04  0.9286E+00
    -16.306  0.6394E-03  0.9286E+00
    -16.302  0.8065E-02  0.9286E+00
    -16.297  0.6523E-01  0.9289E+00
    -16.292  0.3387E+00  0.9305E+00
    -16.287  0.1130E+01  0.9360E+00
    -16.282  0.2425E+01  0.9476E+00
    -16.278  0.3349E+01  0.9636E+00
    -16.273  0.2977E+01  0.9778E+00
    -16.268  0.1704E+01  0.9860E+00
    -16.263  0.6272E+00  0.9890E+00
    -16.259  0.1484E+00  0.9897E+00
    -16.254  0.2257E-01  0.9898E+00
    -16.249  0.2203E-02  0.9898E+00
    -16.244  0.2197E-03  0.9898E+00
    -16.239  0.1571E-02  0.9898E+00
    -16.235  0.1911E-01  0.9899E+00
    -16.230  0.1496E+00  0.9906E+00
    -16.225  0.7516E+00  0.9942E+00
    -16.220  0.2427E+01  0.1006E+01
    -16.215  0.5043E+01  0.1030E+01
    -16.211  0.6741E+01  0.1062E+01
    -16.206  0.5801E+01  0.1090E+01
    -16.201  0.3213E+01  0.1105E+01
    -16.196  0.1145E+01  0.1111E+01
    -16.192  0.2623E+00  0.1112E+01
    -16.187  0.3859E-01  0.1112E+01
    -16.182  0.3642E-02  0.1112E+01
    -16.177  0.2202E-03  0.1112E+01
    -16.172  0.8523E-05  0.1112E+01
    -16.168  0.2108E-06  0.1112E+01
    -16.163  0.3330E-08  0.1112E+01
    -16.158  0.3355E-10  0.1112E+01
    -16.153  0.2160E-12  0.1112E+01
    -16.148  0.0000E+00  0.1112E+01
    -16.144  0.0000E+00  0.1112E+01
    -16.139  0.0000E+00  0.1112E+01
    -16.134  0.0000E+00  0.1112E+01
    -16.129  0.0000E+00  0.1112E+01
    -16.125  0.0000E+00  0.1112E+01
    -16.120  0.0000E+00  0.1112E+01
    -16.115  0.0000E+00  0.1112E+01
    -16.110  0.0000E+00  0.1112E+01
    -16.105  0.0000E+00  0.1112E+01
    -16.101  0.0000E+00  0.1112E+01
    -16.096  0.0000E+00  0.1112E+01
    -16.091  0.0000E+00  0.1112E+01
    -16.086  0.0000E+00  0.1112E+01
    -16.082  0.0000E+00  0.1112E+01
    -16.077  0.1421E-14  0.1112E+01
    -16.072  0.3765E-12  0.1112E+01
    -16.067  0.5584E-10  0.1112E+01
    -16.062  0.5284E-08  0.1112E+01
    -16.058  0.3190E-06  0.1112E+01
    -16.053  0.1230E-04  0.1112E+01
    -16.048  0.3030E-03  0.1112E+01
    -16.043  0.4779E-02  0.1112E+01
    -16.038  0.4830E-01  0.1113E+01
    -16.034  0.3132E+00  0.1114E+01
    -16.029  0.1305E+01  0.1120E+01
    -16.024  0.3493E+01  0.1137E+01
    -16.019  0.6019E+01  0.1166E+01
    -16.015  0.6675E+01  0.1198E+01
    -16.010  0.4765E+01  0.1220E+01
    -16.005  0.2189E+01  0.1231E+01
    -16.000  0.6467E+00  0.1234E+01
    -15.995  0.1228E+00  0.1235E+01
    -15.991  0.1496E-01  0.1235E+01
    -15.986  0.1169E-02  0.1235E+01
    -15.981  0.5853E-04  0.1235E+01
    -15.976  0.1874E-05  0.1235E+01
    -15.972  0.3832E-07  0.1235E+01
    -15.967  0.5002E-09  0.1235E+01
    -15.962  0.4161E-11  0.1235E+01
    -15.957  0.2274E-13  0.1235E+01
    -15.952  0.0000E+00  0.1235E+01
    -15.948  0.0000E+00  0.1235E+01
    -15.943  0.0000E+00  0.1235E+01
    -15.938  0.0000E+00  0.1235E+01
    -15.933  0.0000E+00  0.1235E+01
    -15.928  0.0000E+00  0.1235E+01
    -15.924  0.0000E+00  0.1235E+01
    -15.919  0.0000E+00  0.1235E+01
    -15.914  0.0000E+00  0.1235E+01
    -15.909  0.0000E+00  0.1235E+01
    -15.905  0.0000E+00  0.1235E+01
    -15.900  0.0000E+00  0.1235E+01
    -15.895  0.0000E+00  0.1235E+01
    -15.890  0.0000E+00  0.1235E+01
    -15.885  0.0000E+00  0.1235E+01
    -15.881  0.0000E+00  0.1235E+01
    -15.876  0.0000E+00  0.1235E+01
    -15.871  0.0000E+00  0.1235E+01
    -15.866  0.0000E+00  0.1235E+01
    -15.861  0.0000E+00  0.1235E+01
    -15.857  0.0000E+00  0.1235E+01
    -15.852  0.0000E+00  0.1235E+01
    -15.847  0.0000E+00  0.1235E+01
    -15.842  0.0000E+00  0.1235E+01
    -15.838  0.0000E+00  0.1235E+01
    -15.833  0.0000E+00  0.1235E+01
    -15.828  0.0000E+00  0.1235E+01
    -15.823  0.0000E+00  0.1235E+01
    -15.818  0.0000E+00  0.1235E+01
    -15.814  0.0000E+00  0.1235E+01
    -15.809  0.0000E+00  0.1235E+01
    -15.804  0.0000E+00  0.1235E+01
    -15.799  0.0000E+00  0.1235E+01
    -15.795  0.0000E+00  0.1235E+01
    -15.790  0.0000E+00  0.1235E+01
    -15.785  0.0000E+00  0.1235E+01
    -15.780  0.0000E+00  0.1235E+01
    -15.775  0.2131E-14  0.1235E+01
    -15.771  0.4199E-12  0.1235E+01
    -15.766  0.5814E-10  0.1235E+01