    2    2    1    1
  0.1119644E+03  0.3282343E-09  0.3282343E-09  0.2400000E-08  0.5000000E-15
  1.000000000000000E-004
  CAR 
 unknown system                          
     10     24     16
 
  0.0000000E+00  0.0000000E+00  0.0000000E+00  0.5102041E-02
      1        -18.407687   1.000000
      2        -10.693585   1.000000
      3         -4.700643   1.000000
      4         -4.431600   1.000000
      5         -4.431599   1.000000
      6         -0.560712   0.000000
      7         -0.407637   0.000000
      8         -0.407636   0.000000
      9          1.059646   0.000000
     10          1.594918   0.000000
     11          2.096526   0.000000
     12          2.390305   0.000000
     13          3.369434   0.000000
     14          3.748918   0.000000
     15          5.246871   0.000000
     16          5.543667   0.000000
 
  0.7142857E-01  0.0000000E+00  0.0000000E+00  0.3061224E-01
      1        -18.325630   1.000000
      2        -10.638869   1.000000
      3         -5.112604   1.000000
      4         -4.652316   1.000000
      5         -4.617677   1.000000
      6         -0.655100   0.000000
      7         -0.169972   0.000000
      8          0.117477   0.000000
      9          1.163905   0.000000
     10          1.679030   0.000000
     11          2.184230   0.000000
     12          2.485079   0.000000
     13          3.432010   0.000000
     14          3.841604   0.000000
     15          4.812873   0.000000
     16          5.500207   0.000000
 
  0.1428571E+00 -0.1387779E-16  0.0000000E+00  0.3061224E-01
      1        -18.080721   1.000000
      2        -10.497564   1.000000
      3         -6.439873   1.000000
      4         -5.048956   1.000000
      5         -4.523337   1.000000
      6         -1.190079   0.000000
      7          0.360152   0.000000
      8          1.131872   0.000000
      9          1.500781   0.000000
     10          1.951489   0.000000
     11          2.447751   0.000000
     12          2.768518   0.000000
     13          3.505434   0.000000
     14          4.117885   0.000000
     15          4.180364   0.000000
     16          5.273209   0.000000
 
  0.2142857E+00  0.1387779E-16  0.0000000E+00  0.3061224E-01
      1        -17.677033   1.000000
      2        -10.389672   1.000000
      3         -7.724152   1.000000
      4         -5.536407   1.000000
      5         -4.376329   1.000000
      6         -1.799130   0.000000
      7          0.841958   0.000000
      8          1.107090   0.000000
      9          1.862516   0.000000
     10          2.477217   0.000000
     11          2.937511   0.000000
     12          3.232655   0.000000
     13          3.911860   0.000000
     14          4.509303   0.000000
     15          4.591208   0.000000
     16          5.266613   0.000000
 
  0.2857143E+00 -0.2775558E-16  0.0000000E+00  0.3061224E-01
      1        -17.124014   1.000000
      2        -10.729406   1.000000
      3         -8.391077   1.000000
      4         -5.970087   1.000000
      5         -4.375688   1.000000
      6         -2.254097   0.000000
      7          0.295608   0.000000
      8          1.067590   0.000000
      9          2.502927   0.000000
     10          2.986517   0.000000
     11          3.509562   0.000000
     12          3.875630   0.000000
     13          4.140937   0.000000
     14          5.069294   0.000000
     15          5.325691   0.000000
     16          5.907995   0.000000
 
  0.3571429E+00  0.2775558E-16  0.0000000E+00  0.3061224E-01
      1        -16.444949   1.000000
      2        -11.690344   1.000000
      3         -8.215358   1.000000
      4         -6.301226   1.000000
      5         -4.726968   1.000000
      6         -2.383159   0.000000
      7         -0.374736   0.000000
      8          1.089526   0.000000
      9          2.862627   0.000000
     10          3.359481   0.000000
     11          4.128393   0.000000
     12          4.557253   0.000000
     13          4.760832   0.000000
     14          5.769533   0.000000
     15          6.123467   0.000000
     16          6.920135   0.000000
 
  0.4285714E+00  0.2775558E-16  0.0000000E+00  0.3061224E-01
      1        -15.717586   1.000000
      2        -12.722962   1.000000
      3         -7.727086   1.000000
      4         -6.506501   1.000000
      5         -5.309097   1.000000
      6         -2.329531   0.000000
      7         -0.695872   0.000000
      8          1.047600   0.000000
      9          2.364739   0.000000
     10          4.354149   0.000000
     11          5.034295   0.000000
     12          5.490316   0.000000
     13          5.787646   0.000000
     14          6.362623   0.000000
     15          6.884637   0.000000
     16          7.142298   0.000000
 
  0.5000000E+00  0.0000000E+00  0.0000000E+00  0.1530612E-01
      1        -15.297121   1.000000
      2        -13.258495   1.000000
      3         -7.426426   1.000000
      4         -6.575983   1.000000
      5         -5.650215   1.000000
      6         -2.301840   0.000000
      7         -0.756667   0.000000
      8          1.025353   0.000000
      9          2.133911   0.000000
     10          5.452081   0.000000
     11          5.455799   0.000000
     12          5.909941   0.000000
     13          6.341068   0.000000
     14          6.577318   0.000000
     15          6.794412   0.000000
     16          6.985131   0.000000
 
  0.7142857E-01  0.7142857E-01  0.0000000E+00  0.3061224E-01
      1        -18.162149   1.000000
      2        -10.540003   1.000000
      3         -6.017308   1.000000
      4         -5.019288   1.000000
      5         -4.563371   1.000000
      6         -0.628156   0.000000
      7         -0.275238   0.000000
      8          1.037930   0.000000
      9          1.413683   0.000000
     10          1.837263   0.000000
     11          2.353845   0.000000
     12          2.674515   0.000000
     13          3.485370   0.000000
     14          4.026242   0.000000
     15          4.285191   0.000000
     16          5.125283   0.000000
 
  0.1428571E+00  0.7142857E-01  0.0000000E+00  0.6122449E-01
      1        -17.837662   1.000000
      2        -10.402928   1.000000
      3         -7.206439   1.000000
      4         -5.620021   1.000000
      5         -4.420598   1.000000
      6         -1.083073   0.000000
      7          0.220170   0.000000
      8          1.536334   0.000000
      9          1.754710   0.000000
     10          2.207433   0.000000
     11          2.690203   0.000000
     12          3.049232   0.000000
     13          3.393008   0.000000
     14          4.255592   0.000000
     15          4.391470   0.000000
     16          5.250852   0.000000
 
  0.2142857E+00  0.7142857E-01  0.0000000E+00  0.6122449E-01
      1        -17.358422   1.000000
      2        -10.476624   1.000000
      3         -8.156303   1.000000
      4         -6.172051   1.000000
      5         -4.324604   1.000000
      6         -1.613058   0.000000
      7          0.629588   0.000000
      8          0.931163   0.000000
      9          2.228963   0.000000
     10          2.760522   0.000000
     11          3.242194   0.000000
     12          3.600637   0.000000
     13          3.823067   0.000000
     14          4.750811   0.000000
     15          4.894439   0.000000
     16          5.314746   0.000000
 
  0.2857143E+00  0.7142857E-01  0.0000000E+00  0.6122449E-01
      1        -16.738696   1.000000
      2        -11.180499   1.000000
      3         -8.323397   1.000000
      4         -6.596850   1.000000
      5         -4.473505   1.000000
      6         -1.914512   0.000000
      7          0.096285   0.000000
      8          0.767825   0.000000
      9          2.932225   0.000000
     10          3.192638   0.000000
     11          3.840535   0.000000
     12          4.247864   0.000000
     13          4.404513   0.000000
     14          5.406327   0.000000
     15          5.558648   0.000000
     16          5.772443   0.000000
 
  0.3571429E+00  0.7142857E-01  0.0000000E+00  0.6122449E-01
      1        -16.018216   1.000000
      2        -12.226244   1.000000
      3         -7.965173   1.000000
      4         -6.845972   1.000000
      5         -4.964751   1.000000
      6         -1.892976   0.000000
      7         -0.494223   0.000000
      8          0.796047   0.000000
      9          2.739978   0.000000
     10          3.913844   0.000000
     11          4.623618   0.000000
     12          5.067828   0.000000
     13          5.322296   0.000000
     14          6.169031   0.000000
     15          6.582675   0.000000
     16          6.679415   0.000000
 
  0.4285714E+00  0.7142857E-01  0.0000000E+00  0.6122449E-01
      1        -15.360027   1.000000
      2        -13.096579   1.000000
      3         -7.624424   1.000000
      4         -6.842470   1.000000
      5         -5.524204   1.000000
      6         -1.761380   0.000000
      7         -0.798917   0.000000
      8          0.854911   0.000000
      9          2.276424   0.000000
     10          4.991794   0.000000
     11          5.582665   0.000000
     12          6.061916   0.000000
     13          6.252465   0.000000
     14          6.460117   0.000000
     15          6.634410   0.000000
     16          7.168574   0.000000
 
  0.1428571E+00  0.1428571E+00  0.0000000E+00  0.3061224E-01
      1        -17.437056   1.000000
      2        -10.407657   1.000000
      3         -7.918700   1.000000
      4         -6.480050   1.000000
      5         -4.316675   1.000000
      6         -0.814711   0.000000
      7          0.024633   0.000000
      8          1.670605   0.000000
      9          2.174437   0.000000
     10          2.180914   0.000000
     11          2.975994   0.000000
     12          3.413353   0.000000
     13          3.519323   0.000000
     14          4.634969   0.000000
     15          4.818051   0.000000
     16          5.536158   0.000000
 
  0.2142857E+00  0.1428571E+00  0.0000000E+00  0.6122449E-01
      1        -16.888023   1.000000
      2        -10.848261   1.000000
      3         -8.210784   1.000000
      4         -7.187147   1.000000
      5         -4.343001   1.000000
      6         -1.040682   0.000000
      7          0.050453   0.000000
      8          1.124912   0.000000
      9          2.643073   0.000000
     10          2.857713   0.000000
     11          3.566402   0.000000
     12          3.995581   0.000000
     13          4.172269   0.000000
     14          4.898916   0.000000
     15          5.248877   0.000000
     16          5.633060   0.000000
 
  0.2857143E+00  0.1428571E+00  0.0000000E+00  0.6122449E-01
      1        -16.212316   1.000000
      2        -11.747293   1.000000
      3         -8.105877   1.000000
      4         -7.514043   1.000000
      5         -4.657357   1.000000
      6         -1.215031   0.000000
      7         -0.119169   0.000000
      8          0.687675   0.000000
      9          3.104463   0.000000
     10          3.680783   0.000000
     11          4.361671   0.000000
     12          4.791167   0.000000
     13          4.916330   0.000000
     14          5.057183   0.000000
     15          5.980529   0.000000
     16          6.411841   0.000000
 
  0.3571429E+00  0.1428571E+00  0.0000000E+00  0.6122449E-01
      1        -15.481067   1.000000
      2        -12.720201   1.000000
      3         -8.188572   1.000000
      4         -7.188385   1.000000
      5         -5.219883   1.000000
      6         -1.196448   0.000000
      7         -0.373338   0.000000
      8          0.620372   0.000000
      9          2.707283   0.000000
     10          4.656327   0.000000
     11          5.279376   0.000000
     12          5.757056   0.000000
     13          5.852407   0.000000
     14          6.079115   0.000000
     15          6.670616   0.000000
     16          7.183258   0.000000
 
  0.4285714E+00  0.1428571E+00  0.0000000E+00  0.3061224E-01
      1        -15.044676   1.000000
      2        -13.250405   1.000000
      3         -8.257599   1.000000
      4         -6.854489   1.000000
      5         -5.602074   1.000000
      6         -1.151113   0.000000
      7         -0.492180   0.000000
      8          0.676504   0.000000
      9          2.424591   0.000000
     10          5.643268   0.000000
     11          5.916022   0.000000
     12          6.067772   0.000000
     13          6.209277   0.000000
     14          6.790229   0.000000
     15          6.881132   0.000000
     16          7.256027   0.000000
 
  0.2142857E+00  0.2142857E+00  0.0000000E+00  0.3061224E-01
      1        -16.278934   1.000000
      2        -11.528893   1.000000
      3         -8.099438   1.000000
      4         -7.882257   1.000000
      5         -4.538880   1.000000
      6         -0.717884   0.000000
      7         -0.577082   0.000000
      8          1.725078   0.000000
      9          2.573176   0.000000
     10          3.548578   0.000000
     11          4.220193   0.000000
     12          4.477755   0.000000
     13          4.675789   0.000000
     14          4.975237   0.000000
     15          5.794320   0.000000
     16          6.334290   0.000000
 
  0.2857143E+00  0.2142857E+00  0.0000000E+00  0.6122449E-01
      1        -15.563856   1.000000
      2        -12.382826   1.000000
      3         -8.710439   1.000000
      4         -7.340436   1.000000
      5         -4.965561   1.000000
      6         -1.304674   0.000000
      7         -0.117049   0.000000
      8          1.513607   0.000000
      9          3.115413   0.000000
     10          4.467570   0.000000
     11          4.532506   0.000000
     12          4.974718   0.000000
     13          5.495380   0.000000
     14          5.892189   0.000000
     15          6.110658   0.000000
     16          7.141137   0.000000
 
  0.3571429E+00  0.2142857E+00  0.0000000E+00  0.6122449E-01
      1        -14.876398   1.000000
      2        -13.171688   1.000000
      3         -9.007897   1.000000
      4         -6.766225   1.000000
      5         -5.494795   1.000000
      6         -1.610963   0.000000
      7          0.453307   0.000000
      8          1.036453   0.000000
      9          2.979171   0.000000
     10          4.992064   0.000000
     11          5.612250   0.000000
     12          5.897037   0.000000
     13          6.518508   0.000000
     14          6.845212   0.000000
     15          7.006674   0.000000
     16          7.041635   0.000000
 
  0.2857143E+00  0.2857143E+00  0.0000000E+00  0.3061224E-01
      1        -14.836340   1.000000
      2        -13.080980   1.000000
      3         -9.323523   1.000000
      4         -6.750105   1.000000
      5         -5.400220   1.000000
      6         -1.828720   0.000000
      7          0.470568   0.000000
      8          1.705741   0.000000
      9          3.710239   0.000000
     10          4.503685   0.000000
     11          4.946194   0.000000
     12          5.513366   0.000000
     13          6.340179   0.000000
     14          6.784982   0.000000
     15          6.924326   0.000000
     16          7.684970   0.000000
 
  0.3571429E+00  0.2857143E+00  0.0000000E+00  0.3061224E-01
      1        -14.295250   1.000000
      2        -13.610296   1.000000
      3         -9.539545   1.000000
      4         -6.300423   1.000000
      5         -5.784729   1.000000
      6         -2.037988   0.000000
      7          0.988405   0.000000
      8          1.335954   0.000000
      9          3.860528   0.000000
     10          4.638990   0.000000
     11          5.836594   0.000000
     12          6.252143   0.000000
     13          6.601599   0.000000
     14          6.794861   0.000000
     15          7.492058   0.000000
     16          7.572828   0.000000
