       N       E                     dE             d eps       ncg     rms          rms(c)
DAV:   1     0.336881285117E+02    0.33688E+02   -0.27501E+03   768   0.263E+02
DAV:   2    -0.925947044540E+01   -0.42948E+02   -0.41063E+02  1104   0.653E+01
DAV:   3    -0.107657577056E+02   -0.15063E+01   -0.15063E+01  1056   0.175E+01
DAV:   4    -0.107854221416E+02   -0.19664E-01   -0.19664E-01  1216   0.183E+00
DAV:   5    -0.107857637126E+02   -0.34157E-03   -0.34157E-03  1088   0.188E-01
DAV:   6    -0.107857663067E+02   -0.25941E-05   -0.25937E-05  1296   0.129E-02
DAV:   7    -0.107857663202E+02   -0.13520E-07   -0.13521E-07  1184   0.887E-04
DAV:   8    -0.107857663204E+02   -0.13847E-09   -0.13916E-09  1312   0.821E-05
DAV:   9    -0.107857663204E+02   -0.20464E-11   -0.20415E-11  1104   0.851E-06
DAV:  10    -0.107857663204E+02   -0.45475E-12   -0.21331E-12  1152   0.360E-06
DAV:  11    -0.107857663204E+02   -0.22737E-12   -0.50370E-12   912   0.231E-06
DAV:  12    -0.107857663204E+02    0.00000E+00    0.21662E-12   832   0.170E-06    0.249E+00
DAV:  13    -0.107594720950E+02    0.26294E-01   -0.53669E-03  1248   0.228E-01    0.221E+00
DAV:  14    -0.106842701992E+02    0.75202E-01   -0.29260E-01  1328   0.168E+00    0.301E-01
DAV:  15    -0.106782488460E+02    0.60214E-02   -0.31896E-02  1360   0.586E-01    0.116E-01
DAV:  16    -0.106784110746E+02   -0.16223E-03   -0.12751E-03  1408   0.145E-01    0.673E-02
DAV:  17    -0.106782216334E+02    0.18944E-03   -0.13049E-03  1328   0.110E-01    0.391E-02
DAV:  18    -0.106782030764E+02    0.18557E-04   -0.15110E-04  1184   0.423E-02    0.724E-03
DAV:  19    -0.106782036327E+02   -0.55626E-06   -0.82780E-06  1040   0.124E-02
   1 F= -.10678204E+02 E0= -.10678204E+02  d E =-.111634E-12
 Linear response reoptimize wavefunctions
DAV:   1    -0.106782036960E+02   -0.63333E-07   -0.63332E-07  1328   0.351E-03
DAV:   2    -0.106782036962E+02   -0.19168E-09   -0.19197E-09  1072   0.159E-04
DAV:   3    -0.106782036962E+02   -0.31832E-11   -0.36260E-11  1296   0.134E-05
 Linear response G [H, r] |phi>, progress :
  Direction:   1
       N       E                     dE             d eps       ncg     rms
RMM:   1    -0.353029889129E+02   -0.35303E+02    0.73034E+01  1997   0.510E+01
RMM:   2    -0.315164903290E+02    0.37865E+01   -0.65385E+00  1618   0.119E+01
RMM:   3    -0.317791092466E+02   -0.26262E+00   -0.54538E-01  1627   0.339E+00
RMM:   4    -0.318012370098E+02   -0.22128E-01   -0.33483E-02  1650   0.828E-01
RMM:   5    -0.318020959731E+02   -0.85896E-03   -0.37192E-03  1677   0.281E-01
RMM:   6    -0.318022576535E+02   -0.16168E-03   -0.33583E-04  1693   0.777E-02
RMM:   7    -0.318022656592E+02   -0.80056E-05   -0.50705E-05  1720   0.274E-02
RMM:   8    -0.318022664994E+02   -0.84022E-06   -0.64796E-06  1693   0.794E-03
 Linear response G [H, r] |phi>, progress :
  Direction:   2
       N       E                     dE             d eps       ncg     rms
RMM:   1    -0.434106707948E+02   -0.43411E+02   -0.50401E+01  1926   0.490E+01
RMM:   2    -0.383934796744E+02    0.50172E+01   -0.80988E+00  1632   0.116E+01
RMM:   3    -0.386090943497E+02   -0.21561E+00   -0.67361E-01  1610   0.298E+00
RMM:   4    -0.386084840520E+02    0.61030E-03   -0.31195E-02  1629   0.710E-01
RMM:   5    -0.386088482855E+02   -0.36423E-03   -0.25434E-03  1658   0.232E-01
RMM:   6    -0.386089370085E+02   -0.88723E-04   -0.23722E-04  1697   0.659E-02
RMM:   7    -0.386089435987E+02   -0.65902E-05   -0.31973E-05  1707   0.220E-02
RMM:   8    -0.386089442729E+02   -0.67422E-06   -0.33014E-06  1689   0.606E-03
 Linear response G [H, r] |phi>, progress :
  Direction:   3
       N       E                     dE             d eps       ncg     rms
RMM:   1    -0.252141919881E+02   -0.25214E+02    0.25785E+02  1802   0.595E+01
RMM:   2    -0.350767079317E+02   -0.98625E+01   -0.80577E+00  1592   0.133E+01
RMM:   3    -0.352356292316E+02   -0.15892E+00   -0.68602E-01  1609   0.325E+00
RMM:   4    -0.352411463696E+02   -0.55171E-02   -0.42268E-02  1643   0.863E-01
RMM:   5    -0.352421409931E+02   -0.99462E-03   -0.49457E-03  1699   0.283E-01
RMM:   6    -0.352422955478E+02   -0.15455E-03   -0.54429E-04  1706   0.928E-02
RMM:   7    -0.352423156902E+02   -0.20142E-04   -0.87856E-05  1738   0.325E-02
RMM:   8    -0.352423185796E+02   -0.28895E-05   -0.13137E-05  1710   0.111E-02
RMM:   9    -0.352423190306E+02   -0.45099E-06   -0.30200E-06  1702   0.403E-03
 Linear response to external field (no local field effect), progress :
  Direction:   1
       N       E                     dE             d eps       ncg     rms          rms(c)
RMM:   1    -0.123978208164E+01   -0.12398E+01   -0.69055E+00  1934   0.327E+00
RMM:   2    -0.130494107809E+01   -0.65159E-01   -0.21695E-02  1496   0.598E-01
RMM:   3    -0.130572187792E+01   -0.78080E-03   -0.11538E-03  1616   0.130E-01
RMM:   4    -0.130578885956E+01   -0.66982E-04   -0.89324E-05  1657   0.376E-02
RMM:   5    -0.130579272438E+01   -0.38648E-05   -0.10113E-05  1672   0.116E-02
RMM:   6    -0.130579320266E+01   -0.47828E-06   -0.75857E-07  1648   0.347E-03
 Linear response to external field (no local field effect), progress :
  Direction:   2
       N       E                     dE             d eps       ncg     rms          rms(c)
RMM:   1    -0.137722596473E+01   -0.13772E+01   -0.73965E+00  1902   0.335E+00
RMM:   2    -0.143478462484E+01   -0.57559E-01   -0.26191E-02  1511   0.617E-01
RMM:   3    -0.143574328073E+01   -0.95866E-03   -0.14506E-03  1599   0.132E-01
RMM:   4    -0.143581936811E+01   -0.76087E-04   -0.11786E-04  1636   0.402E-02
RMM:   5    -0.143582535730E+01   -0.59892E-05   -0.14384E-05  1643   0.122E-02
RMM:   6    -0.143582600618E+01   -0.64888E-06   -0.89354E-07  1621   0.369E-03
 Linear response to external field (no local field effect), progress :
  Direction:   3
       N       E                     dE             d eps       ncg     rms          rms(c)
RMM:   1    -0.505579351376E+00   -0.50558E+00   -0.12141E+00  1887   0.280E+00
RMM:   2    -0.556581416466E+00   -0.51002E-01   -0.17811E-02  1476   0.578E-01
RMM:   3    -0.557011832004E+00   -0.43042E-03   -0.70020E-04  1597   0.104E-01
RMM:   4    -0.557038246345E+00   -0.26414E-04   -0.53204E-05  1639   0.279E-02
RMM:   5    -0.557039909777E+00   -0.16634E-05   -0.50293E-06  1645   0.794E-03
RMM:   6    -0.557040122213E+00   -0.21244E-06   -0.52926E-07  1572   0.256E-03
 Linear response to external field, progress :
  Direction:   1
       N       E                     dE             d eps       ncg     rms          rms(c)
RMM:   1    -0.130634812934E+01   -0.13063E+01   -0.71295E+00  4535   0.328E+00
RMM:   2    -0.136984859846E+01   -0.63500E-01   -0.24299E-02  3554   0.600E-01    0.201E+00
RMM:   3    -0.134159063795E+01    0.28258E-01   -0.49833E-03  3539   0.264E-01    0.174E+00
RMM:   4    -0.134766849572E+01   -0.60779E-02   -0.13005E-01  3385   0.126E+00    0.355E-01
RMM:   5    -0.136127210850E+01   -0.13604E-01   -0.22425E-03  3265   0.277E-01    0.140E-01
RMM:   6    -0.136720928910E+01   -0.59372E-02   -0.86106E-04  3517   0.116E-01    0.255E-02
RMM:   7    -0.136752170507E+01   -0.31242E-03   -0.64760E-05  3781   0.328E-02    0.216E-02
RMM:   8    -0.136871685518E+01   -0.11952E-02   -0.21772E-05  3272   0.204E-02    0.312E-03
RMM:   9    -0.136900880159E+01   -0.29195E-03   -0.53624E-06  3983   0.446E-03    0.359E-03
RMM:  10    -0.136893473619E+01    0.74065E-04   -0.40114E-06  3364   0.331E-03    0.784E-04
RMM:  11    -0.136897432010E+01   -0.39584E-04   -0.62942E-06  3829   0.971E-04    0.330E-04
RMM:  12    -0.136898584853E+01   -0.11528E-04   -0.11181E-06  3314   0.412E-04    0.131E-04
RMM:  13    -0.136898754619E+01   -0.16977E-05   -0.92305E-09  2583   0.244E-04    0.167E-05
RMM:  14    -0.136898784951E+01   -0.30332E-06   -0.90933E-09  2213   0.234E-04    0.141E-05
 Linear response to external field, progress :
  Direction:   2
       N       E                     dE             d eps       ncg     rms          rms(c)
RMM:   1    -0.130504615282E+01   -0.13050E+01   -0.71164E+00  4547   0.324E+00
RMM:   2    -0.136980050943E+01   -0.64754E-01   -0.25753E-02  3516   0.607E-01    0.201E+00
RMM:   3    -0.134159316914E+01    0.28207E-01   -0.50225E-03  3596   0.264E-01    0.174E+00
RMM:   4    -0.134779469280E+01   -0.62015E-02   -0.13094E-01  3429   0.126E+00    0.355E-01
RMM:   5    -0.136075135920E+01   -0.12957E-01   -0.22065E-03  3309   0.274E-01    0.143E-01
RMM:   6    -0.136722795673E+01   -0.64766E-02   -0.88616E-04  3529   0.117E-01    0.257E-02
RMM:   7    -0.136754463135E+01   -0.31667E-03   -0.63781E-05  3837   0.329E-02    0.217E-02
RMM:   8    -0.136870212396E+01   -0.11575E-02   -0.22084E-05  3315   0.208E-02    0.349E-03
RMM:   9    -0.136890800591E+01   -0.20588E-03   -0.51391E-06  4063   0.434E-03    0.338E-03
RMM:  10    -0.136879971531E+01    0.10829E-03   -0.37048E-06  3662   0.187E-03    0.180E-03
RMM:  11    -0.136897728309E+01   -0.17757E-03   -0.16219E-06  3483   0.227E-03    0.345E-04
RMM:  12    -0.136897078427E+01    0.64988E-05   -0.19836E-06  3821   0.655E-04    0.346E-04
RMM:  13    -0.136898281874E+01   -0.12034E-04   -0.67155E-07  3407   0.455E-04    0.122E-04
RMM:  14    -0.136899187310E+01   -0.90544E-05   -0.61218E-09  2420   0.173E-04    0.419E-05
RMM:  15    -0.136899345483E+01   -0.15817E-05   -0.59760E-09  2199   0.205E-04    0.653E-05
RMM:  16    -0.136899204617E+01    0.14087E-05   -0.62004E-09  1992   0.176E-04    0.462E-06
 Linear response to external field, progress :
  Direction:   3
       N       E                     dE             d eps       ncg     rms          rms(c)
RMM:   1    -0.505579351376E+00   -0.50558E+00   -0.12141E+00  1887   0.280E+00
RMM:   2    -0.556581416466E+00   -0.51002E-01   -0.17811E-02  1476   0.578E-01    0.164E+00
RMM:   3    -0.181885953141E+00    0.37470E+00   -0.75576E-02  1371   0.725E-01    0.521E-01
RMM:   4    -0.124042166411E+00    0.57844E-01   -0.32264E-02  1487   0.436E-01    0.246E-01
RMM:   5    -0.120124881530E+00    0.39173E-02   -0.84884E-03  1310   0.311E-01    0.544E-02
RMM:   6    -0.120254256002E+00   -0.12937E-03   -0.39232E-04  1423   0.728E-02    0.500E-02
RMM:   7    -0.120615768418E+00   -0.36151E-03   -0.27294E-04  1484   0.615E-02    0.277E-02
RMM:   8    -0.120775589258E+00   -0.15982E-03   -0.11757E-04  1483   0.378E-02    0.109E-02
RMM:   9    -0.120801411468E+00   -0.25822E-04   -0.30954E-06  1508   0.789E-03    0.541E-03
RMM:  10    -0.120828122265E+00   -0.26711E-04   -0.12940E-06  1441   0.483E-03    0.109E-03
RMM:  11    -0.120829464640E+00   -0.13424E-05   -0.51256E-08  1566   0.103E-03    0.503E-04
RMM:  12    -0.120830244109E+00   -0.77947E-06   -0.18134E-08  1479   0.537E-04    0.141E-04
