 vasp.6.4.2 20Jul23 (build Nov 14 2023 12:59:38) complex                        
  
 executed on             LinuxIFC date 2023.12.18  09:41:52
 running   16 mpi-ranks, on    1 nodes
 distrk:  each k-point on   16 cores,    1 groups
 distr:  one band on NCORE=   1 cores,   16 groups


--------------------------------------------------------------------------------------------------------


 INCAR:
   ENCUT = 286.920000
   ALGO = Normal
   NELM = 200
   NELMIN = 6
   NELMDL = -12
   EDIFF = 1.0E-6
   AMIX = 0.1
   BMIX = 0.0001
   PREC = Accurate
   IVDW = 0
   ISPIN = 1
   ADDGRID = .TRUE.
   LASPH = .TRUE.
   LEPSILON = .TRUE.
   NSW = 0
   EDIFFG = -0.010
   IBRION = 2
   ISIF = -1
   POTIM = 0.5
   STRESSTYPE = 2
   ISMEAR = 0
   SIGMA = 0.01
   LORBIT = 10
   NEDOS = 6001
   NWRITE = 1
   LWAVE = .FALSE.
   LCHARG = .FALSE.
   LPLANE = .TRUE.

 POTCAR:    PAW_PBE P_GW 19Mar2012                
 -----------------------------------------------------------------------------
|                                                                             |
|           W    W    AA    RRRRR   N    N  II  N    N   GGGG   !!!           |
|           W    W   A  A   R    R  NN   N  II  NN   N  G    G  !!!           |
|           W    W  A    A  R    R  N N  N  II  N N  N  G       !!!           |
|           W WW W  AAAAAA  RRRRR   N  N N  II  N  N N  G  GGG   !            |
|           WW  WW  A    A  R   R   N   NN  II  N   NN  G    G                |
|           W    W  A    A  R    R  N    N  II  N    N   GGGG   !!!           |
|                                                                             |
|     For optimal performance we recommend to set                             |
|       NCORE = 2 up to number-of-cores-per-socket                            |
|     NCORE specifies how many cores store one orbital (NPAR=cpu/NCORE).      |
|     This setting can greatly improve the performance of VASP for DFT.       |
|     The default, NCORE=1 might be grossly inefficient on modern             |
|     multi-core architectures or massively parallel machines. Do your        |
|     own testing! More info at https://www.vasp.at/wiki/index.php/NCORE      |
|     Unfortunately you need to use the default for GW and RPA                |
|     calculations (for HF NCORE is supported but not extensively tested      |
|     yet).                                                                   |
|                                                                             |
 -----------------------------------------------------------------------------

 POTCAR:    PAW_PBE P_GW 19Mar2012                
  local pseudopotential read in
  partial core-charges read in
  partial kinetic energy density read in
  kinetic energy density of atom read in
  atomic valenz-charges read in
  non local Contribution for L=           0  read in
    real space projection operators read in
  non local Contribution for L=           0  read in
    real space projection operators read in
  non local Contribution for L=           1  read in
    real space projection operators read in
  non local Contribution for L=           1  read in
    real space projection operators read in
  non local Contribution for L=           2  read in
    real space projection operators read in
  non local Contribution for L=           2  read in
    real space projection operators read in
    PAW grid and wavefunctions read in
 
   number of l-projection  operators is LMAX  =           6
   number of lm-projection operators is LMMAX =          18
 
  PAW_PBE P_GW 19Mar2012                :
 energy of atom  1       EATOM= -176.0430
 kinetic energy error for atom=    0.0052 (will be added to EATOM!!)
 
 
 POSCAR: pnictogen honeycomb monolayer
  positions in cartesian coordinates
  No initial velocities read in
 exchange correlation table for  LEXCH =        8
   RHO(1)=    0.500       N(1)  =     2000
   RHO(2)=  100.500       N(2)  =     4000
 


--------------------------------------------------------------------------------------------------------


 ion  position               nearest neighbor table
   1  0.667  0.333  0.307-   2 2.27   2 2.27   2 2.27
   2  0.333  0.667  0.359-   1 2.27   1 2.27   1 2.27
 
  LATTYP: Found a hexagonal cell.
 ALAT       =     3.2823433876
 C/A-ratio  =     7.3118492388
  
  Lattice vectors:
  
 A1 = (   3.2823433876,   0.0000000000,   0.0000000000)
 A2 = (  -1.6411716938,   2.8425927576,   0.0000000000)
 A3 = (   0.0000000000,   0.0000000000,  24.0000000000)


Analysis of symmetry for initial positions (statically):
=====================================================================
 Subroutine PRICEL returns:
 Original cell was already a primitive cell.
 

 Routine SETGRP: Setting up the symmetry group for a 
 hexagonal supercell.


 Subroutine GETGRP returns: Found 12 space group operations
 (whereof  6 operations were pure point group operations)
 out of a pool of 24 trial point group operations.


The static configuration has the point symmetry C_3v.
 The point group associated with its full space group is D_3d.


Analysis of symmetry for dynamics (positions and initial velocities):
=====================================================================
 Subroutine PRICEL returns:
 Original cell was already a primitive cell.
 

 Routine SETGRP: Setting up the symmetry group for a 
 hexagonal supercell.


 Subroutine GETGRP returns: Found 12 space group operations
 (whereof  6 operations were pure point group operations)
 out of a pool of 24 trial point group operations.


The dynamic configuration has the point symmetry C_3v.
 The point group associated with its full space group is D_3d.


 Subroutine INISYM returns: Found 12 space group operations
 (whereof  6 operations are pure point group operations),
 and found     1 'primitive' translations


----------------------------------------------------------------------------------------

                                     Primitive cell                                     

  volume of cell :     223.9288

  direct lattice vectors                    reciprocal lattice vectors
     3.282343388  0.000000000  0.000000000     0.304660385  0.175895755  0.000000000
    -1.641171694  2.842592758  0.000000000     0.000000000  0.351791511  0.000000000
     0.000000000  0.000000000 24.000000000     0.000000000  0.000000000  0.041666667

  length of vectors
     3.282343388  3.282343388 24.000000000     0.351791511  0.351791511  0.041666667

  position of ions in fractional coordinates (direct lattice)
     0.666666687  0.333333343  0.307455222
     0.333333343  0.666666687  0.359211445

  ion indices of the primitive-cell ions
   primitive index   ion index
                 1           1
                 2           2

----------------------------------------------------------------------------------------

 
 
 KPOINTS: kpoints                                 

Automatic generation of k-mesh.
 Grid dimensions read from file:
 generate k-points for:   14   14    1

 Generating k-lattice:

  Cartesian coordinates                     Fractional coordinates (reciprocal lattice)
     0.021761456  0.012563983  0.000000000     0.071428571  0.000000000  0.000000000
     0.000000000  0.025127965  0.000000000     0.000000000  0.071428571  0.000000000
     0.000000000  0.000000000  0.041666667     0.000000000  0.000000000  1.000000000

  Length of vectors
     0.025127965  0.025127965  0.041666667

  Shift w.r.t. Gamma in fractional coordinates (k-lattice)
     0.000000000  0.000000000  0.000000000

 
 Subroutine IBZKPT returns following result:
 ===========================================
 
 Found     24 irreducible k-points:
 
 Following reciprocal coordinates:
            Coordinates               Weight
  0.000000  0.000000  0.000000      1.000000
  0.071429  0.000000  0.000000      6.000000
  0.142857 -0.000000  0.000000      6.000000
  0.214286  0.000000  0.000000      6.000000
  0.285714 -0.000000  0.000000      6.000000
  0.357143  0.000000  0.000000      6.000000
  0.428571  0.000000  0.000000      6.000000
  0.500000  0.000000  0.000000      3.000000
  0.071429  0.071429  0.000000      6.000000
  0.142857  0.071429  0.000000     12.000000
  0.214286  0.071429  0.000000     12.000000
  0.285714  0.071429  0.000000     12.000000
  0.357143  0.071429  0.000000     12.000000
  0.428571  0.071429  0.000000     12.000000
  0.142857  0.142857  0.000000      6.000000
  0.214286  0.142857  0.000000     12.000000
  0.285714  0.142857  0.000000     12.000000
  0.357143  0.142857  0.000000     12.000000
  0.428571  0.142857  0.000000      6.000000
  0.214286  0.214286  0.000000      6.000000
  0.285714  0.214286  0.000000     12.000000
  0.357143  0.214286  0.000000     12.000000
  0.285714  0.285714  0.000000      6.000000
  0.357143  0.285714  0.000000      6.000000
 
 Following cartesian coordinates:
            Coordinates               Weight
  0.000000  0.000000  0.000000      1.000000
  0.021761  0.012564  0.000000      6.000000
  0.043523  0.025128  0.000000      6.000000
  0.065284  0.037692  0.000000      6.000000
  0.087046  0.050256  0.000000      6.000000
  0.108807  0.062820  0.000000      6.000000
  0.130569  0.075384  0.000000      6.000000
  0.152330  0.087948  0.000000      3.000000
  0.021761  0.037692  0.000000      6.000000
  0.043523  0.050256  0.000000     12.000000
  0.065284  0.062820  0.000000     12.000000
  0.087046  0.075384  0.000000     12.000000
  0.108807  0.087948  0.000000     12.000000
  0.130569  0.100512  0.000000     12.000000
  0.043523  0.075384  0.000000      6.000000
  0.065284  0.087948  0.000000     12.000000
  0.087046  0.100512  0.000000     12.000000
  0.108807  0.113076  0.000000     12.000000
  0.130569  0.125640  0.000000      6.000000
  0.065284  0.113076  0.000000      6.000000
  0.087046  0.125640  0.000000     12.000000
  0.108807  0.138204  0.000000     12.000000
  0.087046  0.150768  0.000000      6.000000
  0.108807  0.163332  0.000000      6.000000
 
 
 Subroutine IBZKPT_HF returns following result:
 ==============================================
 
 Found    196 k-points in 1st BZ
 the following    196 k-points will be used (e.g. in the exchange kernel)
 Following reciprocal coordinates:   # in IRBZ
  0.000000  0.000000  0.000000    0.00510204   1 t-inv F
  0.071429  0.000000  0.000000    0.00510204   2 t-inv F
  0.142857 -0.000000  0.000000    0.00510204   3 t-inv F
  0.214286  0.000000  0.000000    0.00510204   4 t-inv F
  0.285714 -0.000000  0.000000    0.00510204   5 t-inv F
  0.357143  0.000000  0.000000    0.00510204   6 t-inv F
  0.428571  0.000000  0.000000    0.00510204   7 t-inv F
  0.500000  0.000000  0.000000    0.00510204   8 t-inv F
  0.071429  0.071429  0.000000    0.00510204   9 t-inv F
  0.142857  0.071429  0.000000    0.00510204  10 t-inv F
  0.214286  0.071429  0.000000    0.00510204  11 t-inv F
  0.285714  0.071429  0.000000    0.00510204  12 t-inv F
  0.357143  0.071429  0.000000    0.00510204  13 t-inv F
  0.428571  0.071429  0.000000    0.00510204  14 t-inv F
  0.142857  0.142857  0.000000    0.00510204  15 t-inv F
  0.214286  0.142857  0.000000    0.00510204  16 t-inv F
  0.285714  0.142857  0.000000    0.00510204  17 t-inv F
  0.357143  0.142857  0.000000    0.00510204  18 t-inv F
  0.428571  0.142857  0.000000    0.00510204  19 t-inv F
  0.214286  0.214286  0.000000    0.00510204  20 t-inv F
  0.285714  0.214286  0.000000    0.00510204  21 t-inv F
  0.357143  0.214286  0.000000    0.00510204  22 t-inv F
  0.285714  0.285714  0.000000    0.00510204  23 t-inv F
  0.357143  0.285714  0.000000    0.00510204  24 t-inv F
 -0.071429  0.071429  0.000000    0.00510204   2 t-inv F
  0.000000 -0.071429  0.000000    0.00510204   2 t-inv F
 -0.071429  0.000000  0.000000    0.00510204   2 t-inv F
  0.071429 -0.071429  0.000000    0.00510204   2 t-inv F
  0.000000  0.071429  0.000000    0.00510204   2 t-inv F
 -0.142857  0.142857  0.000000    0.00510204   3 t-inv F
 -0.000000 -0.142857  0.000000    0.00510204   3 t-inv F
 -0.142857  0.000000  0.000000    0.00510204   3 t-inv F
  0.142857 -0.142857  0.000000    0.00510204   3 t-inv F
  0.000000  0.142857  0.000000    0.00510204   3 t-inv F
 -0.214286  0.214286  0.000000    0.00510204   4 t-inv F
  0.000000 -0.214286  0.000000    0.00510204   4 t-inv F
 -0.214286 -0.000000  0.000000    0.00510204   4 t-inv F
  0.214286 -0.214286  0.000000    0.00510204   4 t-inv F
 -0.000000  0.214286  0.000000    0.00510204   4 t-inv F
 -0.285714  0.285714  0.000000    0.00510204   5 t-inv F
 -0.000000 -0.285714  0.000000    0.00510204   5 t-inv F
 -0.285714  0.000000  0.000000    0.00510204   5 t-inv F
  0.285714 -0.285714  0.000000    0.00510204   5 t-inv F
  0.000000  0.285714  0.000000    0.00510204   5 t-inv F
 -0.357143  0.357143  0.000000    0.00510204   6 t-inv F
  0.000000 -0.357143  0.000000    0.00510204   6 t-inv F
 -0.357143 -0.000000  0.000000    0.00510204   6 t-inv F
  0.357143 -0.357143  0.000000    0.00510204   6 t-inv F
 -0.000000  0.357143  0.000000    0.00510204   6 t-inv F
 -0.428571  0.428571  0.000000    0.00510204   7 t-inv F
  0.000000 -0.428571  0.000000    0.00510204   7 t-inv F
 -0.428571 -0.000000  0.000000    0.00510204   7 t-inv F
  0.428571 -0.428571  0.000000    0.00510204   7 t-inv F
 -0.000000  0.428571  0.000000    0.00510204   7 t-inv F
 -0.500000  0.500000  0.000000    0.00510204   8 t-inv F
  0.000000 -0.500000  0.000000    0.00510204   8 t-inv F
 -0.142857  0.071429  0.000000    0.00510204   9 t-inv F
  0.071429 -0.142857  0.000000    0.00510204   9 t-inv F
 -0.071429  0.142857  0.000000    0.00510204   9 t-inv F
  0.142857 -0.071429  0.000000    0.00510204   9 t-inv F
 -0.071429 -0.071429  0.000000    0.00510204   9 t-inv F
 -0.214286  0.142857  0.000000    0.00510204  10 t-inv F
  0.071429 -0.214286  0.000000    0.00510204  10 t-inv F
 -0.142857  0.214286  0.000000    0.00510204  10 t-inv F
  0.214286 -0.071429  0.000000    0.00510204  10 t-inv F
 -0.071429 -0.142857  0.000000    0.00510204  10 t-inv F
 -0.142857 -0.071429  0.000000    0.00510204  10 t-inv F
  0.214286 -0.142857  0.000000    0.00510204  10 t-inv F
 -0.071429  0.214286  0.000000    0.00510204  10 t-inv F
  0.142857 -0.214286  0.000000    0.00510204  10 t-inv F
 -0.214286  0.071429  0.000000    0.00510204  10 t-inv F
  0.071429  0.142857  0.000000    0.00510204  10 t-inv F
 -0.285714  0.214286  0.000000    0.00510204  11 t-inv F
  0.071429 -0.285714  0.000000    0.00510204  11 t-inv F
 -0.214286  0.285714  0.000000    0.00510204  11 t-inv F
  0.285714 -0.071429  0.000000    0.00510204  11 t-inv F
 -0.071429 -0.214286  0.000000    0.00510204  11 t-inv F
 -0.214286 -0.071429  0.000000    0.00510204  11 t-inv F
  0.285714 -0.214286  0.000000    0.00510204  11 t-inv F
 -0.071429  0.285714  0.000000    0.00510204  11 t-inv F
  0.214286 -0.285714  0.000000    0.00510204  11 t-inv F
 -0.285714  0.071429  0.000000    0.00510204  11 t-inv F
  0.071429  0.214286  0.000000    0.00510204  11 t-inv F
 -0.357143  0.285714  0.000000    0.00510204  12 t-inv F
  0.071429 -0.357143  0.000000    0.00510204  12 t-inv F
 -0.285714  0.357143  0.000000    0.00510204  12 t-inv F
  0.357143 -0.071429  0.000000    0.00510204  12 t-inv F
 -0.071429 -0.285714  0.000000    0.00510204  12 t-inv F
 -0.285714 -0.071429  0.000000    0.00510204  12 t-inv F
  0.357143 -0.285714  0.000000    0.00510204  12 t-inv F
 -0.071429  0.357143  0.000000    0.00510204  12 t-inv F
  0.285714 -0.357143  0.000000    0.00510204  12 t-inv F
 -0.357143  0.071429  0.000000    0.00510204  12 t-inv F
  0.071429  0.285714  0.000000    0.00510204  12 t-inv F
 -0.428571  0.357143  0.000000    0.00510204  13 t-inv F
  0.071429 -0.428571  0.000000    0.00510204  13 t-inv F
 -0.357143  0.428571  0.000000    0.00510204  13 t-inv F
  0.428571 -0.071429  0.000000    0.00510204  13 t-inv F
 -0.071429 -0.357143  0.000000    0.00510204  13 t-inv F
 -0.357143 -0.071429  0.000000    0.00510204  13 t-inv F
  0.428571 -0.357143  0.000000    0.00510204  13 t-inv F
 -0.071429  0.428571  0.000000    0.00510204  13 t-inv F
  0.357143 -0.428571  0.000000    0.00510204  13 t-inv F
 -0.428571  0.071429  0.000000    0.00510204  13 t-inv F
  0.071429  0.357143  0.000000    0.00510204  13 t-inv F
 -0.500000  0.428571  0.000000    0.00510204  14 t-inv F
  0.071429 -0.500000  0.000000    0.00510204  14 t-inv F
 -0.428571  0.500000  0.000000    0.00510204  14 t-inv F
  0.500000 -0.071429  0.000000    0.00510204  14 t-inv F
 -0.071429 -0.428571  0.000000    0.00510204  14 t-inv F
 -0.428571 -0.071429  0.000000    0.00510204  14 t-inv F
  0.500000 -0.428571  0.000000    0.00510204  14 t-inv F
 -0.071429  0.500000  0.000000    0.00510204  14 t-inv F
  0.428571 -0.500000  0.000000    0.00510204  14 t-inv F
 -0.500000  0.071429  0.000000    0.00510204  14 t-inv F
  0.071429  0.428571  0.000000    0.00510204  14 t-inv F
 -0.285714  0.142857  0.000000    0.00510204  15 t-inv F
  0.142857 -0.285714  0.000000    0.00510204  15 t-inv F
 -0.142857  0.285714  0.000000    0.00510204  15 t-inv F
  0.285714 -0.142857  0.000000    0.00510204  15 t-inv F
 -0.142857 -0.142857  0.000000    0.00510204  15 t-inv F
 -0.357143  0.214286  0.000000    0.00510204  16 t-inv F
  0.142857 -0.357143  0.000000    0.00510204  16 t-inv F
 -0.214286  0.357143  0.000000    0.00510204  16 t-inv F
  0.357143 -0.142857  0.000000    0.00510204  16 t-inv F
 -0.142857 -0.214286  0.000000    0.00510204  16 t-inv F
 -0.214286 -0.142857  0.000000    0.00510204  16 t-inv F
  0.357143 -0.214286  0.000000    0.00510204  16 t-inv F
 -0.142857  0.357143  0.000000    0.00510204  16 t-inv F
  0.214286 -0.357143  0.000000    0.00510204  16 t-inv F
 -0.357143  0.142857  0.000000    0.00510204  16 t-inv F
  0.142857  0.214286  0.000000    0.00510204  16 t-inv F
 -0.428571  0.285714  0.000000    0.00510204  17 t-inv F
  0.142857 -0.428571  0.000000    0.00510204  17 t-inv F
 -0.285714  0.428571  0.000000    0.00510204  17 t-inv F
  0.428571 -0.142857  0.000000    0.00510204  17 t-inv F
 -0.142857 -0.285714  0.000000    0.00510204  17 t-inv F
 -0.285714 -0.142857  0.000000    0.00510204  17 t-inv F
  0.428571 -0.285714  0.000000    0.00510204  17 t-inv F
 -0.142857  0.428571  0.000000    0.00510204  17 t-inv F
  0.285714 -0.428571  0.000000    0.00510204  17 t-inv F
 -0.428571  0.142857  0.000000    0.00510204  17 t-inv F
  0.142857  0.285714  0.000000    0.00510204  17 t-inv F
 -0.500000  0.357143  0.000000    0.00510204  18 t-inv F
  0.142857 -0.500000  0.000000    0.00510204  18 t-inv F
 -0.357143  0.500000  0.000000    0.00510204  18 t-inv F
  0.500000 -0.142857  0.000000    0.00510204  18 t-inv F
 -0.142857 -0.357143  0.000000    0.00510204  18 t-inv F
 -0.357143 -0.142857  0.000000    0.00510204  18 t-inv F
  0.500000 -0.357143  0.000000    0.00510204  18 t-inv F
 -0.142857  0.500000  0.000000    0.00510204  18 t-inv F
  0.357143 -0.500000  0.000000    0.00510204  18 t-inv F
 -0.500000  0.142857  0.000000    0.00510204  18 t-inv F
  0.142857  0.357143  0.000000    0.00510204  18 t-inv F
 -0.571429  0.428571  0.000000    0.00510204  19 t-inv F
  0.142857 -0.571429  0.000000    0.00510204  19 t-inv F
 -0.428571  0.571429  0.000000    0.00510204  19 t-inv F
  0.571429 -0.142857  0.000000    0.00510204  19 t-inv F
 -0.142857 -0.428571  0.000000    0.00510204  19 t-inv F
 -0.428571  0.214286  0.000000    0.00510204  20 t-inv F
  0.214286 -0.428571  0.000000    0.00510204  20 t-inv F
 -0.214286  0.428571  0.000000    0.00510204  20 t-inv F
  0.428571 -0.214286  0.000000    0.00510204  20 t-inv F
 -0.214286 -0.214286  0.000000    0.00510204  20 t-inv F
 -0.500000  0.285714  0.000000    0.00510204  21 t-inv F
  0.214286 -0.500000  0.000000    0.00510204  21 t-inv F
 -0.285714  0.500000  0.000000    0.00510204  21 t-inv F
  0.500000 -0.214286  0.000000    0.00510204  21 t-inv F
 -0.214286 -0.285714  0.000000    0.00510204  21 t-inv F
 -0.285714 -0.214286  0.000000    0.00510204  21 t-inv F
  0.500000 -0.285714  0.000000    0.00510204  21 t-inv F
 -0.214286  0.500000  0.000000    0.00510204  21 t-inv F
  0.285714 -0.500000  0.000000    0.00510204  21 t-inv F
 -0.500000  0.214286  0.000000    0.00510204  21 t-inv F
  0.214286  0.285714  0.000000    0.00510204  21 t-inv F
 -0.571429  0.357143  0.000000    0.00510204  22 t-inv F
  0.214286 -0.571429  0.000000    0.00510204  22 t-inv F
 -0.357143  0.571429  0.000000    0.00510204  22 t-inv F
  0.571429 -0.214286  0.000000    0.00510204  22 t-inv F
 -0.214286 -0.357143  0.000000    0.00510204  22 t-inv F
 -0.357143 -0.214286  0.000000    0.00510204  22 t-inv F
  0.571429 -0.357143  0.000000    0.00510204  22 t-inv F
 -0.214286  0.571429  0.000000    0.00510204  22 t-inv F
  0.357143 -0.571429  0.000000    0.00510204  22 t-inv F
 -0.571429  0.214286  0.000000    0.00510204  22 t-inv F
  0.214286  0.357143  0.000000    0.00510204  22 t-inv F
 -0.571429  0.285714  0.000000    0.00510204  23 t-inv F
  0.285714 -0.571429  0.000000    0.00510204  23 t-inv F
 -0.285714  0.571429  0.000000    0.00510204  23 t-inv F
  0.571429 -0.285714  0.000000    0.00510204  23 t-inv F
 -0.285714 -0.285714  0.000000    0.00510204  23 t-inv F
 -0.642857  0.357143  0.000000    0.00510204  24 t-inv F
  0.285714 -0.642857  0.000000    0.00510204  24 t-inv F
 -0.357143  0.642857  0.000000    0.00510204  24 t-inv F
  0.642857 -0.285714  0.000000    0.00510204  24 t-inv F
 -0.285714 -0.357143  0.000000    0.00510204  24 t-inv F


--------------------------------------------------------------------------------------------------------




 Dimension of arrays:
   k-points           NKPTS =     24   k-points in BZ     NKDIM =     24   number of bands    NBANDS=     16
   number of dos      NEDOS =   6001   number of ions     NIONS =      2
   non local maximal  LDIM  =      6   non local SUM 2l+1 LMDIM =     18
   total plane-waves  NPLWV =  45360
   max r-space proj   IRMAX =      1   max aug-charges    IRDMAX=  59946
   dimension x,y,z NGX =    18 NGY =   18 NGZ =  140
   dimension x,y,z NGXF=    36 NGYF=   36 NGZF=  280
   support grid    NGXF=    72 NGYF=   72 NGZF=  560
   ions per type =               2
   NGX,Y,Z   is equivalent  to a cutoff of   9.12,  9.12,  9.70 a.u.
   NGXF,Y,Z  is equivalent  to a cutoff of  18.23, 18.23, 19.40 a.u.

 SYSTEM =  unknown system                          
 POSCAR =  pnictogen honeycomb monolayer           

 Startparameter for this run:
   NWRITE =      1    write-flag & timer
   PREC   = accura    normal or accurate (medium, high low for compatibility)
   ISTART =      0    job   : 0-new  1-cont  2-samecut
   ICHARG =      2    charge: 1-file 2-atom 10-const
   ISPIN  =      1    spin polarized calculation?
   LNONCOLLINEAR =      F non collinear calculations
   LSORBIT =      F    spin-orbit coupling
   INIWAV =      1    electr: 0-lowe 1-rand  2-diag
   LASPH  =      T    aspherical Exc in radial PAW
 Electronic Relaxation 1
   ENCUT  =  286.9 eV  21.09 Ry    4.59 a.u.   4.53  4.53 33.15*2*pi/ulx,y,z
   ENINI  =  286.9     initial cutoff
   ENAUG  =  499.7 eV  augmentation charge cutoff
   NELM   =    200;   NELMIN=  6; NELMDL=-12     # of ELM steps 
   EDIFF  = 0.1E-05   stopping-criterion for ELM
   LREAL  =      F    real-space projection
   NLSPLINE    = F    spline interpolate recip. space projectors
   LCOMPAT=      F    compatible to vasp.4.4
   GGA_COMPAT  = T    GGA compatible to vasp.4.4-vasp.4.6
   LMAXPAW     = -100 max onsite density
   LMAXMIX     =    2 max onsite mixed and CHGCAR
   VOSKOWN=      0    Vosko Wilk Nusair interpolation
   ROPT   =    0.00000
 Ionic relaxation
   EDIFFG = -.1E-01   stopping-criterion for IOM
   NSW    =      0    number of steps for IOM
   NBLOCK =      1;   KBLOCK =      1    inner block; outer block 
   IBRION =     -1    ionic relax: 0-MD 1-quasi-New 2-CG
   NFREE  =      1    steps in history (QN), initial steepest desc. (CG)
   ISIF   =     -1    stress and relaxation
   IWAVPR =     10    prediction:  0-non 1-charg 2-wave 3-comb
   ISYM   =      2    0-nonsym 1-usesym 2-fastsym
   LCORR  =      T    Harris-Foulkes like correction to forces

   POTIM  = 0.5000    time-step for ionic-motion
   TEIN   =    0.0    initial temperature
   TEBEG  =    0.0;   TEEND  =   0.0 temperature during run
   SMASS  =  -3.00    Nose mass-parameter (am)
   estimated Nose-frequenzy (Omega)   =  0.10E-29 period in steps = 0.13E+47 mass=  -0.246E-27a.u.
   SCALEE = 1.0000    scale energy and forces
   NPACO  =    256;   APACO  = 10.0  distance and # of slots for P.C.
   PSTRESS=    0.0 pullay stress

  Mass of Ions in am
   POMASS =  30.97
  Ionic Valenz
   ZVAL   =   5.00
  Atomic Wigner-Seitz radii
   RWIGS  =  -1.00
  virtual crystal weights 
   VCA    =   1.00
   NELECT =      10.0000    total number of electrons
   NUPDOWN=      -1.0000    fix difference up-down

 DOS related values:
   EMIN   =  10.00;   EMAX   =-10.00  energy-range for DOS
   EFERMI =   0.00;   METHOD = LEGACY      
   ISMEAR =     0;   SIGMA  =   0.01  broadening in eV -4-tet -1-fermi 0-gaus

 Electronic relaxation 2 (details)
   IALGO  =     38    algorithm
   LDIAG  =      T    sub-space diagonalisation (order eigenvalues)
   LSUBROT=      F    optimize rotation matrix (better conditioning)
   TURBO    =      0    0=normal 1=particle mesh
   IRESTART =      0    0=no restart 2=restart with 2 vectors
   NREBOOT  =      0    no. of reboots
   NMIN     =      0    reboot dimension
   EREF     =   0.00    reference energy to select bands
   IMIX   =      4    mixing-type and parameters
     AMIX     =   0.10;   BMIX     =  0.00
     AMIX_MAG =   0.40;   BMIX_MAG =  0.00
     AMIN     =   0.10
     WC   =   100.;   INIMIX=   1;  MIXPRE=   1;  MAXMIX= -45

 Intra band minimization:
   WEIMIN = 0.0000     energy-eigenvalue tresh-hold
   EBREAK =  0.16E-07  absolut break condition
   DEPER  =   0.30     relativ break condition  

   TIME   =   0.40     timestep for ELM

  volume/ion in A,a.u.               =     111.96       755.57
  Fermi-wavevector in a.u.,A,eV,Ry     =   0.580815  1.097582  4.589880  0.337347
  Thomas-Fermi vector in A             =   1.625073
 
 Write flags
   LWAVE        =      F    write WAVECAR
   LDOWNSAMPLE  =      F    k-point downsampling of WAVECAR
   LCHARG       =      F    write CHGCAR
   LVTOT        =      F    write LOCPOT, total local potential
   LVHAR        =      F    write LOCPOT, Hartree potential only
   LELF         =      F    write electronic localiz. function (ELF)
   LORBIT       =     10    0 simple, 1 ext, 2 COOP (PROOUT), +10 PAW based schemes


 Dipole corrections
   LMONO  =      F    monopole corrections only (constant potential shift)
   LDIPOL =      F    correct potential (dipole corrections)
   IDIPOL =      0    1-x, 2-y, 3-z, 4-all directions 
   EPSILON=  1.0000000 bulk dielectric constant

 Exchange correlation treatment:
   GGA     =    --    GGA type
   LEXCH   =     8    internal setting for exchange type
   LIBXC   =     F    Libxc                    
   VOSKOWN =     0    Vosko Wilk Nusair interpolation
   LHFCALC =     F    Hartree Fock is set to
   LHFONE  =     F    Hartree Fock one center treatment
   AEXX    =    0.0000 exact exchange contribution

 Linear response parameters
   LEPSILON=     T    determine dielectric tensor
   LRPA    =     F    only Hartree local field effects (RPA)
   LNABLA  =     F    use nabla operator in PAW spheres
   LVEL    =     F    velocity operator in full k-point grid
   CSHIFT  =0.1000    complex shift for real part using Kramers Kronig
   OMEGAMAX=  -1.0    maximum frequency
   DEG_THRESHOLD= 0.2000000E-02 threshold for treating states as degnerate
   RTIME   =   -0.100 relaxation time in fs
  (WPLASMAI=    0.000 imaginary part of plasma frequency in eV, 0.658/RTIME)
   DFIELD  = 0.0000000 0.0000000 0.0000000 field for delta impulse in time
 
  Optional k-point grid parameters
   LKPOINTS_OPT  =     F    use optional k-point grid
   KPOINTS_OPT_MODE=     1    mode for optional k-point grid
 
 Orbital magnetization related:
   ORBITALMAG=     F  switch on orbital magnetization
   LCHIMAG   =     F  perturbation theory with respect to B field
   DQ        =  0.001000  dq finite difference perturbation B field
   LLRAUG    =     F  two centre corrections for induced B field
   LBONE     =     F  B-component reconstruction in AE one-centre
   LVGVCALC  =     T  calculate vGv susceptibility
   LVGVAPPL  =     F  apply vGv susceptibility instead of pGv for G=0

 Random number generation:
   RANDOM_GENERATOR = DEFAULT
   PCG_SEED         = not used


--------------------------------------------------------------------------------------------------------


 Static calculation
 charge density and potential will be updated during run
 non-spin polarized calculation
 Variant of blocked Davidson
 Davidson routine will perform the subspace rotation
 perform sub-space diagonalisation
    after iterative eigenvector-optimisation
 modified Broyden-mixing scheme, WC =      100.0
 initial mixing is a Kerker type mixing with AMIX =  0.1000 and BMIX =      0.0001
 Hartree-type preconditioning will be used
 using additional bands           11
 reciprocal scheme for non local part
 use partial core corrections
 calculate Harris-corrections to forces 
   (improved forces if not selfconsistent)
 use gradient corrections 
 use of overlap-Matrix (Vanderbilt PP)
 Gauss-broadening in eV      SIGMA  =   0.01


--------------------------------------------------------------------------------------------------------


  energy-cutoff  :      286.92
  volume of cell :      223.93
      direct lattice vectors                 reciprocal lattice vectors
     3.282343388  0.000000000  0.000000000     0.304660385  0.175895755  0.000000000
    -1.641171694  2.842592758  0.000000000     0.000000000  0.351791511  0.000000000
     0.000000000  0.000000000 24.000000000     0.000000000  0.000000000  0.041666667

  length of vectors
     3.282343388  3.282343388 24.000000000     0.351791511  0.351791511  0.041666667


 
 k-points in units of 2pi/SCALE and weight: kpoints                                 
   0.00000000  0.00000000  0.00000000       0.005
   0.02176146  0.01256398  0.00000000       0.031
   0.04352291  0.02512797  0.00000000       0.031
   0.06528437  0.03769195  0.00000000       0.031
   0.08704582  0.05025593  0.00000000       0.031
   0.10880728  0.06281991  0.00000000       0.031
   0.13056874  0.07538390  0.00000000       0.031
   0.15233019  0.08794788  0.00000000       0.015
   0.02176146  0.03769195  0.00000000       0.031
   0.04352291  0.05025593  0.00000000       0.061
   0.06528437  0.06281991  0.00000000       0.061
   0.08704582  0.07538390  0.00000000       0.061
   0.10880728  0.08794788  0.00000000       0.061
   0.13056874  0.10051186  0.00000000       0.061
   0.04352291  0.07538390  0.00000000       0.031
   0.06528437  0.08794788  0.00000000       0.061
   0.08704582  0.10051186  0.00000000       0.061
   0.10880728  0.11307584  0.00000000       0.061
   0.13056874  0.12563983  0.00000000       0.031
   0.06528437  0.11307584  0.00000000       0.031
   0.08704582  0.12563983  0.00000000       0.061
   0.10880728  0.13820381  0.00000000       0.061
   0.08704582  0.15076779  0.00000000       0.031
   0.10880728  0.16333177  0.00000000       0.031
 
 k-points in reciprocal lattice and weights: kpoints                                 
   0.00000000  0.00000000  0.00000000       0.005
   0.07142857  0.00000000  0.00000000       0.031
   0.14285714 -0.00000000  0.00000000       0.031
   0.21428571  0.00000000  0.00000000       0.031
   0.28571429 -0.00000000  0.00000000       0.031
   0.35714286  0.00000000  0.00000000       0.031
   0.42857143  0.00000000  0.00000000       0.031
   0.50000000  0.00000000  0.00000000       0.015
   0.07142857  0.07142857  0.00000000       0.031
   0.14285714  0.07142857  0.00000000       0.061
   0.21428571  0.07142857  0.00000000       0.061
   0.28571429  0.07142857  0.00000000       0.061
   0.35714286  0.07142857  0.00000000       0.061
   0.42857143  0.07142857  0.00000000       0.061
   0.14285714  0.14285714  0.00000000       0.031
   0.21428571  0.14285714  0.00000000       0.061
   0.28571429  0.14285714  0.00000000       0.061
   0.35714286  0.14285714  0.00000000       0.061
   0.42857143  0.14285714  0.00000000       0.031
   0.21428571  0.21428571  0.00000000       0.031
   0.28571429  0.21428571  0.00000000       0.061
   0.35714286  0.21428571  0.00000000       0.061
   0.28571429  0.28571429  0.00000000       0.031
   0.35714286  0.28571429  0.00000000       0.031
 
 position of ions in fractional coordinates (direct lattice) 
   0.66666669  0.33333334  0.30745522
   0.33333334  0.66666669  0.35921144
 
 position of ions in cartesian coordinates  (Angst):
   1.64117174  0.94753095  7.37892532
   0.00000000  1.89506190  8.62107468
 


--------------------------------------------------------------------------------------------------------


 k-point   1 :   0.0000 0.0000 0.0000  plane waves:    2509
 k-point   2 :   0.0714 0.0000 0.0000  plane waves:    2491
 k-point   3 :   0.1429-0.0000 0.0000  plane waves:    2498
 k-point   4 :   0.2143 0.0000 0.0000  plane waves:    2506
 k-point   5 :   0.2857-0.0000 0.0000  plane waves:    2490
 k-point   6 :   0.3571 0.0000 0.0000  plane waves:    2478
 k-point   7 :   0.4286 0.0000 0.0000  plane waves:    2456
 k-point   8 :   0.5000 0.0000 0.0000  plane waves:    2456
 k-point   9 :   0.0714 0.0714 0.0000  plane waves:    2513
 k-point  10 :   0.1429 0.0714 0.0000  plane waves:    2511
 k-point  11 :   0.2143 0.0714 0.0000  plane waves:    2501
 k-point  12 :   0.2857 0.0714 0.0000  plane waves:    2483
 k-point  13 :   0.3571 0.0714 0.0000  plane waves:    2459
 k-point  14 :   0.4286 0.0714 0.0000  plane waves:    2446
 k-point  15 :   0.1429 0.1429 0.0000  plane waves:    2513
 k-point  16 :   0.2143 0.1429 0.0000  plane waves:    2483
 k-point  17 :   0.2857 0.1429 0.0000  plane waves:    2454
 k-point  18 :   0.3571 0.1429 0.0000  plane waves:    2450
 k-point  19 :   0.4286 0.1429 0.0000  plane waves:    2440
 k-point  20 :   0.2143 0.2143 0.0000  plane waves:    2461
 k-point  21 :   0.2857 0.2143 0.0000  plane waves:    2447
 k-point  22 :   0.3571 0.2143 0.0000  plane waves:    2440
 k-point  23 :   0.2857 0.2857 0.0000  plane waves:    2436
 k-point  24 :   0.3571 0.2857 0.0000  plane waves:    2448

 maximum and minimum number of plane-waves per node :      2513     2436

 maximum number of plane-waves:      2513
 maximum index in each direction: 
   IXMAX=    4   IYMAX=    4   IZMAX=   33
   IXMIN=   -5   IYMIN=   -4   IZMIN=  -33


 serial   3D FFT for wavefunctions
 parallel 3D FFT for charge:
    minimum data exchange during FFTs selected (reduces bandwidth)


 total amount of memory used by VASP MPI-rank0    46978. kBytes
=======================================================================

   base      :      30000. kBytes
   nonl-proj :       8817. kBytes
   fftplans  :       3863. kBytes
   grid      :       3278. kBytes
   one-center:         31. kBytes
   wavefun   :        989. kBytes
 
     INWAV:  cpu time      0.0000: real time      0.0000
 Broyden mixing: mesh for mixing (old mesh)
   NGX =  9   NGY =  9   NGZ = 67
  (NGX  = 36   NGY  = 36   NGZ  =280)
  gives a total of   5427 points

 initial charge density was supplied:
 charge density of overlapping atoms calculated
 number of electron      10.0000000 magnetization 
 keeping initial charge density in first step


--------------------------------------------------------------------------------------------------------


 Maximum index for augmentation-charges         3992 (set IRDMAX)


--------------------------------------------------------------------------------------------------------


 First call to EWALD:  gamma=   0.292
 Maximum number of real-space cells 5x 5x 1
 Maximum number of reciprocal cells 2x 2x 9

    FEWALD:  cpu time      0.0014: real time      0.0014


--------------------------------------- Ionic step        1  -------------------------------------------




--------------------------------------- Iteration      1(   1)  ---------------------------------------


    POTLOK:  cpu time      0.0150: real time      0.0150
    SETDIJ:  cpu time      0.1598: real time      0.1598
     EDDAV:  cpu time      0.1549: real time      0.1550
       DOS:  cpu time      0.0005: real time      0.0005
    --------------------------------------------
      LOOP:  cpu time      0.3302: real time      0.3304

 eigenvalue-minimisations  :   768
 total energy-change (2. order) : 0.3368813E+02  (-0.2750068E+03)
 number of electron      10.0000000 magnetization 
 augmentation part       10.0000000 magnetization 

 Free energy of the ion-electron system (eV)
  ---------------------------------------------------
  alpha Z        PSCENC =         2.47338559
  Ewald energy   TEWEN  =      1173.09632214
  -Hartree energ DENC   =     -1461.16165281
  -exchange      EXHF   =         0.00000000
  -V(xc)+E(xc)   XCENC  =        -7.57090336
  PAW double counting   =       293.95507915     -263.19716017
  entropy T*S    EENTRO =        -0.00010860
  eigenvalues    EBANDS =       -55.98251441
  atomic energy  EATOM  =       352.07568098
  Solvation  Ediel_sol  =         0.00000000
  ---------------------------------------------------
  free energy    TOTEN  =        33.68812851 eV

  energy without entropy =       33.68823711  energy(sigma->0) =       33.68818281


--------------------------------------------------------------------------------------------------------




--------------------------------------- Iteration      1(   2)  ---------------------------------------


     EDDAV:  cpu time      0.2155: real time      0.2172
       DOS:  cpu time      0.0003: real time      0.0003
    --------------------------------------------
      LOOP:  cpu time      0.2158: real time      0.2175

 eigenvalue-minimisations  :  1104
 total energy-change (2. order) :-0.4294760E+02  (-0.4106282E+02)
 number of electron      10.0000000 magnetization 
 augmentation part       10.0000000 magnetization 

 Free energy of the ion-electron system (eV)
  ---------------------------------------------------
  alpha Z        PSCENC =         2.47338559
  Ewald energy   TEWEN  =      1173.09632214
  -Hartree energ DENC   =     -1461.16165281
  -exchange      EXHF   =         0.00000000
  -V(xc)+E(xc)   XCENC  =        -7.57090336
  PAW double counting   =       293.95507915     -263.19716017
  entropy T*S    EENTRO =        -0.00000000
  eigenvalues    EBANDS =       -98.93022197
  atomic energy  EATOM  =       352.07568098
  Solvation  Ediel_sol  =         0.00000000
  ---------------------------------------------------
  free energy    TOTEN  =        -9.25947045 eV

  energy without entropy =       -9.25947045  energy(sigma->0) =       -9.25947045


--------------------------------------------------------------------------------------------------------




--------------------------------------- Iteration      1(   3)  ---------------------------------------


     EDDAV:  cpu time      0.2099: real time      0.2100
       DOS:  cpu time      0.0003: real time      0.0003
    --------------------------------------------
      LOOP:  cpu time      0.2102: real time      0.2103

 eigenvalue-minimisations  :  1056
 total energy-change (2. order) :-0.1506287E+01  (-0.1506287E+01)
 number of electron      10.0000000 magnetization 
 augmentation part       10.0000000 magnetization 

 Free energy of the ion-electron system (eV)
  ---------------------------------------------------
  alpha Z        PSCENC =         2.47338559
  Ewald energy   TEWEN  =      1173.09632214
  -Hartree energ DENC   =     -1461.16165281
  -exchange      EXHF   =         0.00000000
  -V(xc)+E(xc)   XCENC  =        -7.57090336
  PAW double counting   =       293.95507915     -263.19716017
  entropy T*S    EENTRO =        -0.00000000
  eigenvalues    EBANDS =      -100.43650923
  atomic energy  EATOM  =       352.07568098
  Solvation  Ediel_sol  =         0.00000000
  ---------------------------------------------------
  free energy    TOTEN  =       -10.76575771 eV

  energy without entropy =      -10.76575771  energy(sigma->0) =      -10.76575771


--------------------------------------------------------------------------------------------------------




--------------------------------------- Iteration      1(   4)  ---------------------------------------


     EDDAV:  cpu time      0.2434: real time      0.2435
       DOS:  cpu time      0.0003: real time      0.0003
    --------------------------------------------
      LOOP:  cpu time      0.2437: real time      0.2439

 eigenvalue-minimisations  :  1216
 total energy-change (2. order) :-0.1966444E-01  (-0.1966444E-01)
 number of electron      10.0000000 magnetization 
 augmentation part       10.0000000 magnetization 

 Free energy of the ion-electron system (eV)
  ---------------------------------------------------
  alpha Z        PSCENC =         2.47338559
  Ewald energy   TEWEN  =      1173.09632214
  -Hartree energ DENC   =     -1461.16165281
  -exchange      EXHF   =         0.00000000
  -V(xc)+E(xc)   XCENC  =        -7.57090336
  PAW double counting   =       293.95507915     -263.19716017
  entropy T*S    EENTRO =        -0.00000000
  eigenvalues    EBANDS =      -100.45617367
  atomic energy  EATOM  =       352.07568098
  Solvation  Ediel_sol  =         0.00000000
  ---------------------------------------------------
  free energy    TOTEN  =       -10.78542214 eV

  energy without entropy =      -10.78542214  energy(sigma->0) =      -10.78542214


--------------------------------------------------------------------------------------------------------




--------------------------------------- Iteration      1(   5)  ---------------------------------------


     EDDAV:  cpu time      0.2158: real time      0.2160
       DOS:  cpu time      0.0003: real time      0.0003
    --------------------------------------------
      LOOP:  cpu time      0.2162: real time      0.2163

 eigenvalue-minimisations  :  1088
 total energy-change (2. order) :-0.3415711E-03  (-0.3415714E-03)
 number of electron      10.0000000 magnetization 
 augmentation part       10.0000000 magnetization 

 Free energy of the ion-electron system (eV)
  ---------------------------------------------------
  alpha Z        PSCENC =         2.47338559
  Ewald energy   TEWEN  =      1173.09632214
  -Hartree energ DENC   =     -1461.16165281
  -exchange      EXHF   =         0.00000000
  -V(xc)+E(xc)   XCENC  =        -7.57090336
  PAW double counting   =       293.95507915     -263.19716017
  entropy T*S    EENTRO =        -0.00000000
  eigenvalues    EBANDS =      -100.45651524
  atomic energy  EATOM  =       352.07568098
  Solvation  Ediel_sol  =         0.00000000
  ---------------------------------------------------
  free energy    TOTEN  =       -10.78576371 eV

  energy without entropy =      -10.78576371  energy(sigma->0) =      -10.78576371


--------------------------------------------------------------------------------------------------------




--------------------------------------- Iteration      1(   6)  ---------------------------------------


     EDDAV:  cpu time      0.2552: real time      0.2554
       DOS:  cpu time      0.0003: real time      0.0003
    --------------------------------------------
      LOOP:  cpu time      0.2555: real time      0.2557

 eigenvalue-minimisations  :  1296
 total energy-change (2. order) :-0.2594084E-05  (-0.2593658E-05)
 number of electron      10.0000000 magnetization 
 augmentation part       10.0000000 magnetization 

 Free energy of the ion-electron system (eV)
  ---------------------------------------------------
  alpha Z        PSCENC =         2.47338559
  Ewald energy   TEWEN  =      1173.09632214
  -Hartree energ DENC   =     -1461.16165281
  -exchange      EXHF   =         0.00000000
  -V(xc)+E(xc)   XCENC  =        -7.57090336
  PAW double counting   =       293.95507915     -263.19716017
  entropy T*S    EENTRO =        -0.00000000
  eigenvalues    EBANDS =      -100.45651783
  atomic energy  EATOM  =       352.07568098
  Solvation  Ediel_sol  =         0.00000000
  ---------------------------------------------------
  free energy    TOTEN  =       -10.78576631 eV

  energy without entropy =      -10.78576631  energy(sigma->0) =      -10.78576631


--------------------------------------------------------------------------------------------------------




--------------------------------------- Iteration      1(   7)  ---------------------------------------


     EDDAV:  cpu time      0.2319: real time      0.2320
       DOS:  cpu time      0.0003: real time      0.0003
    --------------------------------------------
      LOOP:  cpu time      0.2322: real time      0.2323

 eigenvalue-minimisations  :  1184
 total energy-change (2. order) :-0.1351970E-07  (-0.1352074E-07)
 number of electron      10.0000000 magnetization 
 augmentation part       10.0000000 magnetization 

 Free energy of the ion-electron system (eV)
  ---------------------------------------------------
  alpha Z        PSCENC =         2.47338559
  Ewald energy   TEWEN  =      1173.09632214
  -Hartree energ DENC   =     -1461.16165281
  -exchange      EXHF   =         0.00000000
  -V(xc)+E(xc)   XCENC  =        -7.57090336
  PAW double counting   =       293.95507915     -263.19716017
  entropy T*S    EENTRO =        -0.00000000
  eigenvalues    EBANDS =      -100.45651785
  atomic energy  EATOM  =       352.07568098
  Solvation  Ediel_sol  =         0.00000000
  ---------------------------------------------------
  free energy    TOTEN  =       -10.78576632 eV

  energy without entropy =      -10.78576632  energy(sigma->0) =      -10.78576632


--------------------------------------------------------------------------------------------------------




--------------------------------------- Iteration      1(   8)  ---------------------------------------


     EDDAV:  cpu time      0.2583: real time      0.2584
       DOS:  cpu time      0.0003: real time      0.0003
    --------------------------------------------
      LOOP:  cpu time      0.2586: real time      0.2588

 eigenvalue-minimisations  :  1312
 total energy-change (2. order) :-0.1384706E-09  (-0.1391574E-09)
 number of electron      10.0000000 magnetization 
 augmentation part       10.0000000 magnetization 

 Free energy of the ion-electron system (eV)
  ---------------------------------------------------
  alpha Z        PSCENC =         2.47338559
  Ewald energy   TEWEN  =      1173.09632214
  -Hartree energ DENC   =     -1461.16165281
  -exchange      EXHF   =         0.00000000
  -V(xc)+E(xc)   XCENC  =        -7.57090336
  PAW double counting   =       293.95507915     -263.19716017
  entropy T*S    EENTRO =        -0.00000000
  eigenvalues    EBANDS =      -100.45651785
  atomic energy  EATOM  =       352.07568098
  Solvation  Ediel_sol  =         0.00000000
  ---------------------------------------------------
  free energy    TOTEN  =       -10.78576632 eV

  energy without entropy =      -10.78576632  energy(sigma->0) =      -10.78576632


--------------------------------------------------------------------------------------------------------




--------------------------------------- Iteration      1(   9)  ---------------------------------------


     EDDAV:  cpu time      0.2190: real time      0.2192
       DOS:  cpu time      0.0003: real time      0.0003
    --------------------------------------------
      LOOP:  cpu time      0.2194: real time      0.2195

 eigenvalue-minimisations  :  1104
 total energy-change (2. order) :-0.2046363E-11  (-0.2041487E-11)
 number of electron      10.0000000 magnetization 
 augmentation part       10.0000000 magnetization 

 Free energy of the ion-electron system (eV)
  ---------------------------------------------------
  alpha Z        PSCENC =         2.47338559
  Ewald energy   TEWEN  =      1173.09632214
  -Hartree energ DENC   =     -1461.16165281
  -exchange      EXHF   =         0.00000000
  -V(xc)+E(xc)   XCENC  =        -7.57090336
  PAW double counting   =       293.95507915     -263.19716017
  entropy T*S    EENTRO =        -0.00000000
  eigenvalues    EBANDS =      -100.45651785
  atomic energy  EATOM  =       352.07568098
  Solvation  Ediel_sol  =         0.00000000
  ---------------------------------------------------
  free energy    TOTEN  =       -10.78576632 eV

  energy without entropy =      -10.78576632  energy(sigma->0) =      -10.78576632


--------------------------------------------------------------------------------------------------------




--------------------------------------- Iteration      1(  10)  ---------------------------------------


     EDDAV:  cpu time      0.2332: real time      0.2333
       DOS:  cpu time      0.0003: real time      0.0003
    --------------------------------------------
      LOOP:  cpu time      0.2335: real time      0.2337

 eigenvalue-minimisations  :  1152
 total energy-change (2. order) :-0.4547474E-12  (-0.2133078E-12)
 number of electron      10.0000000 magnetization 
 augmentation part       10.0000000 magnetization 

 Free energy of the ion-electron system (eV)
  ---------------------------------------------------
  alpha Z        PSCENC =         2.47338559
  Ewald energy   TEWEN  =      1173.09632214
  -Hartree energ DENC   =     -1461.16165281
  -exchange      EXHF   =         0.00000000
  -V(xc)+E(xc)   XCENC  =        -7.57090336
  PAW double counting   =       293.95507915     -263.19716017
  entropy T*S    EENTRO =        -0.00000000
  eigenvalues    EBANDS =      -100.45651785
  atomic energy  EATOM  =       352.07568098
  Solvation  Ediel_sol  =         0.00000000
  ---------------------------------------------------
  free energy    TOTEN  =       -10.78576632 eV

  energy without entropy =      -10.78576632  energy(sigma->0) =      -10.78576632


--------------------------------------------------------------------------------------------------------




--------------------------------------- Iteration      1(  11)  ---------------------------------------


     EDDAV:  cpu time      0.1866: real time      0.1868
       DOS:  cpu time      0.0003: real time      0.0003
    --------------------------------------------
      LOOP:  cpu time      0.1870: real time      0.1871

 eigenvalue-minimisations  :   912
 total energy-change (2. order) :-0.2273737E-12  (-0.5036969E-12)
 number of electron      10.0000000 magnetization 
 augmentation part       10.0000000 magnetization 

 Free energy of the ion-electron system (eV)
  ---------------------------------------------------
  alpha Z        PSCENC =         2.47338559
  Ewald energy   TEWEN  =      1173.09632214
  -Hartree energ DENC   =     -1461.16165281
  -exchange      EXHF   =         0.00000000
  -V(xc)+E(xc)   XCENC  =        -7.57090336
  PAW double counting   =       293.95507915     -263.19716017
  entropy T*S    EENTRO =        -0.00000000
  eigenvalues    EBANDS =      -100.45651785
  atomic energy  EATOM  =       352.07568098
  Solvation  Ediel_sol  =         0.00000000
  ---------------------------------------------------
  free energy    TOTEN  =       -10.78576632 eV

  energy without entropy =      -10.78576632  energy(sigma->0) =      -10.78576632


--------------------------------------------------------------------------------------------------------




--------------------------------------- Iteration      1(  12)  ---------------------------------------


     EDDAV:  cpu time      0.1754: real time      0.1756
       DOS:  cpu time      0.0003: real time      0.0003
    CHARGE:  cpu time      0.0287: real time      0.0288
    MIXING:  cpu time      0.0007: real time      0.0007
    --------------------------------------------
      LOOP:  cpu time      0.2052: real time      0.2054

 eigenvalue-minimisations  :   832
 total energy-change (2. order) : 0.0000000E+00  ( 0.2166249E-12)
 number of electron      10.0000000 magnetization 
 augmentation part       -1.0878549 magnetization 

 Broyden mixing:
  rms(total) = 0.24869E+00    rms(broyden)= 0.24866E+00
  rms(prec ) = 0.26109E+00
  weight for this iteration     100.00

 Free energy of the ion-electron system (eV)
  ---------------------------------------------------
  alpha Z        PSCENC =         2.47338559
  Ewald energy   TEWEN  =      1173.09632214
  -Hartree energ DENC   =     -1461.16165281
  -exchange      EXHF   =         0.00000000
  -V(xc)+E(xc)   XCENC  =        -7.57090336
  PAW double counting   =       293.95507915     -263.19716017
  entropy T*S    EENTRO =        -0.00000000
  eigenvalues    EBANDS =      -100.45651785
  atomic energy  EATOM  =       352.07568098
  Solvation  Ediel_sol  =         0.00000000
  ---------------------------------------------------
  free energy    TOTEN  =       -10.78576632 eV

  energy without entropy =      -10.78576632  energy(sigma->0) =      -10.78576632


--------------------------------------------------------------------------------------------------------




--------------------------------------- Iteration      1(  13)  ---------------------------------------


    POTLOK:  cpu time      0.0131: real time      0.0131
    SETDIJ:  cpu time      0.1595: real time      0.1596
     EDDAV:  cpu time      0.2412: real time      0.2413
       DOS:  cpu time      0.0003: real time      0.0003
    CHARGE:  cpu time      0.0274: real time      0.0274
    MIXING:  cpu time      0.0008: real time      0.0008
    --------------------------------------------
      LOOP:  cpu time      0.4423: real time      0.4425

 eigenvalue-minimisations  :  1248
 total energy-change (2. order) : 0.2629423E-01  (-0.5366923E-03)
 number of electron      10.0000000 magnetization 
 augmentation part       -1.0856877 magnetization 

 Broyden mixing:
  rms(total) = 0.22107E+00    rms(broyden)= 0.22107E+00
  rms(prec ) = 0.23189E+00
  weight for this iteration     100.00

 eigenvalues of (default mixing * dielectric matrix)
  average eigenvalue GAMMA=   8.8211
  8.8211

 Free energy of the ion-electron system (eV)
  ---------------------------------------------------
  alpha Z        PSCENC =         2.47338559
  Ewald energy   TEWEN  =      1173.09632214
  -Hartree energ DENC   =     -1462.10154214
  -exchange      EXHF   =         0.00000000
  -V(xc)+E(xc)   XCENC  =        -7.51136282
  PAW double counting   =       300.27672802     -269.53911875
  entropy T*S    EENTRO =        -0.00000000
  eigenvalues    EBANDS =       -99.52956512
  atomic energy  EATOM  =       352.07568098
  Solvation  Ediel_sol  =         0.00000000
  ---------------------------------------------------
  free energy    TOTEN  =       -10.75947210 eV

  energy without entropy =      -10.75947210  energy(sigma->0) =      -10.75947210


--------------------------------------------------------------------------------------------------------




--------------------------------------- Iteration      1(  14)  ---------------------------------------


    POTLOK:  cpu time      0.0131: real time      0.0131
    SETDIJ:  cpu time      0.1595: real time      0.1596
     EDDAV:  cpu time      0.2601: real time      0.2603
       DOS:  cpu time      0.0003: real time      0.0003
    CHARGE:  cpu time      0.0269: real time      0.0269
    MIXING:  cpu time      0.0007: real time      0.0007
    --------------------------------------------
      LOOP:  cpu time      0.4607: real time      0.4610

 eigenvalue-minimisations  :  1328
 total energy-change (2. order) : 0.7520190E-01  (-0.2926034E-01)
 number of electron      10.0000000 magnetization 
 augmentation part       -1.0704690 magnetization 

 Broyden mixing:
  rms(total) = 0.30056E-01    rms(broyden)= 0.30055E-01
  rms(prec ) = 0.33784E-01
  weight for this iteration     100.00

 eigenvalues of (default mixing * dielectric matrix)
  average eigenvalue GAMMA=   7.4274
  6.3330  8.5217

 Free energy of the ion-electron system (eV)
  ---------------------------------------------------
  alpha Z        PSCENC =         2.47338559
  Ewald energy   TEWEN  =      1173.09632214
  -Hartree energ DENC   =     -1469.13992448
  -exchange      EXHF   =         0.00000000
  -V(xc)+E(xc)   XCENC  =        -7.02841542
  PAW double counting   =       350.80857868     -320.25255921
  entropy T*S    EENTRO =        -0.00000000
  eigenvalues    EBANDS =       -92.71733848
  atomic energy  EATOM  =       352.07568098
  Solvation  Ediel_sol  =         0.00000000
  ---------------------------------------------------
  free energy    TOTEN  =       -10.68427020 eV

  energy without entropy =      -10.68427020  energy(sigma->0) =      -10.68427020


--------------------------------------------------------------------------------------------------------




--------------------------------------- Iteration      1(  15)  ---------------------------------------


    POTLOK:  cpu time      0.0132: real time      0.0132
    SETDIJ:  cpu time      0.1592: real time      0.1592
     EDDAV:  cpu time      0.2673: real time      0.2675
       DOS:  cpu time      0.0003: real time      0.0003
    CHARGE:  cpu time      0.0270: real time      0.0270
    MIXING:  cpu time      0.0007: real time      0.0671
    --------------------------------------------
      LOOP:  cpu time      0.4677: real time      0.5344

 eigenvalue-minimisations  :  1360
 total energy-change (2. order) : 0.6021353E-02  (-0.3189592E-02)
 number of electron      10.0000000 magnetization 
 augmentation part       -1.0765560 magnetization 

 Broyden mixing:
  rms(total) = 0.11626E-01    rms(broyden)= 0.11625E-01
  rms(prec ) = 0.12089E-01
  weight for this iteration     100.00

 eigenvalues of (default mixing * dielectric matrix)
  average eigenvalue GAMMA=   5.4103
  9.2412  6.1259  0.8638

 Free energy of the ion-electron system (eV)
  ---------------------------------------------------
  alpha Z        PSCENC =         2.47338559
  Ewald energy   TEWEN  =      1173.09632214
  -Hartree energ DENC   =     -1466.84674997
  -exchange      EXHF   =         0.00000000
  -V(xc)+E(xc)   XCENC  =        -7.06329103
  PAW double counting   =       349.56420426     -319.00114826
  entropy T*S    EENTRO =        -0.00000000
  eigenvalues    EBANDS =       -94.97665256
  atomic energy  EATOM  =       352.07568098
  Solvation  Ediel_sol  =         0.00000000
  ---------------------------------------------------
  free energy    TOTEN  =       -10.67824885 eV

  energy without entropy =      -10.67824885  energy(sigma->0) =      -10.67824885


--------------------------------------------------------------------------------------------------------




--------------------------------------- Iteration      1(  16)  ---------------------------------------


    POTLOK:  cpu time      0.0135: real time      0.0350
    SETDIJ:  cpu time      0.1593: real time      0.1594
     EDDAV:  cpu time      0.2813: real time      0.2815
       DOS:  cpu time      0.0003: real time      0.0003
    CHARGE:  cpu time      0.0279: real time      0.0279
    MIXING:  cpu time      0.0006: real time      0.0006
    --------------------------------------------
      LOOP:  cpu time      0.4830: real time      0.5048

 eigenvalue-minimisations  :  1408
 total energy-change (2. order) :-0.1622286E-03  (-0.1275108E-03)
 number of electron      10.0000000 magnetization 
 augmentation part       -1.0780684 magnetization 

 Broyden mixing:
  rms(total) = 0.67307E-02    rms(broyden)= 0.67304E-02
  rms(prec ) = 0.73798E-02
  weight for this iteration     100.00

 eigenvalues of (default mixing * dielectric matrix)
  average eigenvalue GAMMA=   5.1230
  9.0134  1.0148  5.2319  5.2319

 Free energy of the ion-electron system (eV)
  ---------------------------------------------------
  alpha Z        PSCENC =         2.47338559
  Ewald energy   TEWEN  =      1173.09632214
  -Hartree energ DENC   =     -1466.58920600
  -exchange      EXHF   =         0.00000000
  -V(xc)+E(xc)   XCENC  =        -7.05646401
  PAW double counting   =       350.71476259     -320.15443983
  entropy T*S    EENTRO =        -0.00000000
  eigenvalues    EBANDS =       -95.23845253
  atomic energy  EATOM  =       352.07568098
  Solvation  Ediel_sol  =         0.00000000
  ---------------------------------------------------
  free energy    TOTEN  =       -10.67841107 eV

  energy without entropy =      -10.67841107  energy(sigma->0) =      -10.67841107


--------------------------------------------------------------------------------------------------------




--------------------------------------- Iteration      1(  17)  ---------------------------------------


    POTLOK:  cpu time      0.0134: real time      0.0134
    SETDIJ:  cpu time      0.1594: real time      0.1594
     EDDAV:  cpu time      0.2642: real time      0.2643
       DOS:  cpu time      0.0003: real time      0.0003
    CHARGE:  cpu time      0.0268: real time      0.0268
    MIXING:  cpu time      0.0008: real time      0.0008
    --------------------------------------------
      LOOP:  cpu time      0.4648: real time      0.4651

 eigenvalue-minimisations  :  1328
 total energy-change (2. order) : 0.1894412E-03  (-0.1304919E-03)
 number of electron      10.0000000 magnetization 
 augmentation part       -1.0774682 magnetization 

 Broyden mixing:
  rms(total) = 0.39122E-02    rms(broyden)= 0.39121E-02
  rms(prec ) = 0.41133E-02
  weight for this iteration     100.00

 eigenvalues of (default mixing * dielectric matrix)
  average eigenvalue GAMMA=   4.9758
  9.9792  7.8842  5.0072  1.0041  1.0041

 Free energy of the ion-electron system (eV)
  ---------------------------------------------------
  alpha Z        PSCENC =         2.47338559
  Ewald energy   TEWEN  =      1173.09632214
  -Hartree energ DENC   =     -1466.99794452
  -exchange      EXHF   =         0.00000000
  -V(xc)+E(xc)   XCENC  =        -7.05355739
  PAW double counting   =       350.79831459     -320.23633893
  entropy T*S    EENTRO =        -0.00000000
  eigenvalues    EBANDS =       -94.83408410
  atomic energy  EATOM  =       352.07568098
  Solvation  Ediel_sol  =         0.00000000
  ---------------------------------------------------
  free energy    TOTEN  =       -10.67822163 eV

  energy without entropy =      -10.67822163  energy(sigma->0) =      -10.67822163


--------------------------------------------------------------------------------------------------------




--------------------------------------- Iteration      1(  18)  ---------------------------------------


    POTLOK:  cpu time      0.0137: real time      0.0137
    SETDIJ:  cpu time      0.1594: real time      0.1594
     EDDAV:  cpu time      0.2280: real time      0.2282
       DOS:  cpu time      0.0003: real time      0.0003
    CHARGE:  cpu time      0.0269: real time      0.0269
    MIXING:  cpu time      0.0007: real time      0.0007
    --------------------------------------------
      LOOP:  cpu time      0.4290: real time      0.4293

 eigenvalue-minimisations  :  1184
 total energy-change (2. order) : 0.1855693E-04  (-0.1510970E-04)
 number of electron      10.0000000 magnetization 
 augmentation part       -1.0782187 magnetization 

 Broyden mixing:
  rms(total) = 0.72412E-03    rms(broyden)= 0.72404E-03
  rms(prec ) = 0.76502E-03
  weight for this iteration     100.00

 eigenvalues of (default mixing * dielectric matrix)
  average eigenvalue GAMMA=   4.7343
  9.8697  7.3315  4.5999  4.5999  0.9643  1.0406

 Free energy of the ion-electron system (eV)
  ---------------------------------------------------
  alpha Z        PSCENC =         2.47338559
  Ewald energy   TEWEN  =      1173.09632214
  -Hartree energ DENC   =     -1466.87975021
  -exchange      EXHF   =         0.00000000
  -V(xc)+E(xc)   XCENC  =        -7.05496413
  PAW double counting   =       350.93479682     -320.37144577
  entropy T*S    EENTRO =        -0.00000000
  eigenvalues    EBANDS =       -94.95222848
  atomic energy  EATOM  =       352.07568098
  Solvation  Ediel_sol  =         0.00000000
  ---------------------------------------------------
  free energy    TOTEN  =       -10.67820308 eV

  energy without entropy =      -10.67820308  energy(sigma->0) =      -10.67820308


--------------------------------------------------------------------------------------------------------




--------------------------------------- Iteration      1(  19)  ---------------------------------------


    POTLOK:  cpu time      0.0137: real time      0.0137
    SETDIJ:  cpu time      0.1593: real time      0.1594
     EDDAV:  cpu time      0.2056: real time      0.2057
       DOS:  cpu time      0.0003: real time      0.0003
    --------------------------------------------
      LOOP:  cpu time      0.3789: real time      0.3791

 eigenvalue-minimisations  :  1040
 total energy-change (2. order) :-0.5562626E-06  (-0.8278044E-06)
 number of electron      10.0000000 magnetization 
 augmentation part       -1.0782187 magnetization 

 Free energy of the ion-electron system (eV)
  ---------------------------------------------------
  alpha Z        PSCENC =         2.47338559
  Ewald energy   TEWEN  =      1173.09632214
  -Hartree energ DENC   =     -1466.87103809
  -exchange      EXHF   =         0.00000000
  -V(xc)+E(xc)   XCENC  =        -7.05511502
  PAW double counting   =       350.95367120     -320.39022766
  entropy T*S    EENTRO =        -0.00000000
  eigenvalues    EBANDS =       -94.96088278
  atomic energy  EATOM  =       352.07568098
  Solvation  Ediel_sol  =         0.00000000
  ---------------------------------------------------
  free energy    TOTEN  =       -10.67820363 eV

  energy without entropy =      -10.67820363  energy(sigma->0) =      -10.67820363


--------------------------------------------------------------------------------------------------------




 average (electrostatic) potential at core
  the test charge radii are     1.0220
  (the norm of the test charge is              1.0000)
       1 -83.5097       2 -83.5097
 
 
 
 E-fermi :  -4.2707     XC(G=0):  -2.2101     alpha+bet : -1.9012

 Fermi energy:        -4.2706742751

 k-point     1 :       0.0000    0.0000    0.0000
  band No.  band energies     occupation 
      1     -18.4077      2.00000
      2     -10.6936      2.00000
      3      -4.7006      2.00000
      4      -4.4316      2.00000
      5      -4.4316      2.00000
      6      -0.5607      0.00000
      7      -0.4076      0.00000
      8      -0.4076      0.00000
      9       1.0596      0.00000
     10       1.5949      0.00000
     11       2.0965      0.00000
     12       2.3903      0.00000
     13       3.3694      0.00000
     14       3.7489      0.00000
     15       5.2469      0.00000
     16       5.5437      0.00000

 k-point     2 :       0.0714    0.0000    0.0000
  band No.  band energies     occupation 
      1     -18.3256      2.00000
      2     -10.6389      2.00000
      3      -5.1126      2.00000
      4      -4.6523      2.00000
      5      -4.6177      2.00000
      6      -0.6551      0.00000
      7      -0.1700      0.00000
      8       0.1175      0.00000
      9       1.1639      0.00000
     10       1.6790      0.00000
     11       2.1842      0.00000
     12       2.4851      0.00000
     13       3.4320      0.00000
     14       3.8416      0.00000
     15       4.8129      0.00000
     16       5.5003      0.00000

 k-point     3 :       0.1429   -0.0000    0.0000
  band No.  band energies     occupation 
      1     -18.0807      2.00000
      2     -10.4976      2.00000
      3      -6.4399      2.00000
      4      -5.0490      2.00000
      5      -4.5233      2.00000
      6      -1.1901      0.00000
      7       0.3602      0.00000
      8       1.1319      0.00000
      9       1.5008      0.00000
     10       1.9515      0.00000
     11       2.4478      0.00000
     12       2.7685      0.00000
     13       3.5054      0.00000
     14       4.1179      0.00000
     15       4.1804      0.00000
     16       5.2732      0.00000

 k-point     4 :       0.2143    0.0000    0.0000
  band No.  band energies     occupation 
      1     -17.6770      2.00000
      2     -10.3897      2.00000
      3      -7.7242      2.00000
      4      -5.5364      2.00000
      5      -4.3763      2.00000
      6      -1.7991      0.00000
      7       0.8420      0.00000
      8       1.1071      0.00000
      9       1.8625      0.00000
     10       2.4772      0.00000
     11       2.9375      0.00000
     12       3.2327      0.00000
     13       3.9119      0.00000
     14       4.5093      0.00000
     15       4.5912      0.00000
     16       5.2666      0.00000

 k-point     5 :       0.2857   -0.0000    0.0000
  band No.  band energies     occupation 
      1     -17.1240      2.00000
      2     -10.7294      2.00000
      3      -8.3911      2.00000
      4      -5.9701      2.00000
      5      -4.3757      2.00000
      6      -2.2541      0.00000
      7       0.2956      0.00000
      8       1.0676      0.00000
      9       2.5029      0.00000
     10       2.9865      0.00000
     11       3.5096      0.00000
     12       3.8756      0.00000
     13       4.1409      0.00000
     14       5.0693      0.00000
     15       5.3257      0.00000
     16       5.9080      0.00000

 k-point     6 :       0.3571    0.0000    0.0000
  band No.  band energies     occupation 
      1     -16.4449      2.00000
      2     -11.6903      2.00000
      3      -8.2154      2.00000
      4      -6.3012      2.00000
      5      -4.7270      2.00000
      6      -2.3832      0.00000
      7      -0.3747      0.00000
      8       1.0895      0.00000
      9       2.8626      0.00000
     10       3.3595      0.00000
     11       4.1284      0.00000
     12       4.5573      0.00000
     13       4.7608      0.00000
     14       5.7695      0.00000
     15       6.1235      0.00000
     16       6.9201      0.00000

 k-point     7 :       0.4286    0.0000    0.0000
  band No.  band energies     occupation 
      1     -15.7176      2.00000
      2     -12.7230      2.00000
      3      -7.7271      2.00000
      4      -6.5065      2.00000
      5      -5.3091      2.00000
      6      -2.3295      0.00000
      7      -0.6959      0.00000
      8       1.0476      0.00000
      9       2.3647      0.00000
     10       4.3541      0.00000
     11       5.0343      0.00000
     12       5.4903      0.00000
     13       5.7876      0.00000
     14       6.3626      0.00000
     15       6.8846      0.00000
     16       7.1423      0.00000

 k-point     8 :       0.5000    0.0000    0.0000
  band No.  band energies     occupation 
      1     -15.2971      2.00000
      2     -13.2585      2.00000
      3      -7.4264      2.00000
      4      -6.5760      2.00000
      5      -5.6502      2.00000
      6      -2.3018      0.00000
      7      -0.7567      0.00000
      8       1.0254      0.00000
      9       2.1339      0.00000
     10       5.4521      0.00000
     11       5.4558      0.00000
     12       5.9099      0.00000
     13       6.3411      0.00000
     14       6.5773      0.00000
     15       6.7944      0.00000
     16       6.9851      0.00000

 k-point     9 :       0.0714    0.0714    0.0000
  band No.  band energies     occupation 
      1     -18.1621      2.00000
      2     -10.5400      2.00000
      3      -6.0173      2.00000
      4      -5.0193      2.00000
      5      -4.5634      2.00000
      6      -0.6282      0.00000
      7      -0.2752      0.00000
      8       1.0379      0.00000
      9       1.4137      0.00000
     10       1.8373      0.00000
     11       2.3538      0.00000
     12       2.6745      0.00000
     13       3.4854      0.00000
     14       4.0262      0.00000
     15       4.2852      0.00000
     16       5.1253      0.00000

 k-point    10 :       0.1429    0.0714    0.0000
  band No.  band energies     occupation 
      1     -17.8377      2.00000
      2     -10.4029      2.00000
      3      -7.2064      2.00000
      4      -5.6200      2.00000
      5      -4.4206      2.00000
      6      -1.0831      0.00000
      7       0.2202      0.00000
      8       1.5363      0.00000
      9       1.7547      0.00000
     10       2.2074      0.00000
     11       2.6902      0.00000
     12       3.0492      0.00000
     13       3.3930      0.00000
     14       4.2556      0.00000
     15       4.3915      0.00000
     16       5.2509      0.00000

 k-point    11 :       0.2143    0.0714    0.0000
  band No.  band energies     occupation 
      1     -17.3584      2.00000
      2     -10.4766      2.00000
      3      -8.1563      2.00000
      4      -6.1721      2.00000
      5      -4.3246      2.00000
      6      -1.6131      0.00000
      7       0.6296      0.00000
      8       0.9312      0.00000
      9       2.2290      0.00000
     10       2.7605      0.00000
     11       3.2422      0.00000
     12       3.6006      0.00000
     13       3.8231      0.00000
     14       4.7508      0.00000
     15       4.8944      0.00000
     16       5.3147      0.00000

 k-point    12 :       0.2857    0.0714    0.0000
  band No.  band energies     occupation 
      1     -16.7387      2.00000
      2     -11.1805      2.00000
      3      -8.3234      2.00000
      4      -6.5968      2.00000
      5      -4.4735      2.00000
      6      -1.9145      0.00000
      7       0.0963      0.00000
      8       0.7678      0.00000
      9       2.9322      0.00000
     10       3.1926      0.00000
     11       3.8405      0.00000
     12       4.2479      0.00000
     13       4.4045      0.00000
     14       5.4063      0.00000
     15       5.5586      0.00000
     16       5.7724      0.00000

 k-point    13 :       0.3571    0.0714    0.0000
  band No.  band energies     occupation 
      1     -16.0182      2.00000
      2     -12.2262      2.00000
      3      -7.9652      2.00000
      4      -6.8460      2.00000
      5      -4.9648      2.00000
      6      -1.8930      0.00000
      7      -0.4942      0.00000
      8       0.7960      0.00000
      9       2.7400      0.00000
     10       3.9138      0.00000
     11       4.6236      0.00000
     12       5.0678      0.00000
     13       5.3223      0.00000
     14       6.1690      0.00000
     15       6.5827      0.00000
     16       6.6794      0.00000

 k-point    14 :       0.4286    0.0714    0.0000
  band No.  band energies     occupation 
      1     -15.3600      2.00000
      2     -13.0966      2.00000
      3      -7.6244      2.00000
      4      -6.8425      2.00000
      5      -5.5242      2.00000
      6      -1.7614      0.00000
      7      -0.7989      0.00000
      8       0.8549      0.00000
      9       2.2764      0.00000
     10       4.9918      0.00000
     11       5.5827      0.00000
     12       6.0619      0.00000
     13       6.2525      0.00000
     14       6.4601      0.00000
     15       6.6344      0.00000
     16       7.1686      0.00000

 k-point    15 :       0.1429    0.1429    0.0000
  band No.  band energies     occupation 
      1     -17.4371      2.00000
      2     -10.4077      2.00000
      3      -7.9187      2.00000
      4      -6.4800      2.00000
      5      -4.3167      2.00000
      6      -0.8147      0.00000
      7       0.0246      0.00000
      8       1.6706      0.00000
      9       2.1744      0.00000
     10       2.1809      0.00000
     11       2.9760      0.00000
     12       3.4134      0.00000
     13       3.5193      0.00000
     14       4.6350      0.00000
     15       4.8181      0.00000
     16       5.5362      0.00000

 k-point    16 :       0.2143    0.1429    0.0000
  band No.  band energies     occupation 
      1     -16.8880      2.00000
      2     -10.8483      2.00000
      3      -8.2108      2.00000
      4      -7.1871      2.00000
      5      -4.3430      2.00000
      6      -1.0407      0.00000
      7       0.0505      0.00000
      8       1.1249      0.00000
      9       2.6431      0.00000
     10       2.8577      0.00000
     11       3.5664      0.00000
     12       3.9956      0.00000
     13       4.1723      0.00000
     14       4.8989      0.00000
     15       5.2489      0.00000
     16       5.6331      0.00000

 k-point    17 :       0.2857    0.1429    0.0000
  band No.  band energies     occupation 
      1     -16.2123      2.00000
      2     -11.7473      2.00000
      3      -8.1059      2.00000
      4      -7.5140      2.00000
      5      -4.6574      2.00000
      6      -1.2150      0.00000
      7      -0.1192      0.00000
      8       0.6877      0.00000
      9       3.1045      0.00000
     10       3.6808      0.00000
     11       4.3617      0.00000
     12       4.7912      0.00000
     13       4.9163      0.00000
     14       5.0572      0.00000
     15       5.9805      0.00000
     16       6.4118      0.00000

 k-point    18 :       0.3571    0.1429    0.0000
  band No.  band energies     occupation 
      1     -15.4811      2.00000
      2     -12.7202      2.00000
      3      -8.1886      2.00000
      4      -7.1884      2.00000
      5      -5.2199      2.00000
      6      -1.1964      0.00000
      7      -0.3733      0.00000
      8       0.6204      0.00000
      9       2.7073      0.00000
     10       4.6563      0.00000
     11       5.2794      0.00000
     12       5.7571      0.00000
     13       5.8524      0.00000
     14       6.0791      0.00000
     15       6.6706      0.00000
     16       7.1833      0.00000

 k-point    19 :       0.4286    0.1429    0.0000
  band No.  band energies     occupation 
      1     -15.0447      2.00000
      2     -13.2504      2.00000
      3      -8.2576      2.00000
      4      -6.8545      2.00000
      5      -5.6021      2.00000
      6      -1.1511      0.00000
      7      -0.4922      0.00000
      8       0.6765      0.00000
      9       2.4246      0.00000
     10       5.6433      0.00000
     11       5.9160      0.00000
     12       6.0678      0.00000
     13       6.2093      0.00000
     14       6.7902      0.00000
     15       6.8811      0.00000
     16       7.2561      0.00000

 k-point    20 :       0.2143    0.2143    0.0000
  band No.  band energies     occupation 
      1     -16.2789      2.00000
      2     -11.5289      2.00000
      3      -8.0994      2.00000
      4      -7.8823      2.00000
      5      -4.5389      2.00000
      6      -0.7179      0.00000
      7      -0.5771      0.00000
      8       1.7251      0.00000
      9       2.5732      0.00000
     10       3.5486      0.00000
     11       4.2202      0.00000
     12       4.4778      0.00000
     13       4.6758      0.00000
     14       4.9752      0.00000
     15       5.7943      0.00000
     16       6.3343      0.00000

 k-point    21 :       0.2857    0.2143    0.0000
  band No.  band energies     occupation 
      1     -15.5639      2.00000
      2     -12.3828      2.00000
      3      -8.7104      2.00000
      4      -7.3404      2.00000
      5      -4.9656      2.00000
      6      -1.3047      0.00000
      7      -0.1170      0.00000
      8       1.5136      0.00000
      9       3.1154      0.00000
     10       4.4676      0.00000
     11       4.5325      0.00000
     12       4.9747      0.00000
     13       5.4954      0.00000
     14       5.8922      0.00000
     15       6.1107      0.00000
     16       7.1411      0.00000

 k-point    22 :       0.3571    0.2143    0.0000
  band No.  band energies     occupation 
      1     -14.8764      2.00000
      2     -13.1717      2.00000
      3      -9.0079      2.00000
      4      -6.7662      2.00000
      5      -5.4948      2.00000
      6      -1.6110      0.00000
      7       0.4533      0.00000
[...]
  rms(prec ) = 0.29012E-01
  weight for this iteration     100.00

 eigenvalues of (default mixing * dielectric matrix)
  average eigenvalue GAMMA=   2.9769
  1.6289  4.3250

 Free energy of the ion-electron system (eV)
  ---------------------------------------------------
  -Hartree energ DENC   =        -0.07068025
  -V(xc)+E(xc)   XCENC  =         0.00118665
  PAW double counting   =         0.03844274       -0.03858016
  entropy T*S    EENTRO =         0.00000000
  eigenvalues    EBANDS =        -0.05441115
  ---------------------------------------------------
  free energy    TOTEN  =        -0.12404217 eV

  energy without entropy =       -0.12404217


----------------------------------------- Iteration    3(   5)  ---------------------------------------


   POT+DIJ:  cpu time      0.3635: real time      0.3636
    HAMIL1:  cpu time      0.0407: real time      0.0407
    LRDIAG:  cpu time      0.0112: real time      0.0112
    LRDIIS:  cpu time      0.2112: real time      0.2114
    LRDIAG:  cpu time      0.0076: real time      0.0076
    MIXING:  cpu time      0.0007: real time      0.0007
    --------------------------------------------
      LOOP:  cpu time      0.6794: real time      0.6797

 Broyden mixing:
  rms(total) = 0.54424E-02    rms(broyden)= 0.54405E-02
  rms(prec ) = 0.82136E-02
  weight for this iteration     100.00

 eigenvalues of (default mixing * dielectric matrix)
  average eigenvalue GAMMA=   2.6335
  5.0830  1.2887  1.5287

 Free energy of the ion-electron system (eV)
  ---------------------------------------------------
  -Hartree energ DENC   =        -0.07820975
  -V(xc)+E(xc)   XCENC  =         0.00182616
  PAW double counting   =         0.00509029       -0.00509174
  entropy T*S    EENTRO =         0.00000000
  eigenvalues    EBANDS =        -0.04373985
  ---------------------------------------------------
  free energy    TOTEN  =        -0.12012488 eV

  energy without entropy =       -0.12012488


----------------------------------------- Iteration    3(   6)  ---------------------------------------


   POT+DIJ:  cpu time      0.3538: real time      0.3539
    HAMIL1:  cpu time      0.0393: real time      0.0394
    LRDIAG:  cpu time      0.0095: real time      0.0095
    LRDIIS:  cpu time      0.2040: real time      0.2040
    LRDIAG:  cpu time      0.0079: real time      0.0079
    MIXING:  cpu time      0.0007: real time      0.0007
    --------------------------------------------
      LOOP:  cpu time      0.6601: real time      0.7296

 Broyden mixing:
  rms(total) = 0.50032E-02    rms(broyden)= 0.50028E-02
  rms(prec ) = 0.55930E-02
  weight for this iteration     100.00

 eigenvalues of (default mixing * dielectric matrix)
  average eigenvalue GAMMA=   4.0771
  1.0229  1.5472  6.8692  6.8692

 Free energy of the ion-electron system (eV)
  ---------------------------------------------------
  -Hartree energ DENC   =        -0.08376888
  -V(xc)+E(xc)   XCENC  =         0.00202619
  PAW double counting   =         0.00449017       -0.00448736
  entropy T*S    EENTRO =         0.00000000
  eigenvalues    EBANDS =        -0.03851437
  ---------------------------------------------------
  free energy    TOTEN  =        -0.12025426 eV

  energy without entropy =       -0.12025426


----------------------------------------- Iteration    3(   7)  ---------------------------------------


   POT+DIJ:  cpu time      0.3657: real time      0.3658
    HAMIL1:  cpu time      0.0409: real time      0.0409
    LRDIAG:  cpu time      0.0096: real time      0.0096
    LRDIIS:  cpu time      0.2049: real time      0.2050
    LRDIAG:  cpu time      0.0075: real time      0.0075
    MIXING:  cpu time      0.0008: real time      0.0008
    --------------------------------------------
      LOOP:  cpu time      0.6736: real time      0.6739

 Broyden mixing:
  rms(total) = 0.27738E-02    rms(broyden)= 0.27736E-02
  rms(prec ) = 0.30988E-02
  weight for this iteration     100.00

 eigenvalues of (default mixing * dielectric matrix)
  average eigenvalue GAMMA=   3.0689
  6.5978  4.5393  1.0372  1.5624  1.6077

 Free energy of the ion-electron system (eV)
  ---------------------------------------------------
  -Hartree energ DENC   =        -0.08447341
  -V(xc)+E(xc)   XCENC  =         0.00220860
  PAW double counting   =         0.00604773       -0.00605303
  entropy T*S    EENTRO =         0.00000000
  eigenvalues    EBANDS =        -0.03834565
  ---------------------------------------------------
  free energy    TOTEN  =        -0.12061577 eV

  energy without entropy =       -0.12061577


----------------------------------------- Iteration    3(   8)  ---------------------------------------


   POT+DIJ:  cpu time      0.3493: real time      0.3494
    HAMIL1:  cpu time      0.0408: real time      0.0408
    LRDIAG:  cpu time      0.0096: real time      0.0096
    LRDIIS:  cpu time      0.2134: real time      0.2135
    LRDIAG:  cpu time      0.0079: real time      0.0079
    MIXING:  cpu time      0.0008: real time      0.0008
    --------------------------------------------
      LOOP:  cpu time      0.6697: real time      0.6701

 Broyden mixing:
  rms(total) = 0.10874E-02    rms(broyden)= 0.10873E-02
  rms(prec ) = 0.11631E-02
  weight for this iteration     100.00

 eigenvalues of (default mixing * dielectric matrix)
  average eigenvalue GAMMA=   3.6602
  6.3582  6.3582  5.7102  1.5488  1.0237  0.9623

 Free energy of the ion-electron system (eV)
  ---------------------------------------------------
  -Hartree energ DENC   =        -0.08540461
  -V(xc)+E(xc)   XCENC  =         0.00227543
  PAW double counting   =         0.00395412       -0.00394723
  entropy T*S    EENTRO =         0.00000000
  eigenvalues    EBANDS =        -0.03765330
  ---------------------------------------------------
  free energy    TOTEN  =        -0.12077559 eV

  energy without entropy =       -0.12077559


----------------------------------------- Iteration    3(   9)  ---------------------------------------


   POT+DIJ:  cpu time      0.3650: real time      0.3651
    HAMIL1:  cpu time      0.0409: real time      0.0410
    LRDIAG:  cpu time      0.0096: real time      0.0096
    LRDIIS:  cpu time      0.2087: real time      0.2088
    LRDIAG:  cpu time      0.0078: real time      0.0078
    MIXING:  cpu time      0.0008: real time      0.0008
    --------------------------------------------
      LOOP:  cpu time      0.6774: real time      0.6777

 Broyden mixing:
  rms(total) = 0.54096E-03    rms(broyden)= 0.54095E-03
  rms(prec ) = 0.58865E-03
  weight for this iteration     100.00

 eigenvalues of (default mixing * dielectric matrix)
  average eigenvalue GAMMA=   3.7598
  9.3127  7.1455  5.1481  1.5486  0.9737  1.0917  1.0986

 Free energy of the ion-electron system (eV)
  ---------------------------------------------------
  -Hartree energ DENC   =        -0.08539590
  -V(xc)+E(xc)   XCENC  =         0.00228968
  PAW double counting   =         0.00403814       -0.00403400
  entropy T*S    EENTRO =         0.00000000
  eigenvalues    EBANDS =        -0.03769934
  ---------------------------------------------------
  free energy    TOTEN  =        -0.12080141 eV

  energy without entropy =       -0.12080141


----------------------------------------- Iteration    3(  10)  ---------------------------------------


   POT+DIJ:  cpu time      0.3537: real time      0.3539
    HAMIL1:  cpu time      0.0465: real time      0.0466
    LRDIAG:  cpu time      0.0104: real time      0.0104
    LRDIIS:  cpu time      0.2140: real time      0.2141
    LRDIAG:  cpu time      0.0076: real time      0.0076
    MIXING:  cpu time      0.0008: real time      0.0008
    --------------------------------------------
      LOOP:  cpu time      0.6775: real time      0.6779

 Broyden mixing:
  rms(total) = 0.10909E-03    rms(broyden)= 0.10906E-03
  rms(prec ) = 0.11895E-03
  weight for this iteration     100.00

 eigenvalues of (default mixing * dielectric matrix)
  average eigenvalue GAMMA=   3.9262
  9.8168  7.1190  4.9636  4.9636  1.5479  1.0251  0.9866  0.9866

 Free energy of the ion-electron system (eV)
  ---------------------------------------------------
  -Hartree energ DENC   =        -0.08544415
  -V(xc)+E(xc)   XCENC  =         0.00230260
  PAW double counting   =         0.00421607       -0.00421392
  entropy T*S    EENTRO =         0.00000000
  eigenvalues    EBANDS =        -0.03768872
  ---------------------------------------------------
  free energy    TOTEN  =        -0.12082812 eV

  energy without entropy =       -0.12082812


----------------------------------------- Iteration    3(  11)  ---------------------------------------


   POT+DIJ:  cpu time      0.3541: real time      0.3543
    HAMIL1:  cpu time      0.0408: real time      0.0408
    LRDIAG:  cpu time      0.0096: real time      0.0096
    LRDIIS:  cpu time      0.2108: real time      0.2110
    LRDIAG:  cpu time      0.0075: real time      0.0075
    MIXING:  cpu time      0.0009: real time      0.0008
    --------------------------------------------
      LOOP:  cpu time      0.6681: real time      0.6684

 Broyden mixing:
  rms(total) = 0.50255E-04    rms(broyden)= 0.50245E-04
  rms(prec ) = 0.53969E-04
  weight for this iteration     100.00

 eigenvalues of (default mixing * dielectric matrix)
  average eigenvalue GAMMA=   3.9761
 10.2106  7.9162  6.9790  5.1960  1.5480  1.0081  1.0001  1.0001  0.9267

 Free energy of the ion-electron system (eV)
  ---------------------------------------------------
  -Hartree energ DENC   =        -0.08545368
  -V(xc)+E(xc)   XCENC  =         0.00230351
  PAW double counting   =         0.00423195       -0.00423036
  entropy T*S    EENTRO =         0.00000000
  eigenvalues    EBANDS =        -0.03768090
  ---------------------------------------------------
  free energy    TOTEN  =        -0.12082946 eV

  energy without entropy =       -0.12082946


----------------------------------------- Iteration    3(  12)  ---------------------------------------


   POT+DIJ:  cpu time      0.3656: real time      0.3657
    HAMIL1:  cpu time      0.0441: real time      0.0442
    LRDIAG:  cpu time      0.0103: real time      0.0103
    LRDIIS:  cpu time      0.2134: real time      0.2136
    LRDIAG:  cpu time      0.0077: real time      0.0077
    MIXING:  cpu time      0.0011: real time      0.0011
    --------------------------------------------
      LOOP:  cpu time      0.6913: real time      0.6917

 Broyden mixing:
  rms(total) = 0.14142E-04    rms(broyden)= 0.14136E-04
  rms(prec ) = 0.15314E-04
  weight for this iteration     100.00

 eigenvalues of (default mixing * dielectric matrix)
  average eigenvalue GAMMA=   3.7923
 10.1673  7.9767  6.9300  5.1836  1.5479  2.0566  0.9947  0.9947  1.0182  1.0530

 Free energy of the ion-electron system (eV)
  ---------------------------------------------------
  -Hartree energ DENC   =        -0.08545768
  -V(xc)+E(xc)   XCENC  =         0.00230411
  PAW double counting   =         0.00424230       -0.00424115
  entropy T*S    EENTRO =         0.00000000
  eigenvalues    EBANDS =        -0.03767782
  ---------------------------------------------------
  free energy    TOTEN  =        -0.12083024 eV

  energy without entropy =       -0.12083024


------------------------ aborting loop because EDIFF is reached ----------------------------------------


 change of polarisation eV/A/(eV/A) component  3 :    -0.006    -0.002     0.229
 dielectric tensor                  component  3 :    -0.005    -0.001     1.185


--------------------------------------------------------------------------------------------------------


    FORNLD:  cpu time      0.5232: real time      0.5234

 PIEZOELECTRIC TENSOR FIELD DIRECTION 3  (e Angst)
 -----------------------------------------------------------------------------
    -0.00000  0.00000  0.00000           ( -0.00000  0.00000  0.00000)
     0.00000 -0.00000  0.00000           (  0.00000 -0.00000  0.00000)
     0.00000  0.00000  0.00000           (  0.00000  0.00000  0.00000)

 PIEZOELECTRIC TENSOR FIELD DIRECTION 3  (C/m^2)
 -----------------------------------------------------------------------------
    -0.00000  0.00000  0.00000
     0.00000 -0.00000  0.00000
     0.00000  0.00000  0.00000


      POSITION         DIRECTION 3           BORN EFFECTIVE CHARGE    (rigid.aug.   ionic)
 -----------------------------------------------------------------------------------------
      1.64117      0.94753      7.37893     0.00000  0.00000  4.86708 (  0.53911  5.00000)
      0.00000      1.89506      8.62107     0.00000  0.00000  4.86709 (  0.53911  5.00000)
 -----------------------------------------------------------------------------------------
    total drift (improves with k-points):   0.00000  0.00000  9.73417




--------------------------------------------------------------------------------------------------------


  LATTYP: Found a hexagonal cell.
 ALAT       =     3.2823433876
 C/A-ratio  =     7.3118492388
  
  Lattice vectors:
  
 A1 = (   3.2823433876,   0.0000000000,   0.0000000000)
 A2 = (  -1.6411716938,   2.8425927576,   0.0000000000)
 A3 = (   0.0000000000,   0.0000000000,  24.0000000000)


Analysis of symmetry for initial positions (statically):
=====================================================================
 Subroutine PRICEL returns:
 Original cell was already a primitive cell.
 

 Routine SETGRP: Setting up the symmetry group for a 
 hexagonal supercell.


 Subroutine GETGRP returns: Found 12 space group operations
 (whereof  6 operations were pure point group operations)
 out of a pool of 24 trial point group operations.


The static configuration has the point symmetry C_3v.
 The point group associated with its full space group is D_3d.


Analysis of symmetry for dynamics (positions and initial velocities):
=====================================================================
 Subroutine PRICEL returns:
 Original cell was already a primitive cell.
 

 Routine SETGRP: Setting up the symmetry group for a 
 hexagonal supercell.


 Subroutine GETGRP returns: Found 12 space group operations
 (whereof  6 operations were pure point group operations)
 out of a pool of 24 trial point group operations.


The dynamic configuration has the point symmetry C_3v.
 The point group associated with its full space group is D_3d.


 Subroutine INISYM returns: Found 12 space group operations
 (whereof  6 operations are pure point group operations),
 and found     1 'primitive' translations



 MACROSCOPIC STATIC DIELECTRIC TENSOR (including local field effects in DFT)
 ------------------------------------------------------
           3.044154     0.000000    -0.000000
          -0.000000     3.044154     0.000000
           0.000000    -0.000000     1.184844
 ------------------------------------------------------



--------------------------------------------------------------------------------------------------------


  LATTYP: Found a hexagonal cell.
 ALAT       =     3.2823433876
 C/A-ratio  =     7.3118492388
  
  Lattice vectors:
  
 A1 = (   3.2823433876,   0.0000000000,   0.0000000000)
 A2 = (  -1.6411716938,   2.8425927576,   0.0000000000)
 A3 = (   0.0000000000,   0.0000000000,  24.0000000000)


Analysis of symmetry for initial positions (statically):
=====================================================================
 Subroutine PRICEL returns:
 Original cell was already a primitive cell.
 

 Routine SETGRP: Setting up the symmetry group for a 
 hexagonal supercell.


 Subroutine GETGRP returns: Found 12 space group operations
 (whereof  6 operations were pure point group operations)
 out of a pool of 24 trial point group operations.


The static configuration has the point symmetry C_3v.
 The point group associated with its full space group is D_3d.


Analysis of symmetry for dynamics (positions and initial velocities):
=====================================================================
 Subroutine PRICEL returns:
 Original cell was already a primitive cell.
 

 Routine SETGRP: Setting up the symmetry group for a 
 hexagonal supercell.


 Subroutine GETGRP returns: Found 12 space group operations
 (whereof  6 operations were pure point group operations)
 out of a pool of 24 trial point group operations.


The dynamic configuration has the point symmetry C_3v.
 The point group associated with its full space group is D_3d.


 Subroutine INISYM returns: Found 12 space group operations
 (whereof  6 operations are pure point group operations),
 and found     1 'primitive' translations



--------------------------------------------------------------------------------------------------------




 MACROSCOPIC STATIC DIELECTRIC TENSOR (including local field effects in DFT)
 ------------------------------------------------------
           3.044154     0.000000    -0.000000
          -0.000000     3.044154     0.000000
           0.000000    -0.000000     1.184844
 ------------------------------------------------------


 PIEZOELECTRIC TENSOR (including local field effects)  for field in x, y, z        (e  Angst)
          XX          YY          ZZ          XY          YZ          ZX
  --------------------------------------------------------------------------------
  x     0.00000     0.00000    -0.00000     0.00000     0.00000     0.00000
  y     0.00000     0.00000    -0.00000     0.00000     0.00000     0.00000
  z    -0.00000     0.00000     0.00000     0.00000     0.00000     0.00000

 PIEZOELECTRIC TENSOR (including local field effects)  for field in x, y, z        (C/m^2)
          XX          YY          ZZ          XY          YZ          ZX
  --------------------------------------------------------------------------------
  x     0.00000     0.00000    -0.00000     0.00000     0.00000     0.00000
  y     0.00000     0.00000    -0.00000     0.00000     0.00000     0.00000
  z    -0.00000     0.00000     0.00000     0.00000     0.00000     0.00000
 
 BORN EFFECTIVE CHARGES (including local field effects) (in |e|, cummulative output)
 ---------------------------------------------------------------------------------
 ion    1
    1     0.00000     0.00000    -0.00000
    2     0.00000     0.00000     0.00000
    3     0.00000     0.00000     0.00000
 ion    2
    1     0.00000     0.00000     0.00000
    2    -0.00000     0.00000     0.00000
    3     0.00000     0.00000     0.00000


--------------------------------------------------------------------------------------------------------


     LOOP+:  cpu time     67.8723: real time     70.7153
    4ORBIT:  cpu time      0.0000: real time      0.0000



 total charge

# of ion       s       p       d       tot
------------------------------------------
    1        1.216   1.532   0.096   2.845
    2        1.216   1.532   0.096   2.845
--------------------------------------------------
tot          2.433   3.065   0.193   5.690
 

 total amount of memory used by VASP MPI-rank0    46978. kBytes
=======================================================================

   base      :      30000. kBytes
   nonl-proj :       8817. kBytes
   fftplans  :       3863. kBytes
   grid      :       3278. kBytes
   one-center:         31. kBytes
   wavefun   :        989. kBytes
 
  
  
 General timing and accounting informations for this job:
 ========================================================
  
                  Total CPU time used (sec):       68.570
                            User time (sec):       68.298
                          System time (sec):        0.272
                         Elapsed time (sec):       72.262
  
                   Maximum memory used (kb):      235868.
                   Average memory used (kb):          N/A
  
                          Minor page faults:        49681
                          Major page faults:         2978
                 Voluntary context switches:          557
