PROCAR new format
# of k-points:   24         # of bands:   16         # of ions:    2

 k-point     1 :    0.00000000 0.00000000 0.00000000     weight = 0.00510204

band     1 # energy  -18.40768689 # occ.  2.00000000
 
ion      s      p      d    tot
    1  0.261  0.016  0.000  0.277
    2  0.261  0.016  0.000  0.277
tot    0.522  0.032  0.001  0.554
 
band     2 # energy  -10.69358494 # occ.  2.00000000
 
ion      s      p      d    tot
    1  0.212  0.052  0.003  0.268
    2  0.212  0.052  0.003  0.268
tot    0.424  0.105  0.007  0.535
 
band     3 # energy   -4.70064315 # occ.  2.00000000
 
ion      s      p      d    tot
    1  0.005  0.206  0.004  0.214
    2  0.005  0.206  0.004  0.214
tot    0.010  0.412  0.007  0.429
 
band     4 # energy   -4.43159958 # occ.  2.00000000
 
ion      s      p      d    tot
    1  0.000  0.310  0.034  0.344
    2  0.000  0.310  0.034  0.344
tot    0.000  0.620  0.068  0.688
 
band     5 # energy   -4.43159900 # occ.  2.00000000
 
ion      s      p      d    tot
    1  0.000  0.310  0.034  0.344
    2  0.000  0.310  0.034  0.344
tot    0.000  0.620  0.068  0.688
 
band     6 # energy   -0.56071233 # occ.  0.00000000
 
ion      s      p      d    tot
    1  0.219  0.102  0.038  0.359
    2  0.219  0.102  0.038  0.359
tot    0.438  0.205  0.075  0.718
 
band     7 # energy   -0.40763690 # occ.  0.00000000
 
ion      s      p      d    tot
    1  0.000  0.260  0.047  0.307
    2  0.000  0.260  0.047  0.307
tot    0.000  0.520  0.094  0.615
 
band     8 # energy   -0.40763560 # occ.  0.00000000
 
ion      s      p      d    tot
    1  0.000  0.260  0.047  0.307
    2  0.000  0.260  0.047  0.307
tot    0.000  0.520  0.094  0.615
 
band     9 # energy    1.05964626 # occ.  0.00000000
 
ion      s      p      d    tot
    1  0.002  0.004  0.022  0.028
    2  0.002  0.004  0.022  0.028
tot    0.004  0.008  0.043  0.055
 
band    10 # energy    1.59491810 # occ.  0.00000000
 
ion      s      p      d    tot
    1  0.003  0.017  0.000  0.020
    2  0.003  0.017  0.000  0.020
tot    0.006  0.034  0.000  0.040
 
band    11 # energy    2.09652647 # occ.  0.00000000
 
ion      s      p      d    tot
    1  0.002  0.009  0.000  0.010
    2  0.002  0.009  0.000  0.010
tot    0.003  0.018  0.000  0.021
 
band    12 # energy    2.39030524 # occ.  0.00000000
 
ion      s      p      d    tot
    1  0.002  0.000  0.006  0.008
    2  0.002  0.000  0.006  0.008
tot    0.004  0.000  0.012  0.017
 
band    13 # energy    3.36943425 # occ.  0.00000000
 
ion      s      p      d    tot
    1  0.004  0.017  0.000  0.021
    2  0.004  0.017  0.000  0.021
tot    0.009  0.034  0.000  0.043
 
band    14 # energy    3.74891782 # occ.  0.00000000
 
ion      s      p      d    tot
    1  0.005  0.000  0.015  0.020
    2  0.005  0.000  0.015  0.020
tot    0.011  0.001  0.029  0.040
 
band    15 # energy    5.24687095 # occ.  0.00000000
 
ion      s      p      d    tot
    1  0.010  0.024  0.000  0.034
    2  0.010  0.024  0.000  0.034
tot    0.020  0.048  0.000  0.069
 
band    16 # energy    5.54366664 # occ.  0.00000000
 
ion      s      p      d    tot
    1  0.000  0.062  0.189  0.251
    2  0.000  0.062  0.189  0.251
tot    0.000  0.123  0.378  0.501
 

 k-point     2 :    0.07142857 0.00000000 0.00000000     weight = 0.03061224

band     1 # energy  -18.32563036 # occ.  2.00000000
 
ion      s      p      d    tot
    1  0.260  0.017  0.001  0.278
    2  0.260  0.017  0.001  0.278
tot    0.521  0.033  0.001  0.555
 
band     2 # energy  -10.63886948 # occ.  2.00000000
 
ion      s      p      d    tot
    1  0.216  0.051  0.004  0.271
    2  0.216  0.051  0.004  0.271
tot    0.433  0.102  0.007  0.542
 
band     3 # energy   -5.11260377 # occ.  2.00000000
 
ion      s      p      d    tot
    1  0.022  0.277  0.032  0.331
    2  0.022  0.277  0.032  0.331
tot    0.044  0.554  0.065  0.663
 
band     4 # energy   -4.65231590 # occ.  2.00000000
 
ion      s      p      d    tot
    1  0.005  0.208  0.004  0.217
    2  0.005  0.208  0.004  0.217
tot    0.011  0.416  0.008  0.434
 
band     5 # energy   -4.61767671 # occ.  2.00000000
 
ion      s      p      d    tot
    1  0.000  0.305  0.033  0.338
    2  0.000  0.305  0.033  0.338
tot    0.000  0.610  0.066  0.676
 
band     6 # energy   -0.65510014 # occ.  0.00000000
 
ion      s      p      d    tot
    1  0.045  0.219  0.045  0.308
    2  0.045  0.219  0.045  0.308
tot    0.090  0.437  0.089  0.617
 
band     7 # energy   -0.16997237 # occ.  0.00000000
 
ion      s      p      d    tot
    1  0.000  0.272  0.044  0.316
    2  0.000  0.272  0.044  0.316
tot    0.000  0.544  0.088  0.632
 
band     8 # energy    0.11747734 # occ.  0.00000000
 
ion      s      p      d    tot
    1  0.155  0.167  0.033  0.355
    2  0.155  0.167  0.033  0.355
tot    0.309  0.335  0.066  0.710
 
band     9 # energy    1.16390474 # occ.  0.00000000
 
ion      s      p      d    tot
    1  0.001  0.007  0.024  0.032
    2  0.001  0.007  0.024  0.032
tot    0.001  0.015  0.048  0.064
 
band    10 # energy    1.67902955 # occ.  0.00000000
 
ion      s      p      d    tot
    1  0.003  0.018  0.001  0.022
    2  0.003  0.018  0.001  0.022
tot    0.006  0.036  0.002  0.043
 
band    11 # energy    2.18423007 # occ.  0.00000000
 
ion      s      p      d    tot
    1  0.002  0.009  0.001  0.011
    2  0.002  0.009  0.001  0.011
tot    0.003  0.018  0.001  0.022
 
band    12 # energy    2.48507933 # occ.  0.00000000
 
ion      s      p      d    tot
    1  0.002  0.000  0.006  0.008
    2  0.002  0.000  0.006  0.008
tot    0.004  0.000  0.013  0.017
 
band    13 # energy    3.43200981 # occ.  0.00000000
 
ion      s      p      d    tot
    1  0.004  0.018  0.004  0.026
    2  0.004  0.018  0.004  0.026
tot    0.009  0.036  0.007  0.052
 
band    14 # energy    3.84160360 # occ.  0.00000000
 
ion      s      p      d    tot
    1  0.005  0.000  0.015  0.021
    2  0.005  0.000  0.015  0.021
tot    0.010  0.001  0.030  0.041
 
band    15 # energy    4.81287295 # occ.  0.00000000
 
ion      s      p      d    tot
    1  0.003  0.042  0.125  0.170
    2  0.003  0.042  0.125  0.170
tot    0.005  0.085  0.250  0.341
 
band    16 # energy    5.50020659 # occ.  0.00000000
 
ion      s      p      d    tot
    1  0.007  0.032  0.040  0.079
    2  0.007  0.032  0.040  0.079
tot    0.013  0.064  0.080  0.158
 

 k-point     3 :    0.14285714-0.00000000 0.00000000     weight = 0.03061224

band     1 # energy  -18.08072069 # occ.  2.00000000
 
ion      s      p      d    tot
    1  0.259  0.019  0.001  0.280
    2  0.259  0.019  0.001  0.280
tot    0.519  0.039  0.002  0.559
 
band     2 # energy  -10.49756393 # occ.  2.00000000
 
ion      s      p      d    tot
    1  0.233  0.046  0.004  0.283
    2  0.233  0.046  0.004  0.283
tot    0.467  0.091  0.008  0.566
 
band     3 # energy   -6.43987305 # occ.  2.00000000
 
ion      s      p      d    tot
    1  0.033  0.244  0.028  0.305
    2  0.033  0.244  0.028  0.305
tot    0.066  0.488  0.056  0.609
 
band     4 # energy   -5.04895608 # occ.  2.00000000
 
ion      s      p      d    tot
    1  0.000  0.296  0.031  0.327
    2  0.000  0.296  0.031  0.327
tot    0.000  0.593  0.061  0.654
 
band     5 # energy   -4.52333671 # occ.  2.00000000
 
ion      s      p      d    tot
    1  0.008  0.214  0.004  0.226
    2  0.008  0.214  0.004  0.226
tot    0.015  0.429  0.008  0.452
 
band     6 # energy   -1.19007914 # occ.  0.00000000
 
ion      s      p      d    tot
    1  0.055  0.193  0.043  0.291
    2  0.055  0.193  0.043  0.291
tot    0.110  0.386  0.086  0.582
 
band     7 # energy    0.36015233 # occ.  0.00000000
 
ion      s      p      d    tot
    1  0.000  0.297  0.036  0.333
    2  0.000  0.297  0.036  0.333
tot    0.000  0.595  0.072  0.666
 
band     8 # energy    1.13187217 # occ.  0.00000000
 
ion      s      p      d    tot
    1  0.108  0.158  0.010  0.276
    2  0.108  0.158  0.010  0.276
tot    0.216  0.317  0.020  0.552
 
band     9 # energy    1.50078126 # occ.  0.00000000
 
ion      s      p      d    tot
    1  0.006  0.051  0.036  0.093
    2  0.006  0.051  0.036  0.093
tot    0.013  0.102  0.072  0.187
 
band    10 # energy    1.95148876 # occ.  0.00000000
 
ion      s      p      d    tot
    1  0.007  0.033  0.006  0.045
    2  0.007  0.033  0.006  0.045
tot    0.013  0.066  0.011  0.091
 
band    11 # energy    2.44775141 # occ.  0.00000000
 
ion      s      p      d    tot
    1  0.002  0.011  0.003  0.017
    2  0.002  0.011  0.003  0.017
tot    0.005  0.022  0.007  0.034
 
band    12 # energy    2.76851812 # occ.  0.00000000
 
ion      s      p      d    tot
    1  0.002  0.000  0.007  0.009
    2  0.002  0.000  0.007  0.009
tot    0.003  0.001  0.014  0.018
 
band    13 # energy    3.50543360 # occ.  0.00000000
 
ion      s      p      d    tot
    1  0.008  0.024  0.048  0.080
    2  0.008  0.024  0.048  0.080
tot    0.016  0.047  0.097  0.160
 
band    14 # energy    4.11788546 # occ.  0.00000000
 
ion      s      p      d    tot
    1  0.005  0.001  0.017  0.022
    2  0.005  0.001  0.017  0.022
tot    0.010  0.002  0.033  0.044
 
band    15 # energy    4.18036432 # occ.  0.00000000
 
ion      s      p      d    tot
    1  0.006  0.021  0.093  0.119
    2  0.006  0.021  0.093  0.119
tot    0.011  0.042  0.185  0.238
 
band    16 # energy    5.27320902 # occ.  0.00000000
 
ion      s      p      d    tot
    1  0.000  0.022  0.204  0.226
    2  0.000  0.022  0.204  0.226
tot    0.000  0.045  0.407  0.452
 

 k-point     4 :    0.21428571 0.00000000 0.00000000     weight = 0.03061224

band     1 # energy  -17.67703342 # occ.  2.00000000
 
ion      s      p      d    tot
    1  0.258  0.024  0.001  0.283
    2  0.258  0.024  0.001  0.283
tot    0.516  0.048  0.003  0.566
 
band     2 # energy  -10.38967227 # occ.  2.00000000
 
ion      s      p      d    tot
    1  0.270  0.035  0.006  0.312
    2  0.270  0.035  0.006  0.312
tot    0.541  0.070  0.012  0.623
 
band     3 # energy   -7.72415236 # occ.  2.00000000
 
ion      s      p      d    tot
    1  0.014  0.231  0.021  0.265
    2  0.014  0.231  0.021  0.265
tot    0.027  0.461  0.041  0.530
 
band     4 # energy   -5.53640746 # occ.  2.00000000
 
ion      s      p      d    tot
    1  0.000  0.289  0.027  0.317
    2  0.000  0.289  0.027  0.317
tot    0.000  0.579  0.054  0.633
 
band     5 # energy   -4.37632908 # occ.  2.00000000
 
ion      s      p      d    tot
    1  0.014  0.226  0.003  0.243
    2  0.014  0.226  0.003  0.243
tot    0.028  0.451  0.007  0.487
 
band     6 # energy   -1.79913001 # occ.  0.00000000
 
ion      s      p      d    tot
    1  0.067  0.164  0.042  0.272
    2  0.067  0.164  0.042  0.272
tot    0.133  0.327  0.084  0.544
 
band     7 # energy    0.84195796 # occ.  0.00000000
 
ion      s      p      d    tot
    1  0.000  0.316  0.027  0.343
    2  0.000  0.316  0.027  0.343
tot    0.000  0.632  0.054  0.685
 
band     8 # energy    1.10708994 # occ.  0.00000000
 
ion      s      p      d    tot
    1  0.042  0.140  0.056  0.237
    2  0.042  0.140  0.056  0.237
tot    0.083  0.280  0.111  0.474
 
band     9 # energy    1.86251608 # occ.  0.00000000
 
ion      s      p      d    tot
    1  0.011  0.003  0.016  0.030
    2  0.011  0.003  0.016  0.030
tot    0.022  0.005  0.033  0.060
 
band    10 # energy    2.47721737 # occ.  0.00000000
 
ion      s      p      d    tot
    1  0.004  0.042  0.003  0.049
    2  0.004  0.042  0.003  0.049
tot    0.008  0.084  0.007  0.099
 
band    11 # energy    2.93751087 # occ.  0.00000000
 
ion      s      p      d    tot
    1  0.003  0.024  0.002  0.029
    2  0.003  0.024  0.002  0.029
tot    0.006  0.048  0.004  0.058
 
band    12 # energy    3.23265483 # occ.  0.00000000
 
ion      s      p      d    tot
    1  0.004  0.001  0.006  0.010
    2  0.004  0.001  0.006  0.010
tot    0.008  0.002  0.011  0.021
 
band    13 # energy    3.91186014 # occ.  0.00000000
 
ion      s      p      d    tot
    1  0.019  0.085  0.037  0.141
    2  0.019  0.085  0.037  0.141
tot    0.039  0.170  0.073  0.283
 
band    14 # energy    4.50930268 # occ.  0.00000000
 
ion      s      p      d    tot
    1  0.025  0.035  0.039  0.099
    2  0.025  0.035  0.039  0.099
tot    0.049  0.071  0.077  0.197
 
band    15 # energy    4.59120802 # occ.  0.00000000
 
ion      s      p      d    tot
    1  0.002  0.010  0.062  0.074
    2  0.002  0.010  0.062  0.074
tot    0.004  0.020  0.123  0.147
 
band    16 # energy    5.26661296 # occ.  0.00000000
 
ion      s      p      d    tot
    1  0.016  0.039  0.111  0.166
    2  0.016  0.039  0.111  0.166
tot    0.032  0.078  0.222  0.332
 

 k-point     5 :    0.28571429-0.00000000 0.00000000     weight = 0.03061224

band     1 # energy  -17.12401387 # occ.  2.00000000
 
ion      s      p      d    tot
    1  0.257  0.029  0.002  0.288
    2  0.257  0.029  0.002  0.288
tot    0.513  0.059  0.004  0.576
 
band     2 # energy  -10.72940577 # occ.  2.00000000
 
ion      s      p      d    tot
    1  0.285  0.046  0.011  0.342
    2  0.285  0.046  0.011  0.342
tot    0.571  0.091  0.022  0.684
 
band     3 # energy   -8.39107747 # occ.  2.00000000
 
ion      s      p      d    tot
    1  0.011  0.205  0.011  0.227
    2  0.011  0.205  0.011  0.227
tot    0.023  0.410  0.021  0.454
 
band     4 # energy   -5.97008706 # occ.  2.00000000
 
ion      s      p      d    tot
    1  0.000  0.286  0.024  0.309
    2  0.000  0.286  0.024  0.309
tot    0.000  0.571  0.047  0.619
 
band     5 # energy   -4.37568750 # occ.  2.00000000
 
ion      s      p      d    tot
    1  0.031  0.236  0.002  0.268
    2  0.031  0.236  0.002  0.268
tot    0.061  0.471  0.004  0.536
 
band     6 # energy   -2.25409708 # occ.  0.00000000
 
ion      s      p      d    tot
    1  0.065  0.140  0.044  0.249
    2  0.065  0.140  0.044  0.249
tot    0.130  0.280  0.089  0.499
 
band     7 # energy    0.29560820 # occ.  0.00000000
 
ion      s      p      d    tot
    1  0.019  0.108  0.074  0.200
    2  0.019  0.108  0.074  0.200
tot    0.038  0.215  0.147  0.401
 
band     8 # energy    1.06759001 # occ.  0.00000000
 
ion      s      p      d    tot
    1  0.000  0.311  0.026  0.337
    2  0.000  0.311  0.026  0.337
tot    0.000  0.623  0.051  0.674
 
band     9 # energy    2.50292692 # occ.  0.00000000
 
ion      s      p      d    tot
    1  0.013  0.006  0.016  0.035
    2  0.013  0.006  0.016  0.035
tot    0.026  0.012  0.031  0.070
 
band    10 # energy    2.98651683 # occ.  0.00000000
 
ion      s      p      d    tot
    1  0.003  0.055  0.012  0.071
    2  0.003  0.055  0.012  0.071
tot    0.006  0.111  0.025  0.141
 
band    11 # energy    3.50956180 # occ.  0.00000000
 
ion      s      p      d    tot
    1  0.002  0.022  0.010  0.034
    2  0.002  0.022  0.010  0.034
tot    0.003  0.044  0.020  0.067
 
band    12 # energy    3.87562951 # occ.  0.00000000
 
ion      s      p      d    tot
    1  0.004  0.005  0.011  0.019
    2  0.004  0.005  0.011  0.019
tot    0.007  0.010  0.021  0.039
 
band    13 # energy    4.14093696 # occ.  0.00000000
 
ion      s      p      d    tot
    1  0.002  0.050  0.044  0.097
    2  0.002  0.050  0.044  0.097
tot    0.005  0.101  0.089  0.194
 
band    14 # energy    5.06929359 # occ.  0.00000000
 
ion      s      p      d    tot
    1  0.001  0.017  0.023  0.041
    2  0.001  0.017  0.023  0.041
tot    0.002  0.033  0.046  0.082
 
band    15 # energy    5.32569051 # occ.  0.00000000
 
ion      s      p      d    tot
    1  0.005  0.007  0.013  0.024
    2  0.005  0.007  0.013  0.024
tot    0.010  0.013  0.025  0.049
 
band    16 # energy    5.90799531 # occ.  0.00000000
 
ion      s      p      d    tot
    1  0.043  0.118  0.127  0.289
    2  0.043  0.118  0.127  0.289
tot    0.086  0.237  0.255  0.577
 

 k-point     6 :    0.35714286 0.00000000 0.00000000     weight = 0.03061224

band     1 # energy  -16.44494871 # occ.  2.00000000
 
ion      s      p      d    tot
    1  0.257  0.035  0.003  0.295
    2  0.257  0.035  0.003  0.295
tot    0.514  0.070  0.007  0.591
 
band     2 # energy  -11.69034424 # occ.  2.00000000
 
ion      s      p      d    tot
    1  0.246  0.072  0.012  0.330
    2  0.246  0.072  0.012  0.330
tot    0.492  0.144  0.023  0.659
 
band     3 # energy   -8.21535816 # occ.  2.00000000
 
ion      s      p      d    tot
    1  0.061  0.170  0.005  0.236
    2  0.061  0.170  0.005  0.236
tot    0.123  0.340  0.010  0.473
 
band     4 # energy   -6.30122553 # occ.  2.00000000
 
ion      s      p      d    tot
    1  0.000  0.283  0.021  0.304
    2  0.000  0.283  0.021  0.304
tot    0.000  0.567  0.042  0.609
 
band     5 # energy   -4.72696789 # occ.  2.00000000
 
ion      s      p      d    tot
    1  0.051  0.226  0.002  0.279
    2  0.051  0.226  0.002  0.279
tot    0.102  0.452  0.003  0.558
 
band     6 # energy   -2.38315943 # occ.  0.00000000
 
ion      s      p      d    tot
    1  0.054  0.130  0.052  0.237
    2  0.054  0.130  0.052  0.237
tot    0.109  0.261  0.105  0.474
 
band     7 # energy   -0.37473562 # occ.  0.00000000
 
ion      s      p      d    tot
    1  0.010  0.113  0.068  0.191
    2  0.010  0.113  0.068  0.191
tot    0.021  0.225  0.137  0.383
 
band     8 # energy    1.08952599 # occ.  0.00000000
 
ion      s      p      d    tot
    1  0.000  0.296  0.029  0.325
    2  0.000  0.296  0.029  0.325
tot    0.000  0.593  0.058  0.651
 
band     9 # energy    2.86262684 # occ.  0.00000000
 
ion      s      p      d    tot
    1  0.005  0.078  0.077  0.160
    2  0.005  0.078  0.077  0.160
tot    0.009  0.157  0.154  0.320
 
band    10 # energy    3.35948082 # occ.  0.00000000
 
ion      s      p      d    tot
    1  0.012  0.007  0.011  0.030
    2  0.012  0.007  0.011  0.030
tot    0.024  0.014  0.023  0.061
 
band    11 # energy    4.12839293 # occ.  0.00000000
 
ion      s      p      d    tot
    1  0.000  0.010  0.012  0.022
    2  0.000  0.010  0.012  0.022
tot    0.000  0.019  0.025  0.044
 
band    12 # energy    4.55725346 # occ.  0.00000000
 
ion      s      p      d    tot
    1  0.000  0.011  0.012  0.023
    2  0.000  0.011  0.012  0.023
tot    0.001  0.022  0.023  0.046
 
band    13 # energy    4.76083165 # occ.  0.00000000
 
ion      s      p      d    tot
    1  0.003  0.002  0.004  0.009
    2  0.003  0.002  0.004  0.009
tot    0.006  0.004  0.008  0.018
 
band    14 # energy    5.76953343 # occ.  0.00000000
 
ion      s      p      d    tot
    1  0.003  0.017  0.014  0.034
    2  0.003  0.017  0.014  0.034
tot    0.005  0.035  0.028  0.069
 
band    15 # energy    6.12346733 # occ.  0.00000000
 
ion      s      p      d    tot
    1  0.006  0.003  0.010  0.019
    2  0.006  0.003  0.010  0.019
tot    0.013  0.006  0.019  0.038
 
band    16 # energy    6.92013545 # occ.  0.00000000
 
ion      s      p      d    tot
    1  0.009  0.060  0.063  0.131
    2  0.009  0.060  0.063  0.131
tot    0.017  0.120  0.125  0.262
 

 k-point     7 :    0.42857143 0.00000000 0.00000000     weight = 0.03061224

band     1 # energy  -15.71758599 # occ.  2.00000000
 
ion      s      p      d    tot
    1  0.263  0.038  0.005  0.306
    2  0.263  0.038  0.005  0.306
tot    0.526  0.076  0.010  0.613
 
band     2 # energy  -12.72296169 # occ.  2.00000000
 
ion      s      p      d    tot
    1  0.219  0.081  0.009  0.309
    2  0.219  0.081  0.009  0.309
tot    0.438  0.162  0.018  0.619
 
band     3 # energy   -7.72708638 # occ.  2.00000000
 
ion      s      p      d    tot
    1  0.097  0.159  0.003  0.258
    2  0.097  0.159  0.003  0.258
tot    0.193  0.317  0.005  0.516
 
band     4 # energy   -6.50650149 # occ.  2.00000000
 
ion      s      p      d    tot
    1  0.000  0.282  0.019  0.301
    2  0.000  0.282  0.019  0.301
tot    0.000  0.565  0.038  0.603
 
band     5 # energy   -5.30909656 # occ.  2.00000000
 
ion      s      p      d    tot
    1  0.054  0.209  0.003  0.266
    2  0.054  0.209  0.003  0.266
tot    0.109  0.418  0.006  0.532
 
band     6 # energy   -2.32953111 # occ.  0.00000000
 
ion      s      p      d    tot
    1  0.052  0.117  0.067  0.236
    2  0.052  0.117  0.067  0.236
tot    0.104  0.235  0.134  0.472
 
band     7 # energy   -0.69587219 # occ.  0.00000000
 
ion      s      p      d    tot
    1  0.004  0.148  0.051  0.203
    2  0.004  0.148  0.051  0.203
tot    0.008  0.296  0.102  0.406
 
band     8 # energy    1.04760033 # occ.  0.00000000
 
ion      s      p      d    tot
    1  0.000  0.285  0.032  0.317
    2  0.000  0.285  0.032  0.317
tot    0.000  0.570  0.064  0.635
 
band     9 # energy    2.36473945 # occ.  0.00000000
 
ion      s      p      d    tot
    1  0.002  0.050  0.092  0.144
    2  0.002  0.050  0.092  0.144
tot    0.004  0.100  0.184  0.287
 
band    10 # energy    4.35414910 # occ.  0.00000000
 
ion      s      p      d    tot
    1  0.013  0.007  0.014  0.034
    2  0.013  0.007  0.014  0.034
tot    0.025  0.014  0.029  0.068
 
band    11 # energy    5.03429524 # occ.  0.00000000
 
ion      s      p      d    tot
    1  0.002  0.016  0.009  0.027
    2  0.002  0.016  0.009  0.027
tot    0.003  0.032  0.018  0.053
 
band    12 # energy    5.49031617 # occ.  0.00000000
 
ion      s      p      d    tot
    1  0.002  0.009  0.006  0.017
    2  0.002  0.009  0.006  0.017
tot    0.005  0.017  0.012  0.034
 
band    13 # energy    5.78764614 # occ.  0.00000000
 
ion      s      p      d    tot
    1  0.003  0.002  0.004  0.009
    2  0.003  0.002  0.004  0.009
tot    0.006  0.004  0.009  0.018
 
band    14 # energy    6.36262270 # occ.  0.00000000
 
ion      s      p      d    tot
    1  0.016  0.015  0.029  0.060
    2  0.016  0.015  0.029  0.060
tot    0.032  0.029  0.059  0.120
 
band    15 # energy    6.88463744 # occ.  0.00000000
 
ion      s      p      d    tot
    1  0.007  0.018  0.020  0.044
    2  0.007  0.018  0.020  0.044
tot    0.013  0.035  0.040  0.088
 
band    16 # energy    7.14229841 # occ.  0.00000000
 
ion      s      p      d    tot
    1  0.005  0.007  0.014  0.026
    2  0.005  0.007  0.014  0.026
tot    0.011  0.013  0.028  0.052
 

 k-point     8 :    0.50000000 0.00000000 0.00000000     weight = 0.01530612

band     1 # energy  -15.29712141 # occ.  2.00000000
 
ion      s      p      d    tot
    1  0.273  0.037  0.007  0.316
    2  0.273  0.037  0.007  0.316
tot    0.545  0.074  0.013  0.632
 
band     2 # energy  -13.25849492 # occ.  2.00000000
 
ion      s      p      d    tot
    1  0.204  0.085  0.007  0.296
    2  0.204  0.085  0.007  0.296
tot    0.407  0.170  0.015  0.593
 
band     3 # energy   -7.42642631 # occ.  2.00000000
 
ion      s      p      d    tot
    1  0.115  0.156  0.001  0.273
    2  0.115  0.156  0.001  0.273
tot    0.230  0.313  0.003  0.545
 
band     4 # energy   -6.57598310 # occ.  2.00000000
 
ion      s      p      d    tot
    1  0.000  0.282  0.018  0.301
    2  0.000  0.282  0.018  0.301
tot    0.000  0.564  0.037  0.601
 
band     5 # energy   -5.65021459 # occ.  2.00000000
 
ion      s      p      d    tot
    1  0.046  0.202  0.004  0.252
    2  0.046  0.202  0.004  0.252
tot    0.092  0.403  0.009  0.504
 
band     6 # energy   -2.30183992 # occ.  0.00000000
 
ion      s      p      d    tot
    1  0.053  0.107  0.075  0.235
    2  0.053  0.107  0.075  0.235
tot    0.106  0.213  0.150  0.470
 
band     7 # energy   -0.75666685 # occ.  0.00000000
 
ion      s      p      d    tot
    1  0.001  0.173  0.041  0.215
    2  0.001  0.173  0.041  0.215
tot    0.002  0.346  0.082  0.430
 
band     8 # energy    1.02535282 # occ.  0.00000000
 
ion      s      p      d    tot
    1  0.000  0.281  0.033  0.315
    2  0.000  0.281  0.033  0.315
tot    0.000  0.563  0.067  0.629
 
band     9 # energy    2.13391105 # occ.  0.00000000
 
ion      s      p      d    tot
    1  0.001  0.034  0.095  0.129
    2  0.001  0.034  0.095  0.129
tot    0.001  0.067  0.190  0.259
 
band    10 # energy    5.45208146 # occ.  0.00000000
 
ion      s      p      d    tot
    1  0.011  0.006  0.022  0.039
    2  0.012  0.006  0.022  0.040
tot    0.023  0.012  0.044  0.079
 
band    11 # energy    5.45579945 # occ.  0.00000000
 
ion      s      p      d    tot
    1  0.023  0.013  0.022  0.058
    2  0.023  0.013  0.022  0.058
tot    0.046  0.026  0.044  0.116
 
band    12 # energy    5.90994105 # occ.  0.00000000
 
ion      s      p      d    tot
    1  0.000  0.032  0.008  0.040
    2  0.000  0.032  0.008  0.040
tot    0.001  0.064  0.015  0.080
 
band    13 # energy    6.34106785 # occ.  0.00000000
 
ion      s      p      d    tot
    1  0.000  0.014  0.006  0.020
    2  0.000  0.014  0.006  0.020
tot    0.000  0.027  0.012  0.039
 
band    14 # energy    6.57731797 # occ.  0.00000000
 
ion      s      p      d    tot
    1  0.002  0.002  0.006  0.011
    2  0.002  0.002  0.006  0.010
tot    0.005  0.005  0.011  0.021
 
band    15 # energy    6.79441192 # occ.  0.00000000
 
ion      s      p      d    tot
    1  0.001  0.013  0.005  0.019
    2  0.000  0.013  0.005  0.019
tot    0.001  0.027  0.011  0.039
 
band    16 # energy    6.98513058 # occ.  0.00000000
 
ion      s      p      d    tot
    1  0.002  0.001  0.006  0.009
    2  0.002  0.001  0.006  0.009
tot    0.005  0.002  0.012  0.019
 

 k-point     9 :    0.07142857 0.07142857 0.00000000     weight = 0.03061224

band     1 # energy  -18.16214943 # occ.  2.00000000
 
ion      s      p      d    tot
    1  0.260  0.019  0.001  0.279
    2  0.260  0.019  0.001  0.279
tot    0.519  0.037  0.001  0.558
 
band     2 # energy  -10.54000319 # occ.  2.00000000
 
ion      s      p      d    tot
    1  0.227  0.048  0.004  0.279
    2  0.227  0.048  0.004  0.279
tot    0.455  0.095  0.008  0.557
 
band     3 # energy   -6.01730782 # occ.  2.00000000
 
ion      s      p      d    tot
    1  0.034  0.252  0.029  0.315
    2  0.034  0.252  0.029  0.315
tot    0.068  0.504  0.059  0.630
 
band     4 # energy   -5.01928821 # occ.  2.00000000
 
ion      s      p      d    tot
    1  0.001  0.292  0.031  0.324
    2  0.001  0.292  0.031  0.324
tot    0.002  0.583  0.063  0.649
 
band     5 # energy   -4.56337126 # occ.  2.00000000
 
ion      s      p      d    tot
    1  0.007  0.212  0.004  0.223
    2  0.007  0.212  0.004  0.223
tot    0.014  0.424  0.008  0.446
 
band     6 # energy   -0.62815601 # occ.  0.00000000
 
ion      s      p      d    tot
    1  0.020  0.243  0.040  0.303
    2  0.020  0.243  0.040  0.303
tot    0.040  0.485  0.080  0.605
 
band     7 # energy   -0.27523844 # occ.  0.00000000
 
ion      s      p      d    tot
    1  0.058  0.223  0.042  0.323
    2  0.058  0.223  0.042  0.323
tot    0.116  0.447  0.085  0.647
 
band     8 # energy    1.03793033 # occ.  0.00000000
 
ion      s      p      d    tot
    1  0.097  0.186  0.012  0.295
    2  0.097  0.186  0.012  0.295
tot    0.195  0.372  0.024  0.591
 
band     9 # energy    1.41368294 # occ.  0.00000000
 
ion      s      p      d    tot
    1  0.006  0.058  0.037  0.101
    2  0.006  0.058  0.037  0.101
tot    0.013  0.116  0.074  0.202
 
band    10 # energy    1.83726269 # occ.  0.00000000
 
ion      s      p      d    tot
    1  0.003  0.020  0.004  0.027
    2  0.003  0.020  0.004  0.027
tot    0.006  0.041  0.007  0.053
 
band    11 # energy    2.35384513 # occ.  0.00000000
 
ion      s      p      d    tot
    1  0.001  0.008  0.002  0.012
    2  0.001  0.008  0.002  0.012
tot    0.003  0.017  0.005  0.025
 
band    12 # energy    2.67451527 # occ.  0.00000000
 
ion      s      p      d    tot
    1  0.002  0.000  0.007  0.009
    2  0.002  0.000  0.007  0.009
tot    0.003  0.000  0.014  0.017
 
band    13 # energy    3.48536964 # occ.  0.00000000
 
ion      s      p      d    tot
    1  0.004  0.021  0.029  0.054
    2  0.004  0.021  0.029  0.054
tot    0.009  0.041  0.058  0.108
 
band    14 # energy    4.02624189 # occ.  0.00000000
 
ion      s      p      d    tot
    1  0.005  0.000  0.016  0.022
    2  0.005  0.000  0.016  0.022
tot    0.009  0.001  0.033  0.043
 
band    15 # energy    4.28519105 # occ.  0.00000000
 
ion      s      p      d    tot
    1  0.000  0.031  0.107  0.138
    2  0.000  0.031  0.107  0.138
tot    0.001  0.063  0.213  0.277
 
band    16 # energy    5.12528286 # occ.  0.00000000
 
ion      s      p      d    tot
    1  0.006  0.019  0.195  0.220
    2  0.006  0.019  0.195  0.220
tot    0.011  0.039  0.390  0.441
 

 k-point    10 :    0.14285714 0.07142857 0.00000000     weight = 0.06122449

band     1 # energy  -17.83766152 # occ.  2.00000000
 
ion      s      p      d    tot
    1  0.258  0.022  0.001  0.282
    2  0.258  0.022  0.001  0.282
tot    0.517  0.044  0.002  0.563
 
band     2 # energy  -10.40292811 # occ.  2.00000000
 
ion      s      p      d    tot
    1  0.255  0.039  0.005  0.299
    2  0.255  0.039  0.005  0.299
tot    0.510  0.078  0.010  0.598
 
band     3 # energy   -7.20643949 # occ.  2.00000000
 
ion      s      p      d    tot
    1  0.025  0.236  0.024  0.285
    2  0.025  0.236  0.024  0.285
tot    0.051  0.471  0.048  0.570
 
band     4 # energy   -5.62002091 # occ.  2.00000000
 
ion      s      p      d    tot
    1  0.004  0.276  0.028  0.309
    2  0.004  0.276  0.028  0.309
tot    0.007  0.553  0.057  0.617
 
band     5 # energy   -4.42059802 # occ.  2.00000000
 
ion      s      p      d    tot
    1  0.011  0.221  0.004  0.236
    2  0.011  0.221  0.004  0.236
tot    0.021  0.442  0.008  0.471
 
band     6 # energy   -1.08307299 # occ.  0.00000000
 
ion      s      p      d    tot
    1  0.048  0.207  0.038  0.293
    2  0.048  0.207  0.038  0.293
tot    0.097  0.413  0.076  0.586
 
band     7 # energy    0.22016958 # occ.  0.00000000
 
ion      s      p      d    tot
    1  0.031  0.263  0.034  0.328
    2  0.031  0.263  0.034  0.328
tot    0.061  0.526  0.068  0.655
 
band     8 # energy    1.53633387 # occ.  0.00000000
 
ion      s      p      d    tot
    1  0.055  0.148  0.016  0.219
    2  0.055  0.148  0.016  0.219
tot    0.111  0.296  0.032  0.438
 
band     9 # energy    1.75471050 # occ.  0.00000000
 
ion      s      p      d    tot