<?xml version="1.0" encoding="ISO-8859-1"?>
<modeling>
 <generator>
  <i name="program" type="string">vasp </i>
  <i name="version" type="string">6.4.2  </i>
  <i name="subversion" type="string">20Jul23 (build Nov 14 2023 12:59:38) complex                          parallel </i>
  <i name="platform" type="string">LinuxIFC </i>
  <i name="date" type="string">2023 12 18 </i>
  <i name="time" type="string">09:41:52 </i>
 </generator>
 <incar>
  <i type="string" name="PREC">Accurate</i>
  <i type="string" name="ALGO">Normal</i>
  <i type="logical" name="ADDGRID"> T  </i>
  <i type="int" name="ISPIN">     1</i>
  <i name="AMIX">      0.10000000</i>
  <i name="BMIX">      0.00010000</i>
  <i type="int" name="NELM">   200</i>
  <i type="int" name="NELMDL">   -12</i>
  <i type="int" name="NELMIN">     6</i>
  <i type="int" name="IBRION">     2</i>
  <i name="EDIFF">      0.00000100</i>
  <i name="EDIFFG">     -0.01000000</i>
  <i type="int" name="NSW">     0</i>
  <i type="int" name="ISIF">    -1</i>
  <i name="ENCUT">    286.92000000</i>
  <i name="POTIM">      0.50000000</i>
  <i type="int" name="NEDOS">  6001</i>
  <i type="logical" name="LPLANE"> T  </i>
  <i type="int" name="ISMEAR">     0</i>
  <i name="SIGMA">      0.01000000</i>
  <i type="int" name="NWRITE">     1</i>
  <i type="logical" name="LWAVE"> F  </i>
  <i type="logical" name="LCHARG"> F  </i>
  <i type="int" name="LORBIT">    10</i>
  <i type="logical" name="LASPH"> T  </i>
  <i type="logical" name="LEPSILON"> T  </i>
  <i type="int" name="IVDW">     0</i>
 </incar>
 <primitive_cell>
  <structure name="primitive_cell" >
   <crystal>
    <varray name="basis" >
     <v>       3.28234339       0.00000000       0.00000000 </v>
     <v>      -1.64117169       2.84259276       0.00000000 </v>
     <v>       0.00000000       0.00000000      24.00000000 </v>
    </varray>
    <i name="volume">    223.92877300 </i>
    <varray name="rec_basis" >
     <v>       0.30466038       0.17589576       0.00000000 </v>
     <v>       0.00000000       0.35179151       0.00000000 </v>
     <v>       0.00000000       0.00000000       0.04166667 </v>
    </varray>
   </crystal>
   <varray name="positions" >
    <v>       0.66666669       0.33333334       0.30745522 </v>
    <v>       0.33333334       0.66666669       0.35921144 </v>
   </varray>
  </structure>
  <varray name="primitive_index" >
   <v type="int" >        1 </v>
   <v type="int" >        2 </v>
  </varray>
 </primitive_cell>
 <kpoints>
  <generation param="Gamma">
   <v type="int" name="divisions">      14       14        1 </v>
   <v name="usershift">      0.00000000       0.00000000       0.00000000 </v>
   <v name="genvec1">      0.07142857       0.00000000       0.00000000 </v>
   <v name="genvec2">      0.00000000       0.07142857       0.00000000 </v>
   <v name="genvec3">      0.00000000       0.00000000       1.00000000 </v>
   <v name="shift">      0.00000000       0.00000000       0.00000000 </v>
  </generation>
  <varray name="kpointlist" >
   <v>       0.00000000       0.00000000       0.00000000 </v>
   <v>       0.07142857       0.00000000       0.00000000 </v>
   <v>       0.14285714      -0.00000000       0.00000000 </v>
   <v>       0.21428571       0.00000000       0.00000000 </v>
   <v>       0.28571429      -0.00000000       0.00000000 </v>
   <v>       0.35714286       0.00000000       0.00000000 </v>
   <v>       0.42857143       0.00000000       0.00000000 </v>
   <v>       0.50000000       0.00000000       0.00000000 </v>
   <v>       0.07142857       0.07142857       0.00000000 </v>
   <v>       0.14285714       0.07142857       0.00000000 </v>
   <v>       0.21428571       0.07142857       0.00000000 </v>
   <v>       0.28571429       0.07142857       0.00000000 </v>
   <v>       0.35714286       0.07142857       0.00000000 </v>
   <v>       0.42857143       0.07142857       0.00000000 </v>
   <v>       0.14285714       0.14285714       0.00000000 </v>
   <v>       0.21428571       0.14285714       0.00000000 </v>
   <v>       0.28571429       0.14285714       0.00000000 </v>
   <v>       0.35714286       0.14285714       0.00000000 </v>
   <v>       0.42857143       0.14285714       0.00000000 </v>
   <v>       0.21428571       0.21428571       0.00000000 </v>
   <v>       0.28571429       0.21428571       0.00000000 </v>
   <v>       0.35714286       0.21428571       0.00000000 </v>
   <v>       0.28571429       0.28571429       0.00000000 </v>
   <v>       0.35714286       0.28571429       0.00000000 </v>
  </varray>
  <varray name="weights" >
   <v>       0.00510204 </v>
   <v>       0.03061224 </v>
   <v>       0.03061224 </v>
   <v>       0.03061224 </v>
   <v>       0.03061224 </v>
   <v>       0.03061224 </v>
   <v>       0.03061224 </v>
   <v>       0.01530612 </v>
   <v>       0.03061224 </v>
   <v>       0.06122449 </v>
   <v>       0.06122449 </v>
   <v>       0.06122449 </v>
   <v>       0.06122449 </v>
   <v>       0.06122449 </v>
   <v>       0.03061224 </v>
   <v>       0.06122449 </v>
   <v>       0.06122449 </v>
   <v>       0.06122449 </v>
   <v>       0.03061224 </v>
   <v>       0.03061224 </v>
   <v>       0.06122449 </v>
   <v>       0.06122449 </v>
   <v>       0.03061224 </v>
   <v>       0.03061224 </v>
  </varray>
 </kpoints>
 <parameters>
  <separator name="general" >
   <i type="string" name="SYSTEM">unknown system</i>
   <i type="logical" name="LCOMPAT"> F  </i>
  </separator>
  <separator name="electronic" >
   <i type="string" name="PREC">accura</i>
   <i name="ENMAX">    286.92000000</i>
   <i name="ENAUG">    499.73200000</i>
   <i name="EDIFF">      0.00000100</i>
   <i type="int" name="IALGO">    38</i>
   <i type="int" name="IWAVPR">    10</i>
   <i type="int" name="NBANDS">    16</i>
   <i type="int" name="NBANDSLOW">    -1</i>
   <i type="int" name="NBANDSHIGH">    -1</i>
   <i name="NELECT">     10.00000000</i>
   <i type="int" name="TURBO">     0</i>
   <i type="int" name="IRESTART">     0</i>
   <i type="int" name="NREBOOT">     0</i>
   <i type="int" name="NMIN">     0</i>
   <i name="EREF">      0.00000000</i>
   <separator name="electronic smearing" >
    <i type="int" name="ISMEAR">     0</i>
    <i name="SIGMA">      0.01000000</i>
    <i name="KSPACING">      0.50000000</i>
    <i type="logical" name="KGAMMA"> T  </i>
    <i type="logical" name="KBLOWUP"> T  </i>
   </separator>
   <separator name="electronic projectors" >
    <i type="logical" name="LREAL"> F  </i>
    <v name="ROPT">      0.00000000</v>
    <i type="int" name="LMAXPAW">  -100</i>
    <i type="int" name="LMAXMIX">     2</i>
    <i type="logical" name="NLSPLINE"> F  </i>
   </separator>
   <separator name="electronic startup" >
    <i type="int" name="ISTART">     0</i>
    <i type="int" name="ICHARG">     2</i>
    <i type="int" name="INIWAV">     1</i>
   </separator>
   <separator name="electronic spin" >
    <i type="int" name="ISPIN">     1</i>
    <i type="logical" name="LNONCOLLINEAR"> F  </i>
    <v name="MAGMOM">      1.00000000      1.00000000</v>
    <i name="NUPDOWN">     -1.00000000</i>
    <i type="logical" name="LSORBIT"> F  </i>
    <v name="SAXIS">      0.00000000      0.00000000      1.00000000</v>
    <i type="logical" name="LSPIRAL"> F  </i>
    <v name="QSPIRAL">      0.00000000      0.00000000      0.00000000</v>
    <i type="logical" name="LZEROZ"> F  </i>
   </separator>
   <separator name="electronic exchange-correlation" >
    <i type="logical" name="LASPH"> T  </i>
    <i type="logical" name="LMETAGGA"> F  </i>
   </separator>
   <separator name="electronic convergence" >
    <i type="int" name="NELM">   200</i>
    <i type="int" name="NELMDL">   -12</i>
    <i type="int" name="NELMIN">     6</i>
    <i name="ENINI">    286.92000000</i>
    <separator name="electronic convergence detail" >
     <i type="logical" name="LDIAG"> T  </i>
     <i type="logical" name="LSUBROT"> F  </i>
     <i name="WEIMIN">      0.00000000</i>
     <i name="EBREAK">      0.00000002</i>
     <i name="DEPER">      0.30000000</i>
     <i type="int" name="NRMM">     4</i>
     <i name="TIME">      0.40000000</i>
    </separator>
   </separator>
   <separator name="electronic mixer" >
    <i name="AMIX">      0.10000000</i>
    <i name="BMIX">      0.00010000</i>
    <i name="AMIN">      0.10000000</i>
    <i name="AMIX_MAG">      0.40000000</i>
    <i name="BMIX_MAG">      0.00010000</i>
    <separator name="electronic mixer details" >
     <i type="int" name="IMIX">     4</i>
     <i type="logical" name="MIXFIRST"> F  </i>
     <i type="int" name="MAXMIX">   -45</i>
     <i name="WC">    100.00000000</i>
     <i type="int" name="INIMIX">     1</i>
     <i type="int" name="MIXPRE">     1</i>
     <i type="int" name="MREMOVE">     5</i>
    </separator>
   </separator>
   <separator name="electronic dipolcorrection" >
    <i type="logical" name="LDIPOL"> F  </i>
    <i type="logical" name="LMONO"> F  </i>
    <i type="int" name="IDIPOL">     0</i>
    <i name="EPSILON">      1.00000000</i>
    <v name="DIPOL">   -100.00000000   -100.00000000   -100.00000000</v>
    <i name="EFIELD">      0.00000000</i>
   </separator>
  </separator>
  <separator name="grids" >
   <i type="int" name="NGX">    18</i>
   <i type="int" name="NGY">    18</i>
   <i type="int" name="NGZ">   140</i>
   <i type="int" name="NGXF">    36</i>
   <i type="int" name="NGYF">    36</i>
   <i type="int" name="NGZF">   280</i>
   <i type="logical" name="ADDGRID"> T  </i>
  </separator>
  <separator name="ionic" >
   <i type="int" name="NSW">     0</i>
   <i type="int" name="IBRION">    -1</i>
   <i type="int" name="MDALGO">     0</i>
   <i type="int" name="ISIF">    -1</i>
   <i name="PSTRESS">      0.00000000</i>
   <i name="EDIFFG">     -0.01000000</i>
   <i type="int" name="NFREE">     1</i>
   <i name="POTIM">      0.50000000</i>
   <i name="SMASS">     -3.00000000</i>
   <i name="SCALEE">      1.00000000</i>
  </separator>
  <separator name="ionic md" >
   <i name="TEBEG">      0.00010000</i>
   <i name="TEEND">      0.00010000</i>
   <i type="int" name="NBLOCK">     1</i>
   <i type="int" name="KBLOCK">     1</i>
   <i type="int" name="NPACO">   256</i>
   <i name="APACO">     10.00000000</i>
  </separator>
  <separator name="symmetry" >
   <i type="int" name="ISYM">     2</i>
   <i name="SYMPREC">      0.00001000</i>
  </separator>
  <separator name="dos" >
   <i type="int" name="LORBIT">    10</i>
   <v name="RWIGS">     -1.00000000</v>
   <i type="int" name="NEDOS">  6001</i>
   <i name="EMIN">     10.00000000</i>
   <i name="EMAX">    -10.00000000</i>
   <i name="EFERMI">      0.00000000</i>
  </separator>
  <separator name="writing" >
   <i type="int" name="NWRITE">     1</i>
   <i type="logical" name="LWAVE"> F  </i>
   <i type="logical" name="LDOWNSAMPLE"> F  </i>
   <i type="logical" name="LCHARG"> F  </i>
   <i type="logical" name="LPARD"> F  </i>
   <i type="logical" name="LVTOT"> F  </i>
   <i type="logical" name="LVHAR"> F  </i>
   <i type="logical" name="LELF"> F  </i>
   <i type="logical" name="LOPTICS"> F  </i>
   <v name="STM">      0.00000000      0.00000000      0.00000000      0.00000000      0.00000000      0.00000000      0.00000000</v>
  </separator>
  <separator name="performance" >
   <i type="int" name="NPAR">    16</i>
   <i type="int" name="NSIM">     4</i>
   <i type="int" name="NBLK">    -1</i>
   <i type="logical" name="LPLANE"> T  </i>
   <i type="logical" name="LSCALAPACK"> T  </i>
   <i type="logical" name="LSCAAWARE"> F  </i>
   <i type="logical" name="LSCALU"> F  </i>
   <i type="logical" name="LASYNC"> F  </i>
   <i type="logical" name="LORBITALREAL"> F  </i>
  </separator>
  <separator name="miscellaneous" >
   <i type="int" name="IDIOT">     3</i>
   <i type="int" name="PHON_NSTRUCT">    -1</i>
   <i type="logical" name="LMUSIC"> F  </i>
   <v name="POMASS">     30.97400000</v>
   <v name="DARWINR">      0.00000000</v>
   <v name="DARWINV">      1.00000000</v>
   <i type="logical" name="LCORR"> T  </i>
  </separator>
  <i type="logical" name="GGA_COMPAT"> T  </i>
  <i type="logical" name="LBERRY"> F  </i>
  <i type="int" name="ICORELEVEL">     0</i>
  <i type="logical" name="LDAU"> F  </i>
  <i type="int" name="I_CONSTRAINED_M">     0</i>
  <separator name="electronic exchange-correlation" >
   <i type="string" name="GGA">--</i>
   <i type="int" name="VOSKOWN">     0</i>
   <i type="logical" name="LHFCALC"> F  </i>
   <i type="string" name="PRECFOCK"></i>
   <i type="logical" name="LSYMGRAD"> F  </i>
   <i type="logical" name="LHFONE"> F  </i>
   <i type="logical" name="LRHFCALC"> F  </i>
   <i type="logical" name="LTHOMAS"> F  </i>
   <i type="logical" name="LMODELHF"> F  </i>
   <i type="logical" name="LFOCKACE"> F  </i>
   <i name="ENCUT4O">     -1.00000000</i>
   <i type="int" name="EXXOEP">     0</i>
   <i type="int" name="FOURORBIT">     0</i>
   <i name="AEXX">      0.00000000</i>
   <i name="HFALPHA">      0.00000000</i>
   <i name="MCALPHA">      0.00000000</i>
   <i name="ALDAX">      1.00000000</i>
   <i name="AGGAX">      1.00000000</i>
   <i name="ALDAC">      1.00000000</i>
   <i name="AGGAC">      1.00000000</i>
   <i type="int" name="NKREDX">     1</i>
   <i type="int" name="NKREDY">     1</i>
   <i type="int" name="NKREDZ">     1</i>
   <i type="logical" name="SHIFTRED"> F  </i>
   <i type="logical" name="ODDONLY"> F  </i>
   <i type="logical" name="EVENONLY"> F  </i>
   <i type="int" name="LMAXFOCK">     0</i>
   <i type="int" name="NMAXFOCKAE">     0</i>
   <i type="logical" name="LFOCKAEDFT"> F  </i>
   <i name="HFSCREEN">      0.00000000</i>
   <i name="HFSCREENC">      0.00000000</i>
   <i type="int" name="NBANDSGWLOW">     0</i>
  </separator>
  <separator name="vdW DFT" >
   <i type="logical" name="LUSE_VDW"> F  </i>
   <i type="int" name="IVDW_NL">     1</i>
   <i type="logical" name="LSPIN_VDW"> F  </i>
   <i name="Zab_VDW">     -0.84910000</i>
   <i name="PARAM1">      0.12340000</i>
   <i name="PARAM2">      1.00000000</i>
   <i name="PARAM3">      0.00000000</i>
  </separator>
  <separator name="model GW" >
   <i type="int" name="MODEL_GW">     0</i>
   <i name="MODEL_EPS0">     67.17863190</i>
   <i name="MODEL_ALPHA">      1.00000000</i>
  </separator>
  <separator name="linear response parameters" >
   <i type="logical" name="LEPSILON"> T  </i>
   <i type="logical" name="LRPA"> F  </i>
   <i type="logical" name="LNABLA"> F  </i>
   <i type="logical" name="LVEL"> F  </i>
   <i name="CSHIFT">      0.10000000</i>
   <i name="OMEGAMAX">     -1.00000000</i>
   <i name="DEG_THRESHOLD">      0.00200000</i>
   <i name="RTIME">     -0.10000000</i>
   <i name="WPLASMAI">      0.00000000</i>
   <v name="DFIELD">      0.00000000      0.00000000      0.00000000</v>
   <v name="WPLASMA">      0.00000000      0.00000000      0.00000000      0.00000000      0.00000000      0.00000000      0.00000000      0.00000000      0.00000000</v>
  </separator>
  <separator name="orbital magnetization" >
   <i type="logical" name="NUCIND"> F  </i>
   <v name="MAGPOS">      0.00000000      0.00000000      0.00000000</v>
   <i type="logical" name="LNICSALL"> T  </i>
   <i type="logical" name="ORBITALMAG"> F  </i>
   <i type="logical" name="LMAGBLOCH"> F  </i>
   <i type="logical" name="LCHIMAG"> F  </i>
   <i type="logical" name="LGAUGE"> T  </i>
   <i type="int" name="MAGATOM">     0</i>
   <v name="MAGDIPOL">      0.00000000      0.00000000      0.00000000</v>
   <v name="AVECCONST">      0.00000000      0.00000000      0.00000000</v>
  </separator>
  <separator name="response functions" >
   <i type="logical" name="LALL_IN_ONE"> F  </i>
   <i type="int" name="IALL_IN_ONE">    -1</i>
   <i type="int" name="NBANDS_WAVE">    -1</i>
   <i type="logical" name="LFINITE_TEMPERATURE"> F  </i>
   <i type="logical" name="LADDER"> F  </i>
   <i type="logical" name="LRPAFORCE"> F  </i>
   <i type="logical" name="LFXC"> F  </i>
   <i type="logical" name="LHARTREE"> T  </i>
   <i type="int" name="IBSE">     0</i>
   <v type="int" name="KPOINT">    -1     0     0     0</v>
   <i type="logical" name="LTCTC"> F  </i>
   <i type="logical" name="LTCTE"> F  </i>
   <i type="logical" name="LTETE"> F  </i>
   <i type="logical" name="LTRIPLET"> F  </i>
   <i type="logical" name="LFXCEPS"> F  </i>
   <i type="logical" name="LFXHEG"> F  </i>
   <i type="int" name="NATURALO">     2</i>
   <i type="logical" name="LHOLEGF"> F  </i>
   <i type="logical" name="L2ORDER"> F  </i>
   <i type="logical" name="LDMP1"> F  </i>
   <i type="logical" name="LMP2LT"> F  </i>
   <i type="logical" name="LSMP2LT"> F  </i>
   <i type="logical" name="LGWLF"> F  </i>
   <i name="ENCUTGW">     -1.60000002</i>
   <i name="ENCUTGWSOFT">     -1.60000002</i>
   <i name="ENCUTLF">     -1.00000000</i>
   <i type="logical" name="LESF_SPLINES"> F  </i>
   <i type="int" name="LMAXMP2">    -1</i>
   <i name="SCISSOR">      0.00000000</i>
   <i type="int" name="NOMEGA">     0</i>
   <i type="int" name="NOMEGAR">     0</i>
   <i type="int" name="NBANDSGW">    -1</i>
   <i type="int" name="NBANDSO">    -1</i>
   <i type="int" name="NBANDSV">    -1</i>
   <i type="int" name="NELMGW">     1</i>
   <i type="int" name="NELMHF">     1</i>
   <i type="int" name="DIM">     3</i>
   <i type="int" name="IESPILON">     4</i>
   <i type="int" name="ANTIRES">     0</i>
   <i name="OMEGAMAX">    -30.00000000</i>
   <i name="OMEGAMIN">    -30.00000000</i>
   <i name="OMEGATL">   -200.00000000</i>
   <i type="int" name="OMEGAGRID">     0</i>
   <i name="CSHIFT">     -0.10000000</i>
   <i type="logical" name="LSELFENERGY"> F  </i>
   <i type="logical" name="LSPECTRAL"> F  </i>
   <i type="logical" name="LSPECTRALGW"> F  </i>
   <i type="logical" name="LSINGLES"> F  </i>
   <i type="logical" name="LFERMIGW"> F  </i>
   <i type="logical" name="ODDONLYGW"> F  </i>
   <i type="logical" name="EVENONLYGW"> F  </i>
   <i type="int" name="NKREDLFX">     1</i>
   <i type="int" name="NKREDLFY">     1</i>
   <i type="int" name="NKREDLFZ">     1</i>
   <i type="int" name="MAXMEM">  2800</i>
   <i type="int" name="TELESCOPE">     0</i>
   <i type="int" name="NTAUPAR">    -1</i>
   <i type="int" name="NOMEGAPAR">    -1</i>
   <i name="DAMP_NEWTON">      0.80000001</i>
   <i name="LAMBDA">      1.00000000</i>
  </separator>
  <separator name="External order field" >
   <i name="OFIELD_KAPPA">      0.00000000</i>
   <v name="OFIELD_K">      0.00000000      0.00000000      0.00000000</v>
   <i name="OFIELD_Q6_NEAR">      0.00000000</i>
   <i name="OFIELD_Q6_FAR">      0.00000000</i>
   <i name="OFIELD_A">      0.00000000</i>
  </separator>
  <separator name="optional k-points parameters" >
   <i type="int" name="KPOINTS_OPT_MODE">     1</i>
   <i type="logical" name="LKPOINTS_OPT"> F  </i>
  </separator>
 </parameters>
 <atominfo>
  <atoms>       2 </atoms>
  <types>       1 </types>
  <array name="atoms" >
   <dimension dim="1">ion</dimension>
   <field type="string">element</field>
   <field type="int">atomtype</field>
   <set>
    <rc><c>P </c><c>   1</c></rc>
    <rc><c>P </c><c>   1</c></rc>
   </set>
  </array>
  <array name="atomtypes" >
   <dimension dim="1">type</dimension>
   <field type="int">atomspertype</field>
   <field type="string">element</field>
   <field>mass</field>
   <field>valence</field>
   <field type="string">pseudopotential</field>
   <set>
    <rc><c>   2</c><c>P </c><c>     30.97400000</c><c>      5.00000000</c><c>  PAW_PBE P_GW 19Mar2012                </c></rc>
   </set>
  </array>
 </atominfo>
 <structure name="initialpos" >
  <crystal>
   <varray name="basis" >
    <v>       3.28234339       0.00000000       0.00000000 </v>
    <v>      -1.64117169       2.84259276       0.00000000 </v>
    <v>       0.00000000       0.00000000      24.00000000 </v>
   </varray>
   <i name="volume">    223.92877300 </i>
   <varray name="rec_basis" >
    <v>       0.30466038       0.17589576       0.00000000 </v>
    <v>       0.00000000       0.35179151       0.00000000 </v>
    <v>       0.00000000       0.00000000       0.04166667 </v>
   </varray>
  </crystal>
  <varray name="positions" >
   <v>       0.66666669       0.33333334       0.30745522 </v>
   <v>       0.33333334       0.66666669       0.35921144 </v>
  </varray>
 </structure>
 <calculation>
  <scstep>
   <time name="dav">    0.15    0.16</time>
   <time name="total">    0.33    0.33</time>
   <energy>
    <i name="alphaZ">      2.47338559 </i>
    <i name="ewald">   1173.09632214 </i>
    <i name="hartreedc">  -1461.16165281 </i>
    <i name="XCdc">     -7.57090336 </i>
    <i name="pawpsdc">    293.95507915 </i>
    <i name="pawaedc">   -263.19716017 </i>
    <i name="eentropy">     -0.00010860 </i>
    <i name="bandstr">    -55.98251441 </i>
    <i name="atom">    352.07568098 </i>
    <i name="e_fr_energy">     33.68812851 </i>
    <i name="e_wo_entrp">     33.68823711 </i>
    <i name="e_0_energy">     33.68818281 </i>
   </energy>
  </scstep>
  <scstep>
   <time name="dav">    0.22    0.22</time>
   <time name="total">    0.22    0.22</time>
   <energy>
    <i name="e_fr_energy">     -9.25947045 </i>
    <i name="e_wo_entrp">     -9.25947045 </i>
    <i name="e_0_energy">     -9.25947045 </i>
   </energy>
  </scstep>
  <scstep>
   <time name="dav">    0.21    0.21</time>
   <time name="total">    0.21    0.21</time>
   <energy>
    <i name="e_fr_energy">    -10.76575771 </i>
    <i name="e_wo_entrp">    -10.76575771 </i>
    <i name="e_0_energy">    -10.76575771 </i>
   </energy>
  </scstep>
  <scstep>
   <time name="dav">    0.24    0.24</time>
   <time name="total">    0.24    0.24</time>
   <energy>
    <i name="e_fr_energy">    -10.78542214 </i>
    <i name="e_wo_entrp">    -10.78542214 </i>
    <i name="e_0_energy">    -10.78542214 </i>
   </energy>
  </scstep>
  <scstep>
   <time name="dav">    0.22    0.22</time>
   <time name="total">    0.22    0.22</time>
   <energy>
    <i name="e_fr_energy">    -10.78576371 </i>
    <i name="e_wo_entrp">    -10.78576371 </i>
    <i name="e_0_energy">    -10.78576371 </i>
   </energy>
  </scstep>
  <scstep>
   <time name="dav">    0.26    0.26</time>
   <time name="total">    0.26    0.26</time>
   <energy>
    <i name="e_fr_energy">    -10.78576631 </i>
    <i name="e_wo_entrp">    -10.78576631 </i>
    <i name="e_0_energy">    -10.78576631 </i>
   </energy>
  </scstep>
  <scstep>
   <time name="dav">    0.23    0.23</time>
   <time name="total">    0.23    0.23</time>
   <energy>
    <i name="e_fr_energy">    -10.78576632 </i>
    <i name="e_wo_entrp">    -10.78576632 </i>
    <i name="e_0_energy">    -10.78576632 </i>
   </energy>
  </scstep>
  <scstep>
   <time name="dav">    0.26    0.26</time>
   <time name="total">    0.26    0.26</time>
   <energy>
    <i name="e_fr_energy">    -10.78576632 </i>
    <i name="e_wo_entrp">    -10.78576632 </i>
    <i name="e_0_energy">    -10.78576632 </i>
   </energy>
  </scstep>
  <scstep>
   <time name="dav">    0.22    0.22</time>
   <time name="total">    0.22    0.22</time>
   <energy>
    <i name="e_fr_energy">    -10.78576632 </i>
    <i name="e_wo_entrp">    -10.78576632 </i>
    <i name="e_0_energy">    -10.78576632 </i>
   </energy>
  </scstep>
  <scstep>
   <time name="dav">    0.23    0.23</time>
   <time name="total">    0.23    0.23</time>
   <energy>
    <i name="e_fr_energy">    -10.78576632 </i>
    <i name="e_wo_entrp">    -10.78576632 </i>
    <i name="e_0_energy">    -10.78576632 </i>
   </energy>
  </scstep>
  <scstep>
   <time name="dav">    0.19    0.19</time>
   <time name="total">    0.19    0.19</time>
   <energy>
    <i name="e_fr_energy">    -10.78576632 </i>
    <i name="e_wo_entrp">    -10.78576632 </i>
    <i name="e_0_energy">    -10.78576632 </i>
   </energy>
  </scstep>
  <scstep>
   <time name="dav">    0.18    0.18</time>
   <time name="total">    0.21    0.21</time>
   <energy>
    <i name="e_fr_energy">    -10.78576632 </i>
    <i name="e_wo_entrp">    -10.78576632 </i>
    <i name="e_0_energy">    -10.78576632 </i>
   </energy>
  </scstep>
  <scstep>
   <time name="dav">    0.24    0.24</time>
   <time name="total">    0.44    0.44</time>
   <energy>
    <i name="e_fr_energy">    -10.75947210 </i>
    <i name="e_wo_entrp">    -10.75947210 </i>
    <i name="e_0_energy">    -10.75947210 </i>
   </energy>
  </scstep>
  <scstep>
   <time name="dav">    0.26    0.26</time>
   <time name="total">    0.46    0.46</time>
   <energy>
    <i name="e_fr_energy">    -10.68427020 </i>
    <i name="e_wo_entrp">    -10.68427020 </i>
    <i name="e_0_energy">    -10.68427020 </i>
   </energy>
  </scstep>
  <scstep>
   <time name="dav">    0.27    0.27</time>
   <time name="total">    0.47    0.53</time>
   <energy>
    <i name="e_fr_energy">    -10.67824885 </i>
    <i name="e_wo_entrp">    -10.67824885 </i>
    <i name="e_0_energy">    -10.67824885 </i>
   </energy>
  </scstep>
  <scstep>
   <time name="dav">    0.28    0.28</time>
   <time name="total">    0.48    0.50</time>
   <energy>
    <i name="e_fr_energy">    -10.67841107 </i>
    <i name="e_wo_entrp">    -10.67841107 </i>
    <i name="e_0_energy">    -10.67841107 </i>
   </energy>
  </scstep>
  <scstep>
   <time name="dav">    0.26    0.26</time>
   <time name="total">    0.46    0.47</time>
   <energy>
    <i name="e_fr_energy">    -10.67822163 </i>
    <i name="e_wo_entrp">    -10.67822163 </i>
    <i name="e_0_energy">    -10.67822163 </i>
   </energy>
  </scstep>
  <scstep>
   <time name="dav">    0.23    0.23</time>
   <time name="total">    0.43    0.43</time>
   <energy>
    <i name="e_fr_energy">    -10.67820308 </i>
    <i name="e_wo_entrp">    -10.67820308 </i>
    <i name="e_0_energy">    -10.67820308 </i>
   </energy>
  </scstep>
  <scstep>
   <time name="dav">    0.21    0.21</time>
   <time name="total">    0.38    0.38</time>
   <energy>
    <i name="alphaZ">      2.47338559 </i>
    <i name="ewald">   1173.09632214 </i>
    <i name="hartreedc">  -1466.87103809 </i>
    <i name="XCdc">     -7.05511502 </i>
    <i name="pawpsdc">    350.95367120 </i>
    <i name="pawaedc">   -320.39022766 </i>
    <i name="eentropy">     -0.00000000 </i>
    <i name="bandstr">    -94.96088278 </i>
    <i name="atom">    352.07568098 </i>
    <i name="e_fr_energy">    -10.67820363 </i>
    <i name="e_wo_entrp">    -10.67820363 </i>
    <i name="e_0_energy">    -10.67820363 </i>
   </energy>
  </scstep>
  <structure>
   <crystal>
    <varray name="basis" >
     <v>       3.28234339       0.00000000       0.00000000 </v>
     <v>      -1.64117169       2.84259276       0.00000000 </v>
     <v>       0.00000000       0.00000000      24.00000000 </v>
    </varray>
    <i name="volume">    223.92877300 </i>
    <varray name="rec_basis" >
     <v>       0.30466038       0.17589576       0.00000000 </v>
     <v>       0.00000000       0.35179151       0.00000000 </v>
     <v>       0.00000000       0.00000000       0.04166667 </v>
    </varray>
   </crystal>
   <varray name="positions" >
    <v>       0.66666669       0.33333334       0.30745522 </v>
    <v>       0.33333334       0.66666669       0.35921144 </v>
   </varray>
  </structure>
  <varray name="forces" >
   <v>       0.00000000       0.00000000       0.00000000 </v>
   <v>       0.00000000       0.00000000       0.00000000 </v>
  </varray>
  <varray name="stress" >
   <v>       0.00000000       0.00000000       0.00000000 </v>
   <v>       0.00000000       0.00000000       0.00000000 </v>
   <v>       0.00000000       0.00000000       0.00000000 </v>
  </varray>
  <energy>
   <i name="e_fr_energy">    -10.67820363 </i>
   <i name="e_wo_entrp">    -10.67820363 </i>
   <i name="e_0_energy">    -10.67820363 </i>
  </energy>
  <scstep>
   <time name="total">    0.27    0.27</time>
   <energy>
    <i name="e_fr_energy">    -35.30298891 </i>
    <i name="e_wo_entrp">    -35.30298891 </i>
    <i name="e_0_energy">    -35.30298891 </i>
   </energy>
  </scstep>
  <scstep>
   <time name="total">    0.25    0.31</time>
   <energy>
    <i name="e_fr_energy">    -31.51649033 </i>
    <i name="e_wo_entrp">    -31.51649033 </i>
    <i name="e_0_energy">    -31.51649033 </i>
   </energy>
  </scstep>
  <scstep>
   <time name="total">    0.25    0.34</time>
   <energy>
    <i name="e_fr_energy">    -31.77910925 </i>
    <i name="e_wo_entrp">    -31.77910925 </i>
    <i name="e_0_energy">    -31.77910925 </i>
   </energy>
  </scstep>
  <scstep>
   <time name="total">    0.21    0.28</time>
   <energy>
    <i name="e_fr_energy">    -31.80123701 </i>
    <i name="e_wo_entrp">    -31.80123701 </i>
    <i name="e_0_energy">    -31.80123701 </i>
   </energy>
  </scstep>
  <scstep>
   <time name="total">    0.21    0.30</time>
   <energy>
    <i name="e_fr_energy">    -31.80209597 </i>
    <i name="e_wo_entrp">    -31.80209597 </i>
    <i name="e_0_energy">    -31.80209597 </i>
   </energy>
  </scstep>
  <scstep>
   <time name="total">    0.22    0.28</time>
   <energy>
    <i name="e_fr_energy">    -31.80225765 </i>
    <i name="e_wo_entrp">    -31.80225765 </i>
    <i name="e_0_energy">    -31.80225765 </i>
   </energy>
  </scstep>
  <scstep>
   <time name="total">    0.21    0.28</time>
   <energy>
    <i name="e_fr_energy">    -31.80226566 </i>
    <i name="e_wo_entrp">    -31.80226566 </i>
    <i name="e_0_energy">    -31.80226566 </i>
   </energy>
  </scstep>
  <scstep>
   <time name="total">    0.22    0.28</time>
   <energy>
    <i name="e_fr_energy">    -31.80226650 </i>
    <i name="e_wo_entrp">    -31.80226650 </i>
    <i name="e_0_energy">    -31.80226650 </i>
   </energy>
  </scstep>
  <scstep>
   <time name="total">    0.26    0.26</time>
   <energy>
    <i name="e_fr_energy">    -43.41067079 </i>
    <i name="e_wo_entrp">    -43.41067079 </i>
    <i name="e_0_energy">    -43.41067079 </i>
   </energy>
  </scstep>
  <scstep>
   <time name="total">    0.25    0.32</time>
   <energy>
    <i name="e_fr_energy">    -38.39347967 </i>
    <i name="e_wo_entrp">    -38.39347967 </i>
    <i name="e_0_energy">    -38.39347967 </i>
   </energy>
  </scstep>
  <scstep>
   <time name="total">    0.25    0.31</time>
   <energy>
    <i name="e_fr_energy">    -38.60909435 </i>
    <i name="e_wo_entrp">    -38.60909435 </i>
    <i name="e_0_energy">    -38.60909435 </i>
   </energy>
  </scstep>
  <scstep>
   <time name="total">    0.21    0.27</time>
   <energy>
    <i name="e_fr_energy">    -38.60848405 </i>
    <i name="e_wo_entrp">    -38.60848405 </i>
    <i name="e_0_energy">    -38.60848405 </i>
   </energy>
  </scstep>
  <scstep>
   <time name="total">    0.21    0.28</time>
   <energy>
    <i name="e_fr_energy">    -38.60884829 </i>
    <i name="e_wo_entrp">    -38.60884829 </i>
    <i name="e_0_energy">    -38.60884829 </i>
   </energy>
  </scstep>
  <scstep>
   <time name="total">    0.21    0.28</time>
   <energy>
    <i name="e_fr_energy">    -38.60893701 </i>
    <i name="e_wo_entrp">    -38.60893701 </i>
    <i name="e_0_energy">    -38.60893701 </i>
   </energy>
  </scstep>
  <scstep>
   <time name="total">    0.22    0.28</time>
   <energy>
    <i name="e_fr_energy">    -38.60894360 </i>
    <i name="e_wo_entrp">    -38.60894360 </i>
    <i name="e_0_energy">    -38.60894360 </i>
   </energy>
  </scstep>
  <scstep>
   <time name="total">    0.22    0.29</time>
   <energy>
    <i name="e_fr_energy">    -38.60894427 </i>
    <i name="e_wo_entrp">    -38.60894427 </i>
    <i name="e_0_energy">    -38.60894427 </i>
   </energy>
  </scstep>
  <scstep>
   <time name="total">    0.26    0.26</time>
   <energy>
    <i name="e_fr_energy">    -25.21419199 </i>
    <i name="e_wo_entrp">    -25.21419199 </i>
    <i name="e_0_energy">    -25.21419199 </i>
   </energy>
  </scstep>
  <scstep>
   <time name="total">    0.25    0.31</time>
   <energy>
    <i name="e_fr_energy">    -35.07670793 </i>
    <i name="e_wo_entrp">    -35.07670793 </i>
    <i name="e_0_energy">    -35.07670793 </i>
   </energy>
  </scstep>
  <scstep>
   <time name="total">    0.26    0.37</time>
   <energy>
    <i name="e_fr_energy">    -35.23562923 </i>
    <i name="e_wo_entrp">    -35.23562923 </i>
    <i name="e_0_energy">    -35.23562923 </i>
   </energy>
  </scstep>
  <scstep>
   <time name="total">    0.25    0.31</time>
   <energy>
    <i name="e_fr_energy">    -35.24114637 </i>
    <i name="e_wo_entrp">    -35.24114637 </i>
    <i name="e_0_energy">    -35.24114637 </i>
   </energy>
  </scstep>
  <scstep>
   <time name="total">    0.25    0.36</time>
   <energy>
    <i name="e_fr_energy">    -35.24214099 </i>
    <i name="e_wo_entrp">    -35.24214099 </i>
    <i name="e_0_energy">    -35.24214099 </i>
   </energy>
  </scstep>
  <scstep>
   <time name="total">    0.22    0.30</time>
   <energy>
    <i name="e_fr_energy">    -35.24229555 </i>
    <i name="e_wo_entrp">    -35.24229555 </i>
    <i name="e_0_energy">    -35.24229555 </i>
   </energy>
  </scstep>
  <scstep>
   <time name="total">    0.23    0.32</time>
   <energy>
    <i name="e_fr_energy">    -35.24231569 </i>
    <i name="e_wo_entrp">    -35.24231569 </i>
    <i name="e_0_energy">    -35.24231569 </i>
   </energy>
  </scstep>
  <scstep>
   <time name="total">    0.26    0.34</time>
   <energy>
    <i name="e_fr_energy">    -35.24231858 </i>
    <i name="e_wo_entrp">    -35.24231858 </i>
    <i name="e_0_energy">    -35.24231858 </i>
   </energy>
  </scstep>
  <scstep>
   <time name="total">    0.25    0.33</time>
   <energy>
    <i name="e_fr_energy">    -35.24231903 </i>
    <i name="e_wo_entrp">    -35.24231903 </i>
    <i name="e_0_energy">    -35.24231903 </i>
   </energy>
  </scstep>
  <scstep>
   <time name="total">    0.69    0.70</time>
   <energy>
    <i name="e_fr_energy">     -1.23978208 </i>
    <i name="e_wo_entrp">     -1.23978208 </i>
    <i name="e_0_energy">     -1.23978208 </i>
   </energy>
  </scstep>
  <scstep>
   <time name="total">    0.64    0.64</time>
   <energy>
    <i name="e_fr_energy">     -1.30494108 </i>
    <i name="e_wo_entrp">     -1.30494108 </i>
    <i name="e_0_energy">     -1.30494108 </i>
   </energy>
  </scstep>
  <scstep>
   <time name="total">    0.64    0.64</time>
   <energy>
    <i name="e_fr_energy">     -1.30572188 </i>
    <i name="e_wo_entrp">     -1.30572188 </i>
    <i name="e_0_energy">     -1.30572188 </i>
   </energy>
  </scstep>
  <scstep>
   <time name="total">    0.64    0.64</time>
   <energy>
    <i name="e_fr_energy">     -1.30578886 </i>
    <i name="e_wo_entrp">     -1.30578886 </i>
    <i name="e_0_energy">     -1.30578886 </i>
   </energy>
  </scstep>
  <scstep>
   <time name="total">    0.64    0.64</time>
   <energy>
    <i name="e_fr_energy">     -1.30579272 </i>
    <i name="e_wo_entrp">     -1.30579272 </i>
    <i name="e_0_energy">     -1.30579272 </i>
   </energy>
  </scstep>
  <scstep>
   <time name="total">    0.64    0.64</time>
   <energy>
    <i name="e_fr_energy">     -1.30579320 </i>
    <i name="e_wo_entrp">     -1.30579320 </i>
    <i name="e_0_energy">     -1.30579320 </i>
   </energy>
  </scstep>
  <scstep>
   <time name="total">    0.66    0.66</time>
   <energy>
    <i name="e_fr_energy">     -1.37722596 </i>
    <i name="e_wo_entrp">     -1.37722596 </i>
    <i name="e_0_energy">     -1.37722596 </i>
   </energy>
  </scstep>
  <scstep>
   <time name="total">    0.62    0.62</time>
   <energy>
    <i name="e_fr_energy">     -1.43478462 </i>
    <i name="e_wo_entrp">     -1.43478462 </i>
    <i name="e_0_energy">     -1.43478462 </i>
   </energy>
  </scstep>
  <scstep>
   <time name="total">    0.65    0.65</time>
   <energy>
    <i name="e_fr_energy">     -1.43574328 </i>
    <i name="e_wo_entrp">     -1.43574328 </i>
    <i name="e_0_energy">     -1.43574328 </i>
   </energy>
  </scstep>
  <scstep>
   <time name="total">    0.65    0.65</time>
   <energy>
    <i name="e_fr_energy">     -1.43581937 </i>
    <i name="e_wo_entrp">     -1.43581937 </i>
    <i name="e_0_energy">     -1.43581937 </i>
   </energy>
  </scstep>
  <scstep>
   <time name="total">    0.64    0.64</time>
   <energy>
    <i name="e_fr_energy">     -1.43582536 </i>
    <i name="e_wo_entrp">     -1.43582536 </i>
    <i name="e_0_energy">     -1.43582536 </i>
   </energy>
  </scstep>
  <scstep>
   <time name="total">    0.65    0.65</time>
   <energy>
    <i name="e_fr_energy">     -1.43582601 </i>
    <i name="e_wo_entrp">     -1.43582601 </i>
    <i name="e_0_energy">     -1.43582601 </i>
   </energy>
  </scstep>
  <scstep>
   <time name="total">    0.67    0.67</time>
   <energy>
    <i name="e_fr_energy">     -0.50557935 </i>
    <i name="e_wo_entrp">     -0.50557935 </i>
    <i name="e_0_energy">     -0.50557935 </i>
   </energy>
  </scstep>
  <scstep>
   <time name="total">    0.62    0.62</time>
   <energy>
    <i name="e_fr_energy">     -0.55658142 </i>
    <i name="e_wo_entrp">     -0.55658142 </i>
    <i name="e_0_energy">     -0.55658142 </i>
   </energy>
  </scstep>
  <scstep>
   <time name="total">    0.63    0.63</time>
   <energy>
    <i name="e_fr_energy">     -0.55701183 </i>
    <i name="e_wo_entrp">     -0.55701183 </i>
    <i name="e_0_energy">     -0.55701183 </i>
   </energy>
  </scstep>
  <scstep>
   <time name="total">    0.65    0.65</time>
   <energy>
    <i name="e_fr_energy">     -0.55703825 </i>
    <i name="e_wo_entrp">     -0.55703825 </i>
    <i name="e_0_energy">     -0.55703825 </i>
   </energy>
  </scstep>
  <scstep>
   <time name="total">    0.66    0.66</time>
   <energy>
    <i name="e_fr_energy">     -0.55703991 </i>
    <i name="e_wo_entrp">     -0.55703991 </i>
    <i name="e_0_energy">     -0.55703991 </i>
   </energy>
  </scstep>
  <scstep>
   <time name="total">    0.68    0.68</time>
   <energy>
    <i name="e_fr_energy">     -0.55704012 </i>
    <i name="e_wo_entrp">     -0.55704012 </i>
    <i name="e_0_energy">     -0.55704012 </i>
   </energy>
  </scstep>
  <varray name="dielectric_ipa" >
   <v>       3.21545733       0.00000000       0.00000000 </v>
   <v>      -0.00000000       3.21545733       0.00000000 </v>
   <v>       0.00000000      -0.00000000       1.90026975 </v>
  </varray>
  <kpoints>
   <generation param="Gamma">
    <v type="int" name="divisions">      14       14        1 </v>
    <v name="usershift">      0.00000000       0.00000000       0.00000000 </v>
    <v name="genvec1">      0.07142857       0.00000000       0.00000000 </v>
    <v name="genvec2">      0.00000000       0.07142857       0.00000000 </v>
    <v name="genvec3">      0.00000000       0.00000000       1.00000000 </v>
    <v name="shift">      0.00000000       0.00000000       0.00000000 </v>
   </generation>
   <varray name="kpointlist" >
    <v>       0.00000000       0.00000000       0.00000000 </v>
    <v>       0.07142857       0.00000000       0.00000000 </v>
    <v>       0.00000000       0.07142857       0.00000000 </v>
    <v>       0.14285714      -0.00000000       0.00000000 </v>
    <v>       0.00000000       0.14285714       0.00000000 </v>
    <v>       0.21428571       0.00000000       0.00000000 </v>
    <v>       0.00000000       0.21428571       0.00000000 </v>
    <v>       0.28571429      -0.00000000       0.00000000 </v>
    <v>       0.00000000       0.28571429       0.00000000 </v>
    <v>       0.35714286       0.00000000       0.00000000 </v>
    <v>       0.00000000       0.35714286       0.00000000 </v>
    <v>       0.42857143       0.00000000       0.00000000 </v>
    <v>       0.00000000       0.42857143       0.00000000 </v>
    <v>       0.50000000       0.00000000       0.00000000 </v>
    <v>       0.00000000       0.50000000       0.00000000 </v>
    <v>       0.07142857       0.07142857       0.00000000 </v>
    <v>      -0.14285714       0.07142857       0.00000000 </v>
    <v>       0.14285714       0.07142857       0.00000000 </v>
    <v>      -0.07142857       0.21428571       0.00000000 </v>
    <v>      -0.21428571       0.14285714       0.00000000 </v>
    <v>       0.21428571       0.07142857       0.00000000 </v>
    <v>      -0.07142857       0.28571429       0.00000000 </v>
    <v>      -0.28571429       0.21428571       0.00000000 </v>
    <v>       0.28571429       0.07142857       0.00000000 </v>
    <v>      -0.07142857       0.35714286       0.00000000 </v>
    <v>      -0.35714286       0.28571429       0.00000000 </v>
    <v>       0.35714286       0.07142857       0.00000000 </v>
    <v>      -0.07142857       0.42857143       0.00000000 </v>
    <v>      -0.42857143       0.35714286       0.00000000 </v>
    <v>       0.42857143       0.07142857       0.00000000 </v>
    <v>      -0.07142857       0.50000000       0.00000000 </v>
    <v>       0.50000000       0.42857143       0.00000000 </v>
    <v>       0.14285714       0.14285714       0.00000000 </v>
    <v>      -0.28571429       0.14285714       0.00000000 </v>
    <v>       0.21428571       0.14285714       0.00000000 </v>
    <v>      -0.14285714       0.35714286       0.00000000 </v>
    <v>      -0.35714286       0.21428571       0.00000000 </v>
    <v>       0.28571429       0.14285714       0.00000000 </v>
    <v>      -0.14285714       0.42857143       0.00000000 </v>
    <v>      -0.42857143       0.28571429       0.00000000 </v>
    <v>       0.35714286       0.14285714       0.00000000 </v>
    <v>      -0.14285714       0.50000000       0.00000000 </v>
    <v>       0.50000000       0.35714286       0.00000000 </v>
    <v>       0.42857143       0.14285714       0.00000000 </v>
    <v>      -0.14285714      -0.42857143       0.00000000 </v>
    <v>       0.21428571       0.21428571       0.00000000 </v>
    <v>      -0.42857143       0.21428571       0.00000000 </v>
    <v>       0.28571429       0.21428571       0.00000000 </v>
    <v>      -0.21428571       0.50000000       0.00000000 </v>
    <v>       0.50000000       0.28571429       0.00000000 </v>
    <v>       0.35714286       0.21428571       0.00000000 </v>
    <v>      -0.21428571      -0.42857143       0.00000000 </v>
    <v>       0.42857143       0.35714286       0.00000000 </v>
    <v>       0.28571429       0.28571429       0.00000000 </v>
    <v>       0.42857143       0.28571429       0.00000000 </v>
    <v>       0.35714286       0.28571429       0.00000000 </v>
    <v>      -0.28571429      -0.35714286       0.00000000 </v>
   </varray>
   <varray name="weights" >
    <v>       0.00510204 </v>
    <v>       0.02040816 </v>
    <v>       0.01020408 </v>
    <v>       0.02040816 </v>
    <v>       0.01020408 </v>
    <v>       0.02040816 </v>
    <v>       0.01020408 </v>
    <v>       0.02040816 </v>
    <v>       0.01020408 </v>
    <v>       0.02040816 </v>
    <v>       0.01020408 </v>
    <v>       0.02040816 </v>
    <v>       0.01020408 </v>
    <v>       0.01020408 </v>
    <v>       0.00510204 </v>
    <v>       0.02040816 </v>
    <v>       0.01020408 </v>
    <v>       0.02040816 </v>
    <v>       0.02040816 </v>
    <v>       0.02040816 </v>
    <v>       0.02040816 </v>
    <v>       0.02040816 </v>
    <v>       0.02040816 </v>
    <v>       0.02040816 </v>
    <v>       0.02040816 </v>
    <v>       0.02040816 </v>
    <v>       0.02040816 </v>
    <v>       0.02040816 </v>
    <v>       0.02040816 </v>
    <v>       0.02040816 </v>
    <v>       0.02040816 </v>
    <v>       0.02040816 </v>
    <v>       0.02040816 </v>
    <v>       0.01020408 </v>
    <v>       0.02040816 </v>
    <v>       0.02040816 </v>
    <v>       0.02040816 </v>
    <v>       0.02040816 </v>
    <v>       0.02040816 </v>
    <v>       0.02040816 </v>
    <v>       0.02040816 </v>
    <v>       0.02040816 </v>
    <v>       0.02040816 </v>
    <v>       0.02040816 </v>
    <v>       0.01020408 </v>
    <v>       0.02040816 </v>
    <v>       0.01020408 </v>
    <v>       0.02040816 </v>
    <v>       0.02040816 </v>
    <v>       0.02040816 </v>
    <v>       0.02040816 </v>
    <v>       0.02040816 </v>
    <v>       0.02040816 </v>
    <v>       0.02040816 </v>
    <v>       0.01020408 </v>
    <v>       0.02040816 </v>
    <v>       0.01020408 </v>
   </varray>
  </kpoints>
  <scstep>
   <time name="total">    1.07    1.07</time>
   <energy>
    <i name="e_fr_energy">     -1.30634813 </i>
    <i name="e_wo_entrp">     -1.30634813 </i>
    <i name="e_0_energy">     -1.30634813 </i>
   </energy>
  </scstep>
  <scstep>
   <time name="total">    1.07    1.07</time>
   <energy>
    <i name="e_fr_energy">     -1.36984860 </i>
    <i name="e_wo_entrp">     -1.36984860 </i>
    <i name="e_0_energy">     -1.36984860 </i>
   </energy>
  </scstep>
  <scstep>
   <time name="total">    1.07    1.07</time>
   <energy>
    <i name="e_fr_energy">     -1.34159064 </i>
    <i name="e_wo_entrp">     -1.34159064 </i>
    <i name="e_0_energy">     -1.34159064 </i>
   </energy>
  </scstep>
  <scstep>
   <time name="total">    1.07    1.07</time>
   <energy>
    <i name="e_fr_energy">     -1.34766850 </i>
    <i name="e_wo_entrp">     -1.34766850 </i>
    <i name="e_0_energy">     -1.34766850 </i>
   </energy>
  </scstep>
  <scstep>
   <time name="total">    1.06    1.06</time>
   <energy>
    <i name="e_fr_energy">     -1.36127211 </i>
    <i name="e_wo_entrp">     -1.36127211 </i>
    <i name="e_0_energy">     -1.36127211 </i>
   </energy>
  </scstep>
  <scstep>
   <time name="total">    1.08    1.08</time>
   <energy>
    <i name="e_fr_energy">     -1.36720929 </i>
    <i name="e_wo_entrp">     -1.36720929 </i>
    <i name="e_0_energy">     -1.36720929 </i>
   </energy>
  </scstep>
  <scstep>
   <time name="total">    1.09    1.09</time>
   <energy>
    <i name="e_fr_energy">     -1.36752171 </i>
    <i name="e_wo_entrp">     -1.36752171 </i>
    <i name="e_0_energy">     -1.36752171 </i>
   </energy>
  </scstep>
  <scstep>
   <time name="total">    1.08    1.08</time>
   <energy>
    <i name="e_fr_energy">     -1.36871686 </i>
    <i name="e_wo_entrp">     -1.36871686 </i>
    <i name="e_0_energy">     -1.36871686 </i>
   </energy>
  </scstep>
  <scstep>
   <time name="total">    1.09    1.09</time>
   <energy>
    <i name="e_fr_energy">     -1.36900880 </i>
    <i name="e_wo_entrp">     -1.36900880 </i>
    <i name="e_0_energy">     -1.36900880 </i>
   </energy>
  </scstep>
  <scstep>
   <time name="total">    1.09    1.09</time>
   <energy>
    <i name="e_fr_energy">     -1.36893474 </i>
    <i name="e_wo_entrp">     -1.36893474 </i>
    <i name="e_0_energy">     -1.36893474 </i>
   </energy>
  </scstep>
  <scstep>
   <time name="total">    1.08    1.08</time>
   <energy>
    <i name="e_fr_energy">     -1.36897432 </i>
    <i name="e_wo_entrp">     -1.36897432 </i>
    <i name="e_0_energy">     -1.36897432 </i>
   </energy>
  </scstep>
  <scstep>
   <time name="total">    1.08    1.14</time>
   <energy>
    <i name="e_fr_energy">     -1.36898585 </i>
    <i name="e_wo_entrp">     -1.36898585 </i>
    <i name="e_0_energy">     -1.36898585 </i>
   </energy>
  </scstep>
  <scstep>
   <time name="total">    1.09    1.09</time>
   <energy>
    <i name="e_fr_energy">     -1.36898755 </i>
    <i name="e_wo_entrp">     -1.36898755 </i>
    <i name="e_0_energy">     -1.36898755 </i>
   </energy>
  </scstep>
  <scstep>
   <time name="total">    1.09    1.09</time>
   <energy>
    <i name="e_fr_energy">     -1.36898785 </i>
    <i name="e_wo_entrp">     -1.36898785 </i>
    <i name="e_0_energy">     -1.36898785 </i>
   </energy>
  </scstep>
  <kpoints>
   <generation param="Gamma">
    <v type="int" name="divisions">      14       14        1 </v>
    <v name="usershift">      0.00000000       0.00000000       0.00000000 </v>
    <v name="genvec1">      0.07142857       0.00000000       0.00000000 </v>
    <v name="genvec2">      0.00000000       0.07142857       0.00000000 </v>
    <v name="genvec3">      0.00000000       0.00000000       1.00000000 </v>
    <v name="shift">      0.00000000       0.00000000       0.00000000 </v>
   </generation>
   <varray name="kpointlist" >
    <v>       0.00000000       0.00000000       0.00000000 </v>
    <v>       0.07142857       0.00000000       0.00000000 </v>
    <v>       0.00000000       0.07142857       0.00000000 </v>
    <v>       0.14285714      -0.00000000       0.00000000 </v>
    <v>       0.00000000       0.14285714       0.00000000 </v>
    <v>       0.21428571       0.00000000       0.00000000 </v>
    <v>       0.00000000       0.21428571       0.00000000 </v>
    <v>       0.28571429      -0.00000000       0.00000000 </v>
    <v>       0.00000000       0.28571429       0.00000000 </v>
    <v>       0.35714286       0.00000000       0.00000000 </v>
    <v>       0.00000000       0.35714286       0.00000000 </v>
    <v>       0.42857143       0.00000000       0.00000000 </v>
    <v>       0.00000000       0.42857143       0.00000000 </v>
    <v>       0.50000000       0.00000000       0.00000000 </v>
    <v>       0.00000000       0.50000000       0.00000000 </v>
    <v>       0.07142857       0.07142857       0.00000000 </v>
    <v>      -0.14285714       0.07142857       0.00000000 </v>
    <v>       0.14285714       0.07142857       0.00000000 </v>
    <v>      -0.07142857       0.21428571       0.00000000 </v>
    <v>      -0.21428571       0.14285714       0.00000000 </v>
    <v>       0.21428571       0.07142857       0.00000000 </v>
    <v>      -0.07142857       0.28571429       0.00000000 </v>
    <v>      -0.28571429       0.21428571       0.00000000 </v>
    <v>       0.28571429       0.07142857       0.00000000 </v>
    <v>      -0.07142857       0.35714286       0.00000000 </v>
    <v>      -0.35714286       0.28571429       0.00000000 </v>
    <v>       0.35714286       0.07142857       0.00000000 </v>
    <v>      -0.07142857       0.42857143       0.00000000 </v>
    <v>      -0.42857143       0.35714286       0.00000000 </v>
    <v>       0.42857143       0.07142857       0.00000000 </v>
    <v>      -0.07142857       0.50000000       0.00000000 </v>
    <v>       0.50000000       0.42857143       0.00000000 </v>
    <v>       0.14285714       0.14285714       0.00000000 </v>
    <v>      -0.28571429       0.14285714       0.00000000 </v>
    <v>       0.21428571       0.14285714       0.00000000 </v>
    <v>      -0.14285714       0.35714286       0.00000000 </v>
    <v>      -0.35714286       0.21428571       0.00000000 </v>
    <v>       0.28571429       0.14285714       0.00000000 </v>
    <v>      -0.14285714       0.42857143       0.00000000 </v>
    <v>      -0.42857143       0.28571429       0.00000000 </v>
    <v>       0.35714286       0.14285714       0.00000000 </v>
    <v>      -0.14285714       0.50000000       0.00000000 </v>
    <v>       0.50000000       0.35714286       0.00000000 </v>
    <v>       0.42857143       0.14285714       0.00000000 </v>
    <v>      -0.14285714      -0.42857143       0.00000000 </v>
    <v>       0.21428571       0.21428571       0.00000000 </v>
    <v>      -0.42857143       0.21428571       0.00000000 </v>
    <v>       0.28571429       0.21428571       0.00000000 </v>
    <v>      -0.21428571       0.50000000       0.00000000 </v>
    <v>       0.50000000       0.28571429       0.00000000 </v>
    <v>       0.35714286       0.21428571       0.00000000 </v>
    <v>      -0.21428571      -0.42857143       0.00000000 </v>
    <v>       0.42857143       0.35714286       0.00000000 </v>
    <v>       0.28571429       0.28571429       0.00000000 </v>
    <v>       0.42857143       0.28571429       0.00000000 </v>
    <v>       0.35714286       0.28571429       0.00000000 </v>
    <v>      -0.28571429      -0.35714286       0.00000000 </v>
   </varray>
   <varray name="weights" >
    <v>       0.00510204 </v>
    <v>       0.02040816 </v>
    <v>       0.01020408 </v>
    <v>       0.02040816 </v>
    <v>       0.01020408 </v>
    <v>       0.02040816 </v>
    <v>       0.01020408 </v>
    <v>       0.02040816 </v>
    <v>       0.01020408 </v>
    <v>       0.02040816 </v>
    <v>       0.01020408 </v>
    <v>       0.02040816 </v>
    <v>       0.01020408 </v>
    <v>       0.01020408 </v>
    <v>       0.00510204 </v>
    <v>       0.02040816 </v>
    <v>       0.01020408 </v>
    <v>       0.02040816 </v>
    <v>       0.02040816 </v>
    <v>       0.02040816 </v>
    <v>       0.02040816 </v>
    <v>       0.02040816 </v>
    <v>       0.02040816 </v>
    <v>       0.02040816 </v>
    <v>       0.02040816 </v>
    <v>       0.02040816 </v>
    <v>       0.02040816 </v>
    <v>       0.02040816 </v>
    <v>       0.02040816 </v>
    <v>       0.02040816 </v>
    <v>       0.02040816 </v>
    <v>       0.02040816 </v>
    <v>       0.02040816 </v>
    <v>       0.01020408 </v>
    <v>       0.02040816 </v>
    <v>       0.02040816 </v>
    <v>       0.02040816 </v>
    <v>       0.02040816 </v>
    <v>       0.02040816 </v>
    <v>       0.02040816 </v>
    <v>       0.02040816 </v>
    <v>       0.02040816 </v>
    <v>       0.02040816 </v>
    <v>       0.02040816 </v>
    <v>       0.01020408 </v>
    <v>       0.02040816 </v>
    <v>       0.01020408 </v>
    <v>       0.02040816 </v>
    <v>       0.02040816 </v>
    <v>       0.02040816 </v>
    <v>       0.02040816 </v>
    <v>       0.02040816 </v>
    <v>       0.02040816 </v>
    <v>       0.02040816 </v>
    <v>       0.01020408 </v>
    <v>       0.02040816 </v>
    <v>       0.01020408 </v>
   </varray>
  </kpoints>
  <scstep>
   <time name="total">    1.04    1.04</time>
   <energy>
    <i name="e_fr_energy">     -1.30504615 </i>
    <i name="e_wo_entrp">     -1.30504615 </i>
    <i name="e_0_energy">     -1.30504615 </i>
   </energy>
  </scstep>
  <scstep>
   <time name="total">    1.06    1.06</time>
   <energy>
    <i name="e_fr_energy">     -1.36980051 </i>
    <i name="e_wo_entrp">     -1.36980051 </i>
    <i name="e_0_energy">     -1.36980051 </i>
   </energy>
  </scstep>
  <scstep>
   <time name="total">    1.09    1.09</time>
   <energy>
    <i name="e_fr_energy">     -1.34159317 </i>
    <i name="e_wo_entrp">     -1.34159317 </i>
    <i name="e_0_energy">     -1.34159317 </i>
   </energy>
  </scstep>
  <scstep>
   <time name="total">    1.09    1.10</time>
   <energy>
    <i name="e_fr_energy">     -1.34779469 </i>
    <i name="e_wo_entrp">     -1.34779469 </i>
    <i name="e_0_energy">     -1.34779469 </i>
   </energy>
  </scstep>
  <scstep>
   <time name="total">    1.10    1.10</time>
   <energy>
    <i name="e_fr_energy">     -1.36075136 </i>
    <i name="e_wo_entrp">     -1.36075136 </i>
    <i name="e_0_energy">     -1.36075136 </i>
   </energy>
  </scstep>
  <scstep>
   <time name="total">    1.10    1.10</time>
   <energy>
    <i name="e_fr_energy">     -1.36722796 </i>
    <i name="e_wo_entrp">     -1.36722796 </i>
    <i name="e_0_energy">     -1.36722796 </i>
   </energy>
  </scstep>
  <scstep>
   <time name="total">    1.09    1.10</time>
   <energy>
    <i name="e_fr_energy">     -1.36754463 </i>
    <i name="e_wo_entrp">     -1.36754463 </i>
    <i name="e_0_energy">     -1.36754463 </i>
   </energy>
  </scstep>
  <scstep>
   <time name="total">    1.09    1.09</time>
   <energy>
    <i name="e_fr_energy">     -1.36870212 </i>
    <i name="e_wo_entrp">     -1.36870212 </i>
    <i name="e_0_energy">     -1.36870212 </i>
   </energy>
  </scstep>
  <scstep>
   <time name="total">    1.09    1.09</time>
   <energy>
    <i name="e_fr_energy">     -1.36890801 </i>
    <i name="e_wo_entrp">     -1.36890801 </i>
    <i name="e_0_energy">     -1.36890801 </i>
   </energy>
  </scstep>
  <scstep>
   <time name="total">    1.10    1.10</time>
   <energy>
    <i name="e_fr_energy">     -1.36879972 </i>
    <i name="e_wo_entrp">     -1.36879972 </i>
    <i name="e_0_energy">     -1.36879972 </i>
   </energy>
  </scstep>
  <scstep>
   <time name="total">    1.11    1.11</time>
   <energy>
    <i name="e_fr_energy">     -1.36897728 </i>
    <i name="e_wo_entrp">     -1.36897728 </i>
    <i name="e_0_energy">     -1.36897728 </i>
   </energy>
  </scstep>
  <scstep>
   <time name="total">    1.10    1.10</time>
   <energy>
    <i name="e_fr_energy">     -1.36897078 </i>
    <i name="e_wo_entrp">     -1.36897078 </i>
    <i name="e_0_energy">     -1.36897078 </i>
   </energy>
  </scstep>
  <scstep>
   <time name="total">    1.10    1.10</time>
   <energy>
    <i name="e_fr_energy">     -1.36898282 </i>
    <i name="e_wo_entrp">     -1.36898282 </i>
    <i name="e_0_energy">     -1.36898282 </i>
   </energy>
  </scstep>
  <scstep>
   <time name="total">    1.09    1.09</time>
   <energy>
    <i name="e_fr_energy">     -1.36899187 </i>
    <i name="e_wo_entrp">     -1.36899187 </i>
    <i name="e_0_energy">     -1.36899187 </i>
   </energy>
  </scstep>
  <scstep>
   <time name="total">    1.08    1.08</time>
   <energy>
    <i name="e_fr_energy">     -1.36899345 </i>
    <i name="e_wo_entrp">     -1.36899345 </i>
    <i name="e_0_energy">     -1.36899345 </i>
   </energy>
  </scstep>
  <scstep>
   <time name="total">    1.09    1.09</time>
   <energy>
    <i name="e_fr_energy">     -1.36899205 </i>
    <i name="e_wo_entrp">     -1.36899205 </i>
    <i name="e_0_energy">     -1.36899205 </i>
   </energy>
  </scstep>
  <kpoints>
   <generation param="Gamma">
    <v type="int" name="divisions">      14       14        1 </v>
    <v name="usershift">      0.00000000       0.00000000       0.00000000 </v>
    <v name="genvec1">      0.07142857       0.00000000       0.00000000 </v>
    <v name="genvec2">      0.00000000       0.07142857       0.00000000 </v>
    <v name="genvec3">      0.00000000       0.00000000       1.00000000 </v>
    <v name="shift">      0.00000000       0.00000000       0.00000000 </v>
   </generation>
   <varray name="kpointlist" >
    <v>       0.00000000       0.00000000       0.00000000 </v>
    <v>       0.07142857       0.00000000       0.00000000 </v>
    <v>       0.14285714      -0.00000000       0.00000000 </v>
    <v>       0.21428571       0.00000000       0.00000000 </v>
    <v>       0.28571429      -0.00000000       0.00000000 </v>
    <v>       0.35714286       0.00000000       0.00000000 </v>
    <v>       0.42857143       0.00000000       0.00000000 </v>
    <v>       0.50000000       0.00000000       0.00000000 </v>
    <v>       0.07142857       0.07142857       0.00000000 </v>
    <v>       0.14285714       0.07142857       0.00000000 </v>
    <v>       0.21428571       0.07142857       0.00000000 </v>
    <v>       0.28571429       0.07142857       0.00000000 </v>
    <v>       0.35714286       0.07142857       0.00000000 </v>
    <v>       0.42857143       0.07142857       0.00000000 </v>
    <v>       0.14285714       0.14285714       0.00000000 </v>
    <v>       0.21428571       0.14285714       0.00000000 </v>
    <v>       0.28571429       0.14285714       0.00000000 </v>
    <v>       0.35714286       0.14285714       0.00000000 </v>
    <v>       0.42857143       0.14285714       0.00000000 </v>
    <v>       0.21428571       0.21428571       0.00000000 </v>
    <v>       0.28571429       0.21428571       0.00000000 </v>
    <v>       0.35714286       0.21428571       0.00000000 </v>
    <v>       0.28571429       0.28571429       0.00000000 </v>
    <v>       0.35714286       0.28571429       0.00000000 </v>
   </varray>
   <varray name="weights" >
    <v>       0.00510204 </v>
    <v>       0.03061224 </v>
    <v>       0.03061224 </v>
    <v>       0.03061224 </v>
    <v>       0.03061224 </v>
    <v>       0.03061224 </v>
    <v>       0.03061224 </v>
    <v>       0.01530612 </v>
    <v>       0.03061224 </v>
    <v>       0.06122449 </v>
    <v>       0.06122449 </v>
    <v>       0.06122449 </v>
    <v>       0.06122449 </v>
    <v>       0.06122449 </v>
    <v>       0.03061224 </v>
    <v>       0.06122449 </v>
    <v>       0.06122449 </v>
    <v>       0.06122449 </v>
    <v>       0.03061224 </v>
    <v>       0.03061224 </v>
    <v>       0.06122449 </v>
    <v>       0.06122449 </v>
    <v>       0.03061224 </v>
    <v>       0.03061224 </v>
   </varray>
  </kpoints>
  <scstep>
   <time name="total">    0.66    0.66</time>
   <energy>
    <i name="e_fr_energy">     -0.50557935 </i>
    <i name="e_wo_entrp">     -0.50557935 </i>
    <i name="e_0_energy">     -0.50557935 </i>
   </energy>
  </scstep>
  <scstep>
   <time name="total">    0.66    0.66</time>
   <energy>
    <i name="e_fr_energy">     -0.55658142 </i>
    <i name="e_wo_entrp">     -0.55658142 </i>
    <i name="e_0_energy">     -0.55658142 </i>
   </energy>
  </scstep>
  <scstep>
   <time name="total">    0.69    0.69</time>
   <energy>
    <i name="e_fr_energy">     -0.18188595 </i>
    <i name="e_wo_entrp">     -0.18188595 </i>
    <i name="e_0_energy">     -0.18188595 </i>
   </energy>
  </scstep>
  <scstep>
   <time name="total">    0.67    0.67</time>
   <energy>
    <i name="e_fr_energy">     -0.12404217 </i>
    <i name="e_wo_entrp">     -0.12404217 </i>
    <i name="e_0_energy">     -0.12404217 </i>
   </energy>
  </scstep>
  <scstep>
   <time name="total">    0.68    0.68</time>
   <energy>
    <i name="e_fr_energy">     -0.12012488 </i>
    <i name="e_wo_entrp">     -0.12012488 </i>
    <i name="e_0_energy">     -0.12012488 </i>
   </energy>
  </scstep>
  <scstep>
   <time name="total">    0.66    0.73</time>
   <energy>
    <i name="e_fr_energy">     -0.12025426 </i>
    <i name="e_wo_entrp">     -0.12025426 </i>
    <i name="e_0_energy">     -0.12025426 </i>
   </energy>
  </scstep>
  <scstep>
   <time name="total">    0.67    0.67</time>
   <energy>
    <i name="e_fr_energy">     -0.12061577 </i>
    <i name="e_wo_entrp">     -0.12061577 </i>
    <i name="e_0_energy">     -0.12061577 </i>
   </energy>
  </scstep>
  <scstep>
   <time name="total">    0.67    0.67</time>
   <energy>
    <i name="e_fr_energy">     -0.12077559 </i>
    <i name="e_wo_entrp">     -0.12077559 </i>
    <i name="e_0_energy">     -0.12077559 </i>
   </energy>
  </scstep>
  <scstep>
   <time name="total">    0.68    0.68</time>
   <energy>
    <i name="e_fr_energy">     -0.12080141 </i>
    <i name="e_wo_entrp">     -0.12080141 </i>
    <i name="e_0_energy">     -0.12080141 </i>
   </energy>
  </scstep>
  <scstep>
   <time name="total">    0.68    0.68</time>
   <energy>
    <i name="e_fr_energy">     -0.12082812 </i>
    <i name="e_wo_entrp">     -0.12082812 </i>
    <i name="e_0_energy">     -0.12082812 </i>
   </energy>
  </scstep>
  <scstep>
   <time name="total">    0.67    0.67</time>
   <energy>
    <i name="e_fr_energy">     -0.12082946 </i>
    <i name="e_wo_entrp">     -0.12082946 </i>
    <i name="e_0_energy">     -0.12082946 </i>
   </energy>
  </scstep>
  <scstep>
   <time name="total">    0.69    0.69</time>
   <energy>
    <i name="e_fr_energy">     -0.12083024 </i>
    <i name="e_wo_entrp">     -0.12083024 </i>
    <i name="e_0_energy">     -0.12083024 </i>
   </energy>
  </scstep>
  <kpoints>
   <generation param="Gamma">
    <v type="int" name="divisions">      14       14        1 </v>
    <v name="usershift">      0.00000000       0.00000000       0.00000000 </v>
    <v name="genvec1">      0.07142857       0.00000000       0.00000000 </v>
    <v name="genvec2">      0.00000000       0.07142857       0.00000000 </v>
    <v name="genvec3">      0.00000000       0.00000000       1.00000000 </v>
    <v name="shift">      0.00000000       0.00000000       0.00000000 </v>
   </generation>
   <varray name="kpointlist" >
    <v>       0.00000000       0.00000000       0.00000000 </v>
    <v>       0.07142857       0.00000000       0.00000000 </v>
    <v>       0.14285714      -0.00000000       0.00000000 </v>
    <v>       0.21428571       0.00000000       0.00000000 </v>
    <v>       0.28571429      -0.00000000       0.00000000 </v>
    <v>       0.35714286       0.00000000       0.00000000 </v>
    <v>       0.42857143       0.00000000       0.00000000 </v>
    <v>       0.50000000       0.00000000       0.00000000 </v>
    <v>       0.07142857       0.07142857       0.00000000 </v>
    <v>       0.14285714       0.07142857       0.00000000 </v>
    <v>       0.21428571       0.07142857       0.00000000 </v>
    <v>       0.28571429       0.07142857       0.00000000 </v>
    <v>       0.35714286       0.07142857       0.00000000 </v>
    <v>       0.42857143       0.07142857       0.00000000 </v>
    <v>       0.14285714       0.14285714       0.00000000 </v>
    <v>       0.21428571       0.14285714       0.00000000 </v>
    <v>       0.28571429       0.14285714       0.00000000 </v>
    <v>       0.35714286       0.14285714       0.00000000 </v>
    <v>       0.42857143       0.14285714       0.00000000 </v>
    <v>       0.21428571       0.21428571       0.00000000 </v>
    <v>       0.28571429       0.21428571       0.00000000 </v>
    <v>       0.35714286       0.21428571       0.00000000 </v>
    <v>       0.28571429       0.28571429       0.00000000 </v>
    <v>       0.35714286       0.28571429       0.00000000 </v>
   </varray>
   <varray name="weights" >
    <v>       0.00510204 </v>
    <v>       0.03061224 </v>
    <v>       0.03061224 </v>
    <v>       0.03061224 </v>
    <v>       0.03061224 </v>
    <v>       0.03061224 </v>
    <v>       0.03061224 </v>
    <v>       0.01530612 </v>
    <v>       0.03061224 </v>
    <v>       0.06122449 </v>
    <v>       0.06122449 </v>
    <v>       0.06122449 </v>
    <v>       0.06122449 </v>
    <v>       0.06122449 </v>
    <v>       0.03061224 </v>
    <v>       0.06122449 </v>
    <v>       0.06122449 </v>
    <v>       0.06122449 </v>
    <v>       0.03061224 </v>
    <v>       0.03061224 </v>
    <v>       0.06122449 </v>
    <v>       0.06122449 </v>
    <v>       0.03061224 </v>
    <v>       0.03061224 </v>
   </varray>
  </kpoints>
  <varray name="dielectric_dft" >
   <v>       3.04415355       0.00000000      -0.00000000 </v>
   <v>      -0.00000000       3.04415355       0.00000000 </v>
   <v>       0.00000000      -0.00000000       1.18484403 </v>
  </varray>
  <varray name="epsilon" >
   <v>       3.04415355       0.00000000      -0.00000000 </v>
   <v>      -0.00000000       3.04415355       0.00000000 </v>
   <v>       0.00000000      -0.00000000       1.18484403 </v>
  </varray>
  <kpoints>
   <generation param="Gamma">
    <v type="int" name="divisions">      14       14        1 </v>
    <v name="usershift">      0.00000000       0.00000000       0.00000000 </v>
    <v name="genvec1">      0.07142857       0.00000000       0.00000000 </v>
    <v name="genvec2">      0.00000000       0.07142857       0.00000000 </v>
    <v name="genvec3">      0.00000000       0.00000000       1.00000000 </v>
    <v name="shift">      0.00000000       0.00000000       0.00000000 </v>
   </generation>
   <varray name="kpointlist" >
    <v>       0.00000000       0.00000000       0.00000000 </v>
    <v>       0.07142857       0.00000000       0.00000000 </v>
    <v>       0.14285714      -0.00000000       0.00000000 </v>
    <v>       0.21428571       0.00000000       0.00000000 </v>
    <v>       0.28571429      -0.00000000       0.00000000 </v>
    <v>       0.35714286       0.00000000       0.00000000 </v>
    <v>       0.42857143       0.00000000       0.00000000 </v>
    <v>       0.50000000       0.00000000       0.00000000 </v>
    <v>       0.07142857       0.07142857       0.00000000 </v>
    <v>       0.14285714       0.07142857       0.00000000 </v>
    <v>       0.21428571       0.07142857       0.00000000 </v>
    <v>       0.28571429       0.07142857       0.00000000 </v>
    <v>       0.35714286       0.07142857       0.00000000 </v>
    <v>       0.42857143       0.07142857       0.00000000 </v>
    <v>       0.14285714       0.14285714       0.00000000 </v>
    <v>       0.21428571       0.14285714       0.00000000 </v>
    <v>       0.28571429       0.14285714       0.00000000 </v>
    <v>       0.35714286       0.14285714       0.00000000 </v>
    <v>       0.42857143       0.14285714       0.00000000 </v>
    <v>       0.21428571       0.21428571       0.00000000 </v>
    <v>       0.28571429       0.21428571       0.00000000 </v>
    <v>       0.35714286       0.21428571       0.00000000 </v>
    <v>       0.28571429       0.28571429       0.00000000 </v>
    <v>       0.35714286       0.28571429       0.00000000 </v>
   </varray>
   <varray name="weights" >
    <v>       0.00510204 </v>
    <v>       0.03061224 </v>
    <v>       0.03061224 </v>
    <v>       0.03061224 </v>
    <v>       0.03061224 </v>
    <v>       0.03061224 </v>
    <v>       0.03061224 </v>
    <v>       0.01530612 </v>
    <v>       0.03061224 </v>
    <v>       0.06122449 </v>
    <v>       0.06122449 </v>
    <v>       0.06122449 </v>
    <v>       0.06122449 </v>
    <v>       0.06122449 </v>
    <v>       0.03061224 </v>
    <v>       0.06122449 </v>
    <v>       0.06122449 </v>
    <v>       0.06122449 </v>
    <v>       0.03061224 </v>
    <v>       0.03061224 </v>
    <v>       0.06122449 </v>
    <v>       0.06122449 </v>
    <v>       0.03061224 </v>
    <v>       0.03061224 </v>
   </varray>
  </kpoints>
  <array name="born_charges" >
   <dimension dim="1">ion</dimension>
   <set>
    <v>       0.00000000       0.00000000      -0.00000000 </v>
    <v>       0.00000000       0.00000000       0.00000000 </v>
    <v>       0.00000000       0.00000000       0.00000000 </v>
   </set>
   <set>
    <v>       0.00000000       0.00000000       0.00000000 </v>
    <v>      -0.00000000       0.00000000       0.00000000 </v>
    <v>       0.00000000       0.00000000       0.00000000 </v>
   </set>
  </array>
  <time name="totalsc">   67.87   70.72</time>
  <eigenvalues>
   <array>
    <dimension dim="1">band</dimension>
    <dimension dim="2">kpoint</dimension>
    <dimension dim="3">spin</dimension>
    <field>eigene</field>
    <field>occ</field>
    <set>
     <set comment="spin 1">
      <set comment="kpoint 1">
       <r>  -18.4077    1.0000 </r>
       <r>  -10.6936    1.0000 </r>
       <r>   -4.7006    1.0000 </r>
       <r>   -4.4316    1.0000 </r>
       <r>   -4.4316    1.0000 </r>
       <r>   -0.5607    0.0000 </r>
       <r>   -0.4076    0.0000 </r>
       <r>   -0.4076    0.0000 </r>
       <r>    1.0596    0.0000 </r>
       <r>    1.5949    0.0000 </r>
       <r>    2.0965    0.0000 </r>
       <r>    2.3903    0.0000 </r>
       <r>    3.3694    0.0000 </r>
       <r>    3.7489    0.0000 </r>
       <r>    5.2469    0.0000 </r>
       <r>    5.5437    0.0000 </r>
      </set>
      <set comment="kpoint 2">
       <r>  -18.3256    1.0000 </r>
       <r>  -10.6389    1.0000 </r>
       <r>   -5.1126    1.0000 </r>
       <r>   -4.6523    1.0000 </r>
       <r>   -4.6177    1.0000 </r>
       <r>   -0.6551    0.0000 </r>
       <r>   -0.1700    0.0000 </r>
       <r>    0.1175    0.0000 </r>
       <r>    1.1639    0.0000 </r>
       <r>    1.6790    0.0000 </r>
       <r>    2.1842    0.0000 </r>
       <r>    2.4851    0.0000 </r>
       <r>    3.4320    0.0000 </r>
       <r>    3.8416    0.0000 </r>
       <r>    4.8129    0.0000 </r>
       <r>    5.5002    0.0000 </r>
      </set>
      <set comment="kpoint 3">
       <r>  -18.0807    1.0000 </r>
       <r>  -10.4976    1.0000 </r>
       <r>   -6.4399    1.0000 </r>
       <r>   -5.0490    1.0000 </r>
       <r>   -4.5233    1.0000 </r>
       <r>   -1.1901    0.0000 </r>
       <r>    0.3602    0.0000 </r>
       <r>    1.1319    0.0000 </r>
       <r>    1.5008    0.0000 </r>
       <r>    1.9515    0.0000 </r>
       <r>    2.4478    0.0000 </r>
       <r>    2.7685    0.0000 </r>
       <r>    3.5054    0.0000 </r>
       <r>    4.1179    0.0000 </r>
       <r>    4.1804    0.0000 </r>
       <r>    5.2732    0.0000 </r>
      </set>
      <set comment="kpoint 4">
       <r>  -17.6770    1.0000 </r>
       <r>  -10.3897    1.0000 </r>
       <r>   -7.7242    1.0000 </r>
       <r>   -5.5364    1.0000 </r>
       <r>   -4.3763    1.0000 </r>
       <r>   -1.7991    0.0000 </r>
       <r>    0.8420    0.0000 </r>
       <r>    1.1071    0.0000 </r>
       <r>    1.8625    0.0000 </r>
       <r>    2.4772    0.0000 </r>
       <r>    2.9375    0.0000 </r>
       <r>    3.2327    0.0000 </r>
       <r>    3.9119    0.0000 </r>
       <r>    4.5093    0.0000 </r>
       <r>    4.5912    0.0000 </r>
       <r>    5.2666    0.0000 </r>
      </set>
      <set comment="kpoint 5">
       <r>  -17.1240    1.0000 </r>
       <r>  -10.7294    1.0000 </r>
       <r>   -8.3911    1.0000 </r>
       <r>   -5.9701    1.0000 </r>
       <r>   -4.3757    1.0000 </r>
       <r>   -2.2541    0.0000 </r>
       <r>    0.2956    0.0000 </r>
       <r>    1.0676    0.0000 </r>
       <r>    2.5029    0.0000 </r>
       <r>    2.9865    0.0000 </r>
       <r>    3.5096    0.0000 </r>
       <r>    3.8756    0.0000 </r>
       <r>    4.1409    0.0000 </r>
       <r>    5.0693    0.0000 </r>
       <r>    5.3257    0.0000 </r>
       <r>    5.9080    0.0000 </r>
      </set>
      <set comment="kpoint 6">
       <r>  -16.4449    1.0000 </r>
       <r>  -11.6903    1.0000 </r>
       <r>   -8.2154    1.0000 </r>
       <r>   -6.3012    1.0000 </r>
       <r>   -4.7270    1.0000 </r>
       <r>   -2.3832    0.0000 </r>
       <r>   -0.3747    0.0000 </r>
       <r>    1.0895    0.0000 </r>
       <r>    2.8626    0.0000 </r>
       <r>    3.3595    0.0000 </r>
       <r>    4.1284    0.0000 </r>
       <r>    4.5573    0.0000 </r>
       <r>    4.7608    0.0000 </r>
       <r>    5.7695    0.0000 </r>
       <r>    6.1235    0.0000 </r>
       <r>    6.9201    0.0000 </r>
      </set>
      <set comment="kpoint 7">
       <r>  -15.7176    1.0000 </r>
       <r>  -12.7230    1.0000 </r>
       <r>   -7.7271    1.0000 </r>
       <r>   -6.5065    1.0000 </r>
       <r>   -5.3091    1.0000 </r>
       <r>   -2.3295    0.0000 </r>
       <r>   -0.6959    0.0000 </r>
       <r>    1.0476    0.0000 </r>
       <r>    2.3647    0.0000 </r>
       <r>    4.3541    0.0000 </r>
       <r>    5.0343    0.0000 </r>
       <r>    5.4903    0.0000 </r>
       <r>    5.7876    0.0000 </r>
       <r>    6.3626    0.0000 </r>
       <r>    6.8846    0.0000 </r>
       <r>    7.1423    0.0000 </r>
      </set>
      <set comment="kpoint 8">
       <r>  -15.2971    1.0000 </r>
       <r>  -13.2585    1.0000 </r>
       <r>   -7.4264    1.0000 </r>
       <r>   -6.5760    1.0000 </r>
       <r>   -5.6502    1.0000 </r>
       <r>   -2.3018    0.0000 </r>
       <r>   -0.7567    0.0000 </r>
       <r>    1.0254    0.0000 </r>
       <r>    2.1339    0.0000 </r>
       <r>    5.4521    0.0000 </r>
       <r>    5.4558    0.0000 </r>
       <r>    5.9099    0.0000 </r>
       <r>    6.3411    0.0000 </r>
       <r>    6.5773    0.0000 </r>
       <r>    6.7944    0.0000 </r>
       <r>    6.9851    0.0000 </r>
      </set>
      <set comment="kpoint 9">
       <r>  -18.1621    1.0000 </r>
       <r>  -10.5400    1.0000 </r>
       <r>   -6.0173    1.0000 </r>
       <r>   -5.0193    1.0000 </r>
       <r>   -4.5634    1.0000 </r>
       <r>   -0.6282    0.0000 </r>
       <r>   -0.2752    0.0000 </r>
       <r>    1.0379    0.0000 </r>
       <r>    1.4137    0.0000 </r>
       <r>    1.8373    0.0000 </r>
       <r>    2.3538    0.0000 </r>
       <r>    2.6745    0.0000 </r>
       <r>    3.4854    0.0000 </r>
       <r>    4.0262    0.0000 </r>
       <r>    4.2852    0.0000 </r>
       <r>    5.1253    0.0000 </r>
      </set>
      <set comment="kpoint 10">
       <r>  -17.8377    1.0000 </r>
       <r>  -10.4029    1.0000 </r>
       <r>   -7.2064    1.0000 </r>
       <r>   -5.6200    1.0000 </r>
       <r>   -4.4206    1.0000 </r>
       <r>   -1.0831    0.0000 </r>
       <r>    0.2202    0.0000 </r>
       <r>    1.5363    0.0000 </r>
       <r>    1.7547    0.0000 </r>
       <r>    2.2074    0.0000 </r>
       <r>    2.6902    0.0000 </r>
       <r>    3.0492    0.0000 </r>
       <r>    3.3930    0.0000 </r>
       <r>    4.2556    0.0000 </r>
       <r>    4.3915    0.0000 </r>
       <r>    5.2509    0.0000 </r>
      </set>
      <set comment="kpoint 11">
       <r>  -17.3584    1.0000 </r>
       <r>  -10.4766    1.0000 </r>
       <r>   -8.1563    1.0000 </r>
       <r>   -6.1721    1.0000 </r>
       <r>   -4.3246    1.0000 </r>
       <r>   -1.6131    0.0000 </r>
       <r>    0.6296    0.0000 </r>
       <r>    0.9312    0.0000 </r>
       <r>    2.2290    0.0000 </r>
       <r>    2.7605    0.0000 </r>
       <r>    3.2422    0.0000 </r>
       <r>    3.6006    0.0000 </r>
       <r>    3.8231    0.0000 </r>
       <r>    4.7508    0.0000 </r>
       <r>    4.8944    0.0000 </r>
       <r>    5.3147    0.0000 </r>
      </set>
      <set comment="kpoint 12">
       <r>  -16.7387    1.0000 </r>
       <r>  -11.1805    1.0000 </r>
       <r>   -8.3234    1.0000 </r>
       <r>   -6.5968    1.0000 </r>
       <r>   -4.4735    1.0000 </r>
       <r>   -1.9145    0.0000 </r>
       <r>    0.0963    0.0000 </r>
       <r>    0.7678    0.0000 </r>
       <r>    2.9322    0.0000 </r>
       <r>    3.1926    0.0000 </r>
       <r>    3.8405    0.0000 </r>
       <r>    4.2479    0.0000 </r>
       <r>    4.4045    0.0000 </r>
       <r>    5.4063    0.0000 </r>
       <r>    5.5586    0.0000 </r>
       <r>    5.7724    0.0000 </r>
      </set>
      <set comment="kpoint 13">
       <r>  -16.0182    1.0000 </r>
       <r>  -12.2262    1.0000 </r>
       <r>   -7.9652    1.0000 </r>
       <r>   -6.8460    1.0000 </r>
       <r>   -4.9648    1.0000 </r>
       <r>   -1.8930    0.0000 </r>
       <r>   -0.4942    0.0000 </r>
       <r>    0.7960    0.0000 </r>
       <r>    2.7400    0.0000 </r>
       <r>    3.9138    0.0000 </r>
       <r>    4.6236    0.0000 </r>
       <r>    5.0678    0.0000 </r>
       <r>    5.3223    0.0000 </r>
       <r>    6.1690    0.0000 </r>
       <r>    6.5827    0.0000 </r>
       <r>    6.6794    0.0000 </r>
      </set>
      <set comment="kpoint 14">
       <r>  -15.3600    1.0000 </r>
       <r>  -13.0966    1.0000 </r>
       <r>   -7.6244    1.0000 </r>
       <r>   -6.8425    1.0000 </r>
       <r>   -5.5242    1.0000 </r>
       <r>   -1.7614    0.0000 </r>
       <r>   -0.7989    0.0000 </r>
       <r>    0.8549    0.0000 </r>
       <r>    2.2764    0.0000 </r>
       <r>    4.9918    0.0000 </r>
       <r>    5.5827    0.0000 </r>
       <r>    6.0619    0.0000 </r>
       <r>    6.2525    0.0000 </r>
       <r>    6.4601    0.0000 </r>
       <r>    6.6344    0.0000 </r>
       <r>    7.1686    0.0000 </r>
      </set>
      <set comment="kpoint 15">
       <r>  -17.4371    1.0000 </r>
       <r>  -10.4077    1.0000 </r>
       <r>   -7.9187    1.0000 </r>
       <r>   -6.4800    1.0000 </r>
       <r>   -4.3167    1.0000 </r>
       <r>   -0.8147    0.0000 </r>
       <r>    0.0246    0.0000 </r>
       <r>    1.6706    0.0000 </r>
       <r>    2.1744    0.0000 </r>
       <r>    2.1809    0.0000 </r>
       <r>    2.9760    0.0000 </r>
       <r>    3.4134    0.0000 </r>
       <r>    3.5193    0.0000 </r>
       <r>    4.6350    0.0000 </r>
       <r>    4.8181    0.0000 </r>
       <r>    5.5362    0.0000 </r>
      </set>
      <set comment="kpoint 16">
       <r>  -16.8880    1.0000 </r>
       <r>  -10.8483    1.0000 </r>
       <r>   -8.2108    1.0000 </r>
       <r>   -7.1871    1.0000 </r>
       <r>   -4.3430    1.0000 </r>
       <r>   -1.0407    0.0000 </r>
       <r>    0.0505    0.0000 </r>
       <r>    1.1249    0.0000 </r>
       <r>    2.6431    0.0000 </r>
       <r>    2.8577    0.0000 </r>
       <r>    3.5664    0.0000 </r>
       <r>    3.9956    0.0000 </r>
       <r>    4.1723    0.0000 </r>
       <r>    4.8989    0.0000 </r>
       <r>    5.2489    0.0000 </r>
       <r>    5.6331    0.0000 </r>
      </set>
      <set comment="kpoint 17">
       <r>  -16.2123    1.0000 </r>
       <r>  -11.7473    1.0000 </r>
       <r>   -8.1059    1.0000 </r>
       <r>   -7.5140    1.0000 </r>
       <r>   -4.6574    1.0000 </r>
       <r>   -1.2150    0.0000 </r>
       <r>   -0.1192    0.0000 </r>
       <r>    0.6877    0.0000 </r>
[...]
       </set>
       <set comment="band 13">
        <r>  0.0023  0.0002  0.0070 </r>
        <r>  0.0023  0.0002  0.0070 </r>
       </set>
       <set comment="band 14">
        <r>  0.0009  0.0184  0.0126 </r>
        <r>  0.0009  0.0184  0.0126 </r>
       </set>
       <set comment="band 15">
        <r>  0.0027  0.0051  0.0353 </r>
        <r>  0.0027  0.0051  0.0353 </r>
       </set>
       <set comment="band 16">
        <r>  0.0110  0.0662  0.1259 </r>
        <r>  0.0110  0.0662  0.1259 </r>
       </set>
      </set>
      <set comment="kpoint 16">
       <set comment="band 1">
        <r>  0.2561  0.0316  0.0026 </r>
        <r>  0.2561  0.0316  0.0026 </r>
       </set>
       <set comment="band 2">
        <r>  0.2930  0.0463  0.0116 </r>
        <r>  0.2930  0.0463  0.0116 </r>
       </set>
       <set comment="band 3">
        <r>  0.0133  0.2044  0.0102 </r>
        <r>  0.0133  0.2044  0.0102 </r>
       </set>
       <set comment="band 4">
        <r>  0.0105  0.2394  0.0221 </r>
        <r>  0.0105  0.2394  0.0221 </r>
       </set>
       <set comment="band 5">
        <r>  0.0292  0.2418  0.0023 </r>
        <r>  0.0292  0.2418  0.0023 </r>
       </set>
       <set comment="band 6">
        <r>  0.0402  0.1868  0.0323 </r>
        <r>  0.0402  0.1868  0.0323 </r>
       </set>
       <set comment="band 7">
        <r>  0.0136  0.2405  0.0299 </r>
        <r>  0.0136  0.2405  0.0299 </r>
       </set>
       <set comment="band 8">
        <r>  0.0350  0.1465  0.0742 </r>
        <r>  0.0350  0.1465  0.0742 </r>
       </set>
       <set comment="band 9">
        <r>  0.0183  0.0792  0.0666 </r>
        <r>  0.0183  0.0792  0.0666 </r>
       </set>
       <set comment="band 10">
        <r>  0.0008  0.0312  0.0354 </r>
        <r>  0.0008  0.0312  0.0354 </r>
       </set>
       <set comment="band 11">
        <r>  0.0007  0.0106  0.0192 </r>
        <r>  0.0007  0.0106  0.0192 </r>
       </set>
       <set comment="band 12">
        <r>  0.0007  0.0122  0.0150 </r>
        <r>  0.0007  0.0122  0.0150 </r>
       </set>
       <set comment="band 13">
        <r>  0.0016  0.0002  0.0126 </r>
        <r>  0.0016  0.0002  0.0126 </r>
       </set>
       <set comment="band 14">
        <r>  0.0022  0.0421  0.1305 </r>
        <r>  0.0022  0.0421  0.1305 </r>
       </set>
       <set comment="band 15">
        <r>  0.0010  0.0216  0.0134 </r>
        <r>  0.0010  0.0216  0.0134 </r>
       </set>
       <set comment="band 16">
        <r>  0.0081  0.0121  0.0136 </r>
        <r>  0.0081  0.0121  0.0136 </r>
       </set>
      </set>
      <set comment="kpoint 17">
       <set comment="band 1">
        <r>  0.2566  0.0372  0.0038 </r>
        <r>  0.2566  0.0372  0.0038 </r>
       </set>
       <set comment="band 2">
        <r>  0.2606  0.0662  0.0118 </r>
        <r>  0.2606  0.0662  0.0118 </r>
       </set>
       <set comment="band 3">
        <r>  0.0559  0.1826  0.0089 </r>
        <r>  0.0559  0.1826  0.0089 </r>
       </set>
       <set comment="band 4">
        <r>  0.0094  0.2285  0.0169 </r>
        <r>  0.0094  0.2285  0.0169 </r>
       </set>
       <set comment="band 5">
        <r>  0.0443  0.2367  0.0022 </r>
        <r>  0.0443  0.2367  0.0022 </r>
       </set>
       <set comment="band 6">
        <r>  0.0277  0.1751  0.0355 </r>
        <r>  0.0277  0.1751  0.0355 </r>
       </set>
       <set comment="band 7">
        <r>  0.0117  0.2100  0.0420 </r>
        <r>  0.0117  0.2100  0.0420 </r>
       </set>
       <set comment="band 8">
        <r>  0.0298  0.1443  0.0701 </r>
        <r>  0.0298  0.1443  0.0701 </r>
       </set>
       <set comment="band 9">
        <r>  0.0076  0.1141  0.0805 </r>
        <r>  0.0076  0.1141  0.0805 </r>
       </set>
       <set comment="band 10">
        <r>  0.0056  0.0187  0.0135 </r>
        <r>  0.0056  0.0187  0.0135 </r>
       </set>
       <set comment="band 11">
        <r>  0.0001  0.0145  0.0125 </r>
        <r>  0.0001  0.0145  0.0125 </r>
       </set>
       <set comment="band 12">
        <r>  0.0001  0.0134  0.0174 </r>
        <r>  0.0001  0.0134  0.0174 </r>
       </set>
       <set comment="band 13">
        <r>  0.0060  0.0449  0.1397 </r>
        <r>  0.0060  0.0449  0.1397 </r>
       </set>
       <set comment="band 14">
        <r>  0.0050  0.0071  0.0099 </r>
        <r>  0.0050  0.0071  0.0099 </r>
       </set>
       <set comment="band 15">
        <r>  0.0014  0.0288  0.0184 </r>
        <r>  0.0014  0.0288  0.0184 </r>
       </set>
       <set comment="band 16">
        <r>  0.0055  0.0038  0.0098 </r>
        <r>  0.0055  0.0038  0.0098 </r>
       </set>
      </set>
      <set comment="kpoint 18">
       <set comment="band 1">
        <r>  0.2616  0.0409  0.0056 </r>
        <r>  0.2616  0.0409  0.0056 </r>
       </set>
       <set comment="band 2">
        <r>  0.2360  0.0739  0.0097 </r>
        <r>  0.2360  0.0739  0.0097 </r>
       </set>
       <set comment="band 3">
        <r>  0.0533  0.1982  0.0137 </r>
        <r>  0.0533  0.1982  0.0137 </r>
       </set>
       <set comment="band 4">
        <r>  0.0397  0.2034  0.0091 </r>
        <r>  0.0397  0.2034  0.0091 </r>
       </set>
       <set comment="band 5">
        <r>  0.0518  0.2181  0.0035 </r>
        <r>  0.0518  0.2181  0.0035 </r>
       </set>
       <set comment="band 6">
        <r>  0.0109  0.1827  0.0366 </r>
        <r>  0.0109  0.1827  0.0366 </r>
       </set>
       <set comment="band 7">
        <r>  0.0306  0.1798  0.0591 </r>
        <r>  0.0306  0.1798  0.0591 </r>
       </set>
       <set comment="band 8">
        <r>  0.0181  0.1772  0.0495 </r>
        <r>  0.0181  0.1772  0.0495 </r>
       </set>
       <set comment="band 9">
        <r>  0.0007  0.0628  0.0998 </r>
        <r>  0.0007  0.0628  0.0998 </r>
       </set>
       <set comment="band 10">
        <r>  0.0097  0.0106  0.0135 </r>
        <r>  0.0097  0.0106  0.0135 </r>
       </set>
       <set comment="band 11">
        <r>  0.0002  0.0279  0.0111 </r>
        <r>  0.0002  0.0279  0.0111 </r>
       </set>
       <set comment="band 12">
        <r>  0.0003  0.0146  0.0074 </r>
        <r>  0.0003  0.0146  0.0074 </r>
       </set>
       <set comment="band 13">
        <r>  0.0068  0.0932  0.1202 </r>
        <r>  0.0068  0.0932  0.1202 </r>
       </set>
       <set comment="band 14">
        <r>  0.0014  0.0039  0.0086 </r>
        <r>  0.0014  0.0039  0.0086 </r>
       </set>
       <set comment="band 15">
        <r>  0.0003  0.0417  0.0461 </r>
        <r>  0.0003  0.0417  0.0461 </r>
       </set>
       <set comment="band 16">
        <r>  0.0065  0.0166  0.0228 </r>
        <r>  0.0065  0.0166  0.0228 </r>
       </set>
      </set>
      <set comment="kpoint 19">
       <set comment="band 1">
        <r>  0.2708  0.0401  0.0069 </r>
        <r>  0.2708  0.0401  0.0069 </r>
       </set>
       <set comment="band 2">
        <r>  0.2211  0.0776  0.0080 </r>
        <r>  0.2211  0.0776  0.0080 </r>
       </set>
       <set comment="band 3">
        <r>  0.0507  0.2016  0.0143 </r>
        <r>  0.0507  0.2016  0.0143 </r>
       </set>
       <set comment="band 4">
        <r>  0.0541  0.2027  0.0075 </r>
        <r>  0.0541  0.2027  0.0075 </r>
       </set>
       <set comment="band 5">
        <r>  0.0506  0.2053  0.0043 </r>
        <r>  0.0506  0.2053  0.0043 </r>
       </set>
       <set comment="band 6">
        <r>  0.0002  0.1899  0.0357 </r>
        <r>  0.0002  0.1899  0.0357 </r>
       </set>
       <set comment="band 7">
        <r>  0.0436  0.1681  0.0662 </r>
        <r>  0.0436  0.1681  0.0662 </r>
       </set>
       <set comment="band 8">
        <r>  0.0131  0.2023  0.0380 </r>
        <r>  0.0131  0.2023  0.0380 </r>
       </set>
       <set comment="band 9">
        <r>  0.0000  0.0301  0.1071 </r>
        <r>  0.0000  0.0301  0.1071 </r>
       </set>
       <set comment="band 10">
        <r>  0.0134  0.0233  0.0425 </r>
        <r>  0.0134  0.0233  0.0425 </r>
       </set>
       <set comment="band 11">
        <r>  0.0081  0.0264  0.0141 </r>
        <r>  0.0081  0.0264  0.0141 </r>
       </set>
       <set comment="band 12">
        <r>  0.0000  0.0540  0.0555 </r>
        <r>  0.0000  0.0540  0.0555 </r>
       </set>
       <set comment="band 13">
        <r>  0.0000  0.0662  0.0135 </r>
        <r>  0.0000  0.0662  0.0135 </r>
       </set>
       <set comment="band 14">
        <r>  0.0003  0.0038  0.0171 </r>
        <r>  0.0004  0.0039  0.0172 </r>
       </set>
       <set comment="band 15">
        <r>  0.0004  0.0150  0.0082 </r>
        <r>  0.0003  0.0148  0.0081 </r>
       </set>
       <set comment="band 16">
        <r>  0.0021  0.0019  0.0110 </r>
        <r>  0.0021  0.0021  0.0110 </r>
       </set>
      </set>
      <set comment="kpoint 20">
       <set comment="band 1">
        <r>  0.2559  0.0370  0.0037 </r>
        <r>  0.2559  0.0370  0.0037 </r>
       </set>
       <set comment="band 2">
        <r>  0.2777  0.0589  0.0122 </r>
        <r>  0.2777  0.0589  0.0122 </r>
       </set>
       <set comment="band 3">
        <r>  0.0128  0.2228  0.0190 </r>
        <r>  0.0128  0.2228  0.0190 </r>
       </set>
       <set comment="band 4">
        <r>  0.0373  0.1885  0.0071 </r>
        <r>  0.0373  0.1885  0.0071 </r>
       </set>
       <set comment="band 5">
        <r>  0.0417  0.2416  0.0022 </r>
        <r>  0.0417  0.2416  0.0022 </r>
       </set>
       <set comment="band 6">
        <r>  0.0069  0.2087  0.0323 </r>
        <r>  0.0069  0.2087  0.0323 </r>
       </set>
       <set comment="band 7">
        <r>  0.0301  0.1683  0.0347 </r>
        <r>  0.0301  0.1683  0.0347 </r>
       </set>
       <set comment="band 8">
        <r>  0.0504  0.2416  0.0409 </r>
        <r>  0.0504  0.2416  0.0409 </r>
       </set>
       <set comment="band 9">
        <r>  0.0003  0.0526  0.1365 </r>
        <r>  0.0003  0.0526  0.1365 </r>
       </set>
       <set comment="band 10">
        <r>  0.0052  0.0046  0.0258 </r>
        <r>  0.0052  0.0046  0.0258 </r>
       </set>
       <set comment="band 11">
        <r>  0.0002  0.0159  0.0119 </r>
        <r>  0.0002  0.0159  0.0119 </r>
       </set>
       <set comment="band 12">
        <r>  0.0018  0.0347  0.1323 </r>
        <r>  0.0018  0.0347  0.1323 </r>
       </set>
       <set comment="band 13">
        <r>  0.0002  0.0126  0.0072 </r>
        <r>  0.0002  0.0126  0.0072 </r>
       </set>
       <set comment="band 14">
        <r>  0.0033  0.0070  0.0060 </r>
        <r>  0.0033  0.0070  0.0060 </r>
       </set>
       <set comment="band 15">
        <r>  0.0005  0.0313  0.0265 </r>
        <r>  0.0004  0.0313  0.0265 </r>
       </set>
       <set comment="band 16">
        <r>  0.0059  0.0052  0.0081 </r>
        <r>  0.0059  0.0052  0.0081 </r>
       </set>
      </set>
      <set comment="kpoint 21">
       <set comment="band 1">
        <r>  0.2579  0.0421  0.0051 </r>
        <r>  0.2579  0.0421  0.0051 </r>
       </set>
       <set comment="band 2">
        <r>  0.2617  0.0643  0.0110 </r>
        <r>  0.2617  0.0643  0.0110 </r>
       </set>
       <set comment="band 3">
        <r>  0.0170  0.2123  0.0163 </r>
        <r>  0.0170  0.2123  0.0163 </r>
       </set>
       <set comment="band 4">
        <r>  0.0544  0.1857  0.0061 </r>
        <r>  0.0544  0.1857  0.0061 </r>
       </set>
       <set comment="band 5">
        <r>  0.0528  0.2293  0.0029 </r>
        <r>  0.0528  0.2293  0.0029 </r>
       </set>
       <set comment="band 6">
        <r>  0.0039  0.1888  0.0329 </r>
        <r>  0.0039  0.1888  0.0329 </r>
       </set>
       <set comment="band 7">
        <r>  0.0234  0.1685  0.0389 </r>
        <r>  0.0234  0.1685  0.0389 </r>
       </set>
       <set comment="band 8">
        <r>  0.0369  0.2135  0.0522 </r>
        <r>  0.0369  0.2135  0.0522 </r>
       </set>
       <set comment="band 9">
        <r>  0.0020  0.0778  0.1234 </r>
        <r>  0.0020  0.0778  0.1234 </r>
       </set>
       <set comment="band 10">
        <r>  0.0001  0.0277  0.1026 </r>
        <r>  0.0001  0.0277  0.1026 </r>
       </set>
       <set comment="band 11">
        <r>  0.0147  0.0349  0.0582 </r>
        <r>  0.0147  0.0349  0.0582 </r>
       </set>
       <set comment="band 12">
        <r>  0.0001  0.0408  0.0252 </r>
        <r>  0.0001  0.0408  0.0252 </r>
       </set>
       <set comment="band 13">
        <r>  0.0000  0.0124  0.0134 </r>
        <r>  0.0000  0.0124  0.0134 </r>
       </set>
       <set comment="band 14">
        <r>  0.0023  0.0025  0.0041 </r>
        <r>  0.0023  0.0025  0.0041 </r>
       </set>
       <set comment="band 15">
        <r>  0.0003  0.0147  0.0518 </r>
        <r>  0.0003  0.0147  0.0518 </r>
       </set>
       <set comment="band 16">
        <r>  0.0010  0.0053  0.0240 </r>
        <r>  0.0010  0.0053  0.0240 </r>
       </set>
      </set>
      <set comment="kpoint 22">
       <set comment="band 1">
        <r>  0.2653  0.0444  0.0069 </r>
        <r>  0.2653  0.0444  0.0069 </r>
       </set>
       <set comment="band 2">
        <r>  0.2463  0.0667  0.0091 </r>
        <r>  0.2463  0.0667  0.0091 </r>
       </set>
       <set comment="band 3">
        <r>  0.0209  0.2070  0.0149 </r>
        <r>  0.0209  0.2070  0.0149 </r>
       </set>
       <set comment="band 4">
        <r>  0.0638  0.1922  0.0055 </r>
        <r>  0.0638  0.1922  0.0055 </r>
       </set>
       <set comment="band 5">
        <r>  0.0569  0.2123  0.0040 </r>
        <r>  0.0569  0.2123  0.0040 </r>
       </set>
       <set comment="band 6">
        <r>  0.0014  0.1834  0.0327 </r>
        <r>  0.0014  0.1834  0.0327 </r>
       </set>
       <set comment="band 7">
        <r>  0.0230  0.1812  0.0429 </r>
        <r>  0.0230  0.1812  0.0429 </r>
       </set>
       <set comment="band 8">
        <r>  0.0296  0.2001  0.0492 </r>
        <r>  0.0296  0.2001  0.0492 </r>
       </set>
       <set comment="band 9">
        <r>  0.0010  0.0371  0.1304 </r>
        <r>  0.0010  0.0371  0.1304 </r>
       </set>
       <set comment="band 10">
        <r>  0.0066  0.0610  0.0988 </r>
        <r>  0.0066  0.0610  0.0988 </r>
       </set>
       <set comment="band 11">
        <r>  0.0052  0.0125  0.0183 </r>
        <r>  0.0052  0.0125  0.0183 </r>
       </set>
       <set comment="band 12">
        <r>  0.0024  0.1034  0.0674 </r>
        <r>  0.0024  0.1034  0.0674 </r>
       </set>
       <set comment="band 13">
        <r>  0.0006  0.0142  0.0205 </r>
        <r>  0.0006  0.0142  0.0205 </r>
       </set>
       <set comment="band 14">
        <r>  0.0055  0.0141  0.0168 </r>
        <r>  0.0055  0.0141  0.0168 </r>
       </set>
       <set comment="band 15">
        <r>  0.0021  0.0099  0.0274 </r>
        <r>  0.0021  0.0099  0.0274 </r>
       </set>
       <set comment="band 16">
        <r>  0.0013  0.0073  0.0078 </r>
        <r>  0.0013  0.0073  0.0078 </r>
       </set>
      </set>
      <set comment="kpoint 23">
       <set comment="band 1">
        <r>  0.2611  0.0468  0.0067 </r>
        <r>  0.2611  0.0468  0.0067 </r>
       </set>
       <set comment="band 2">
        <r>  0.2634  0.0596  0.0099 </r>
        <r>  0.2634  0.0596  0.0099 </r>
       </set>
       <set comment="band 3">
        <r>  0.0062  0.2100  0.0145 </r>
        <r>  0.0062  0.2100  0.0145 </r>
       </set>
       <set comment="band 4">
        <r>  0.0646  0.1898  0.0051 </r>
        <r>  0.0646  0.1898  0.0051 </r>
       </set>
       <set comment="band 5">
        <r>  0.0606  0.2180  0.0036 </r>
        <r>  0.0606  0.2180  0.0036 </r>
       </set>
       <set comment="band 6">
        <r>  0.0015  0.1765  0.0319 </r>
        <r>  0.0015  0.1765  0.0319 </r>
       </set>
       <set comment="band 7">
        <r>  0.0192  0.1683  0.0414 </r>
        <r>  0.0192  0.1683  0.0414 </r>
       </set>
       <set comment="band 8">
        <r>  0.0289  0.2276  0.0344 </r>
        <r>  0.0289  0.2276  0.0344 </r>
       </set>
       <set comment="band 9">
        <r>  0.0014  0.0599  0.1631 </r>
        <r>  0.0014  0.0599  0.1631 </r>
       </set>
       <set comment="band 10">
        <r>  0.0122  0.0727  0.1354 </r>
        <r>  0.0122  0.0727  0.1354 </r>
       </set>
       <set comment="band 11">
        <r>  0.0014  0.0585  0.0663 </r>
        <r>  0.0014  0.0585  0.0663 </r>
       </set>
       <set comment="band 12">
        <r>  0.0068  0.0112  0.0128 </r>
        <r>  0.0068  0.0112  0.0128 </r>
       </set>
       <set comment="band 13">
        <r>  0.0003  0.0018  0.0111 </r>
        <r>  0.0003  0.0018  0.0111 </r>
       </set>
       <set comment="band 14">
        <r>  0.0004  0.0062  0.0147 </r>
        <r>  0.0004  0.0062  0.0147 </r>
       </set>
       <set comment="band 15">
        <r>  0.0020  0.0024  0.0045 </r>
        <r>  0.0020  0.0024  0.0045 </r>
       </set>
       <set comment="band 16">
        <r>  0.0016  0.0980  0.0784 </r>
        <r>  0.0016  0.0980  0.0784 </r>
       </set>
      </set>
      <set comment="kpoint 24">
       <set comment="band 1">
        <r>  0.2662  0.0489  0.0079 </r>
        <r>  0.2662  0.0489  0.0079 </r>
       </set>
       <set comment="band 2">
        <r>  0.2601  0.0573  0.0088 </r>
        <r>  0.2601  0.0573  0.0088 </r>
       </set>
       <set comment="band 3">
        <r>  0.0033  0.2088  0.0137 </r>
        <r>  0.0033  0.2088  0.0137 </r>
       </set>
       <set comment="band 4">
        <r>  0.0674  0.1981  0.0047 </r>
        <r>  0.0674  0.1981  0.0047 </r>
       </set>
       <set comment="band 5">
        <r>  0.0635  0.2076  0.0042 </r>
        <r>  0.0635  0.2076  0.0042 </r>
       </set>
       <set comment="band 6">
        <r>  0.0004  0.1714  0.0315 </r>
        <r>  0.0004  0.1714  0.0315 </r>
       </set>
       <set comment="band 7">
        <r>  0.0180  0.1803  0.0415 </r>
        <r>  0.0180  0.1803  0.0415 </r>
       </set>
       <set comment="band 8">
        <r>  0.0241  0.2011  0.0397 </r>
        <r>  0.0241  0.2011  0.0397 </r>
       </set>
       <set comment="band 9">
        <r>  0.0018  0.0489  0.1590 </r>
        <r>  0.0018  0.0489  0.1590 </r>
       </set>
       <set comment="band 10">
        <r>  0.0082  0.0660  0.0938 </r>
        <r>  0.0082  0.0660  0.0938 </r>
       </set>
       <set comment="band 11">
        <r>  0.0081  0.1489  0.0992 </r>
        <r>  0.0081  0.1489  0.0992 </r>
       </set>
       <set comment="band 12">
        <r>  0.0042  0.0655  0.1340 </r>
        <r>  0.0042  0.0655  0.1340 </r>
       </set>
       <set comment="band 13">
        <r>  0.0068  0.0063  0.0257 </r>
        <r>  0.0068  0.0063  0.0257 </r>
       </set>
       <set comment="band 14">
        <r>  0.0043  0.0192  0.0091 </r>
        <r>  0.0043  0.0192  0.0091 </r>
       </set>
       <set comment="band 15">
        <r>  0.0011  0.0054  0.0124 </r>
        <r>  0.0011  0.0053  0.0124 </r>
       </set>
       <set comment="band 16">
        <r>  0.0000  0.0015  0.0077 </r>
        <r>  0.0000  0.0015  0.0076 </r>
       </set>
      </set>
     </set>
    </set>
   </array>
  </projected>
 </calculation>
 <structure name="finalpos" >
  <crystal>
   <varray name="basis" >
    <v>       3.28234339       0.00000000       0.00000000 </v>
    <v>      -1.64117169       2.84259276       0.00000000 </v>
    <v>       0.00000000       0.00000000      24.00000000 </v>
   </varray>
   <i name="volume">    223.92877300 </i>
   <varray name="rec_basis" >
    <v>       0.30466038       0.17589576       0.00000000 </v>
    <v>       0.00000000       0.35179151       0.00000000 </v>
    <v>       0.00000000       0.00000000       0.04166667 </v>
   </varray>
  </crystal>
  <varray name="positions" >
   <v>       0.66666669       0.33333334       0.30745522 </v>
   <v>       0.33333334       0.66666669       0.35921144 </v>
  </varray>
 </structure>
</modeling>
