unknown system                          
           1
     3.282343    0.000000    0.000000
    -1.641172    2.842593    0.000000
     0.000000    0.000000   24.000000
   P 
     2
Direct configuration=     1
   0.66666669  0.33333334  0.30745522
   0.33333334  0.66666669  0.35921144
