   2   2   1   0
  0.7464293E+02  0.3282344E-09  0.3282344E-09  0.1600000E-08  0.5000000E-15
  1.000000000000000E-004
  CAR 
 unknown system                          
     11.29283167    -18.84279343 6001     -3.32294160      1.00000000
    -18.843  0.0000E+00  0.0000E+00
    -18.838  0.0000E+00  0.0000E+00
    -18.833  0.0000E+00  0.0000E+00
    -18.828  0.0000E+00  0.0000E+00
    -18.823  0.0000E+00  0.0000E+00
    -18.818  0.0000E+00  0.0000E+00
    -18.813  0.0000E+00  0.0000E+00
    -18.808  0.0000E+00  0.0000E+00
    -18.803  0.0000E+00  0.0000E+00
    -18.798  0.0000E+00  0.0000E+00
    -18.793  0.0000E+00  0.0000E+00
    -18.788  0.0000E+00  0.0000E+00
    -18.783  0.0000E+00  0.0000E+00
    -18.777  0.0000E+00  0.0000E+00
    -18.772  0.0000E+00  0.0000E+00
    -18.767  0.0000E+00  0.0000E+00
    -18.762  0.0000E+00  0.0000E+00
    -18.757  0.0000E+00  0.0000E+00
    -18.752  0.0000E+00  0.0000E+00
    -18.747  0.0000E+00  0.0000E+00
    -18.742  0.0000E+00  0.0000E+00
    -18.737  0.0000E+00  0.0000E+00
    -18.732  0.0000E+00  0.0000E+00
    -18.727  0.0000E+00  0.0000E+00
    -18.722  0.0000E+00  0.0000E+00
    -18.717  0.0000E+00  0.0000E+00
    -18.712  0.0000E+00  0.0000E+00
    -18.707  0.0000E+00  0.0000E+00
    -18.702  0.0000E+00  0.0000E+00
    -18.697  0.0000E+00  0.0000E+00
    -18.692  0.0000E+00  0.0000E+00
    -18.687  0.0000E+00  0.0000E+00
    -18.682  0.0000E+00  0.0000E+00
    -18.677  0.0000E+00  0.0000E+00
    -18.672  0.0000E+00  0.0000E+00
    -18.667  0.0000E+00  0.0000E+00
    -18.662  0.0000E+00  0.0000E+00
    -18.657  0.0000E+00  0.0000E+00
    -18.652  0.0000E+00  0.0000E+00
    -18.647  0.0000E+00  0.0000E+00
    -18.642  0.0000E+00  0.0000E+00
    -18.637  0.0000E+00  0.0000E+00
    -18.632  0.0000E+00  0.0000E+00
    -18.627  0.0000E+00  0.0000E+00
    -18.622  0.0000E+00  0.0000E+00
    -18.617  0.0000E+00  0.0000E+00
    -18.612  0.0000E+00  0.0000E+00
    -18.607  0.0000E+00  0.0000E+00
    -18.602  0.0000E+00  0.0000E+00
    -18.597  0.0000E+00  0.0000E+00
    -18.592  0.0000E+00  0.0000E+00
    -18.587  0.0000E+00  0.0000E+00
    -18.582  0.0000E+00  0.0000E+00
    -18.577  0.0000E+00  0.0000E+00
    -18.572  0.0000E+00  0.0000E+00
    -18.567  0.0000E+00  0.0000E+00
    -18.562  0.0000E+00  0.0000E+00
    -18.557  0.0000E+00  0.0000E+00
    -18.551  0.0000E+00  0.0000E+00
    -18.546  0.0000E+00  0.0000E+00
    -18.541  0.0000E+00  0.0000E+00
    -18.536  0.0000E+00  0.0000E+00
    -18.531  0.0000E+00  0.0000E+00
    -18.526  0.0000E+00  0.0000E+00
    -18.521  0.0000E+00  0.0000E+00
    -18.516  0.0000E+00  0.0000E+00
    -18.511  0.0000E+00  0.0000E+00
    -18.506  0.0000E+00  0.0000E+00
    -18.501  0.0000E+00  0.0000E+00
    -18.496  0.0000E+00  0.0000E+00
    -18.491  0.0000E+00  0.0000E+00
    -18.486  0.0000E+00  0.0000E+00
    -18.481  0.0000E+00  0.0000E+00
    -18.476  0.0000E+00  0.0000E+00
    -18.471  0.0000E+00  0.0000E+00
    -18.466  0.0000E+00  0.0000E+00
    -18.461  0.0000E+00  0.0000E+00
    -18.456  0.0000E+00  0.0000E+00
    -18.451  0.0000E+00  0.0000E+00
    -18.446  0.0000E+00  0.0000E+00
    -18.441  0.0000E+00  0.0000E+00
    -18.436  0.0000E+00  0.0000E+00
    -18.431  0.0000E+00  0.0000E+00
    -18.426  0.0000E+00  0.0000E+00
    -18.421  0.0000E+00  0.0000E+00
    -18.416  0.0000E+00  0.0000E+00
    -18.411  0.0000E+00  0.0000E+00
    -18.406  0.0000E+00  0.0000E+00
    -18.401  0.0000E+00  0.0000E+00
    -18.396  0.0000E+00  0.0000E+00
    -18.391  0.0000E+00  0.0000E+00
    -18.386  0.0000E+00  0.0000E+00
    -18.381  0.0000E+00  0.0000E+00
    -18.376  0.0000E+00  0.0000E+00
    -18.371  0.0000E+00  0.0000E+00
    -18.366  0.0000E+00  0.0000E+00
    -18.361  0.0000E+00  0.0000E+00
    -18.356  0.0000E+00  0.0000E+00
    -18.351  0.0000E+00  0.0000E+00
    -18.346  0.0000E+00  0.0000E+00
    -18.341  0.0000E+00  0.0000E+00
    -18.336  0.0000E+00  0.0000E+00
    -18.330  0.0000E+00  0.0000E+00
    -18.325  0.0000E+00  0.0000E+00
    -18.320  0.0000E+00  0.0000E+00
    -18.315  0.0000E+00  0.0000E+00
    -18.310  0.0000E+00  0.0000E+00
    -18.305  0.0000E+00  0.0000E+00
    -18.300  0.0000E+00  0.0000E+00
    -18.295  0.0000E+00  0.0000E+00
    -18.290  0.0000E+00  0.0000E+00
    -18.285  0.0000E+00  0.0000E+00
    -18.280  0.0000E+00  0.0000E+00
    -18.275  0.0000E+00  0.0000E+00
    -18.270  0.0000E+00  0.0000E+00
    -18.265  0.0000E+00  0.0000E+00
    -18.260  0.0000E+00  0.0000E+00
    -18.255  0.0000E+00  0.0000E+00
    -18.250  0.0000E+00  0.0000E+00
    -18.245  0.0000E+00  0.0000E+00
    -18.240  0.0000E+00  0.0000E+00
    -18.235  0.0000E+00  0.0000E+00
    -18.230  0.0000E+00  0.0000E+00
    -18.225  0.0000E+00  0.0000E+00
    -18.220  0.0000E+00  0.0000E+00
    -18.215  0.0000E+00  0.0000E+00
    -18.210  0.0000E+00  0.0000E+00
    -18.205  0.0000E+00  0.0000E+00
    -18.200  0.0000E+00  0.0000E+00
    -18.195  0.0000E+00  0.0000E+00
    -18.190  0.0000E+00  0.0000E+00
    -18.185  0.0000E+00  0.0000E+00
    -18.180  0.0000E+00  0.0000E+00
    -18.175  0.0000E+00  0.0000E+00
    -18.170  0.0000E+00  0.0000E+00
    -18.165  0.0000E+00  0.0000E+00
    -18.160  0.0000E+00  0.0000E+00
    -18.155  0.0000E+00  0.0000E+00
    -18.150  0.0000E+00  0.0000E+00
    -18.145  0.0000E+00  0.0000E+00
    -18.140  0.0000E+00  0.0000E+00
    -18.135  0.0000E+00  0.0000E+00
    -18.130  0.0000E+00  0.0000E+00
    -18.125  0.0000E+00  0.0000E+00
    -18.120  0.0000E+00  0.0000E+00
    -18.115  0.0000E+00  0.0000E+00
    -18.109  0.0000E+00  0.0000E+00
    -18.104  0.0000E+00  0.0000E+00
    -18.099  0.0000E+00  0.0000E+00
    -18.094  0.0000E+00  0.0000E+00
    -18.089  0.0000E+00  0.0000E+00
    -18.084  0.0000E+00  0.0000E+00
    -18.079  0.0000E+00  0.0000E+00
    -18.074  0.0000E+00  0.0000E+00
    -18.069  0.0000E+00  0.0000E+00
    -18.064  0.0000E+00  0.0000E+00
    -18.059  0.0000E+00  0.0000E+00
    -18.054  0.0000E+00  0.0000E+00
    -18.049  0.0000E+00  0.0000E+00
    -18.044  0.0000E+00  0.0000E+00
    -18.039  0.0000E+00  0.0000E+00
    -18.034  0.0000E+00  0.0000E+00
    -18.029  0.0000E+00  0.0000E+00
    -18.024  0.0000E+00  0.0000E+00
    -18.019  0.0000E+00  0.0000E+00
    -18.014  0.0000E+00  0.0000E+00
    -18.009  0.0000E+00  0.0000E+00
    -18.004  0.0000E+00  0.0000E+00
    -17.999  0.0000E+00  0.0000E+00
    -17.994  0.0000E+00  0.0000E+00
    -17.989  0.0000E+00  0.0000E+00
    -17.984  0.0000E+00  0.0000E+00
    -17.979  0.0000E+00  0.0000E+00
    -17.974  0.0000E+00  0.0000E+00
    -17.969  0.0000E+00  0.0000E+00
    -17.964  0.0000E+00  0.0000E+00
    -17.959  0.0000E+00  0.0000E+00
    -17.954  0.0000E+00  0.0000E+00
    -17.949  0.0000E+00  0.0000E+00
    -17.944  0.0000E+00  0.0000E+00
    -17.939  0.0000E+00  0.0000E+00
    -17.934  0.0000E+00  0.0000E+00
    -17.929  0.0000E+00  0.0000E+00
    -17.924  0.0000E+00  0.0000E+00
    -17.919  0.0000E+00  0.0000E+00
    -17.914  0.0000E+00  0.0000E+00
    -17.909  0.0000E+00  0.0000E+00
    -17.904  0.0000E+00  0.0000E+00
    -17.899  0.0000E+00  0.0000E+00
    -17.894  0.0000E+00  0.0000E+00
    -17.888  0.0000E+00  0.0000E+00
    -17.883  0.0000E+00  0.0000E+00
    -17.878  0.0000E+00  0.0000E+00
    -17.873  0.0000E+00  0.0000E+00
    -17.868  0.0000E+00  0.0000E+00
    -17.863  0.0000E+00  0.0000E+00
    -17.858  0.0000E+00  0.0000E+00
    -17.853  0.0000E+00  0.0000E+00
    -17.848  0.0000E+00  0.0000E+00
    -17.843  0.0000E+00  0.0000E+00
    -17.838  0.0000E+00  0.0000E+00
    -17.833  0.0000E+00  0.0000E+00
    -17.828  0.0000E+00  0.0000E+00
    -17.823  0.0000E+00  0.0000E+00
    -17.818  0.0000E+00  0.0000E+00
    -17.813  0.0000E+00  0.0000E+00
    -17.808  0.0000E+00  0.0000E+00
    -17.803  0.0000E+00  0.0000E+00
    -17.798  0.0000E+00  0.0000E+00
    -17.793  0.0000E+00  0.0000E+00
    -17.788  0.0000E+00  0.0000E+00
    -17.783  0.0000E+00  0.0000E+00
    -17.778  0.0000E+00  0.0000E+00
    -17.773  0.0000E+00  0.0000E+00
    -17.768  0.0000E+00  0.0000E+00
    -17.763  0.0000E+00  0.0000E+00
    -17.758  0.0000E+00  0.0000E+00
    -17.753  0.0000E+00  0.0000E+00
    -17.748  0.0000E+00  0.0000E+00
    -17.743  0.0000E+00  0.0000E+00
    -17.738  0.0000E+00  0.0000E+00
    -17.733  0.0000E+00  0.0000E+00
    -17.728  0.0000E+00  0.0000E+00
    -17.723  0.0000E+00  0.0000E+00
    -17.718  0.0000E+00  0.0000E+00
    -17.713  0.0000E+00  0.0000E+00
    -17.708  0.0000E+00  0.0000E+00
    -17.703  0.0000E+00  0.0000E+00
    -17.698  0.0000E+00  0.0000E+00
    -17.693  0.0000E+00  0.0000E+00
    -17.688  0.0000E+00  0.0000E+00
    -17.683  0.0000E+00  0.0000E+00
    -17.678  0.0000E+00  0.0000E+00
    -17.673  0.0000E+00  0.0000E+00
    -17.668  0.0000E+00  0.0000E+00
    -17.662  0.0000E+00  0.0000E+00
    -17.657  0.0000E+00  0.0000E+00
    -17.652  0.0000E+00  0.0000E+00
    -17.647  0.0000E+00  0.0000E+00
    -17.642  0.0000E+00  0.0000E+00
    -17.637  0.0000E+00  0.0000E+00
    -17.632  0.0000E+00  0.0000E+00
    -17.627  0.0000E+00  0.0000E+00
    -17.622  0.0000E+00  0.0000E+00
    -17.617  0.0000E+00  0.0000E+00
    -17.612  0.0000E+00  0.0000E+00
    -17.607  0.0000E+00  0.0000E+00
    -17.602  0.0000E+00  0.0000E+00
    -17.597  0.0000E+00  0.0000E+00
    -17.592  0.0000E+00  0.0000E+00
    -17.587  0.0000E+00  0.0000E+00
    -17.582  0.0000E+00  0.0000E+00
    -17.577  0.0000E+00  0.0000E+00
    -17.572  0.0000E+00  0.0000E+00
    -17.567  0.0000E+00  0.0000E+00
    -17.562  0.0000E+00  0.0000E+00
    -17.557  0.0000E+00  0.0000E+00
    -17.552  0.0000E+00  0.0000E+00
    -17.547  0.0000E+00  0.0000E+00
    -17.542  0.0000E+00  0.0000E+00
    -17.537  0.0000E+00  0.0000E+00
    -17.532  0.2819E-16  0.1416E-18
    -17.527  0.6428E-14  0.3243E-16
    -17.522  0.1230E-11  0.6212E-14
    -17.517  0.1431E-09  0.7247E-12
    -17.512  0.1014E-07  0.5164E-10
    -17.507  0.4384E-06  0.2254E-08
    -17.502  0.1159E-04  0.6046E-07
    -17.497  0.1875E-03  0.1002E-05
    -17.492  0.1860E-02  0.1034E-04
    -17.487  0.1133E-01  0.6726E-04
    -17.482  0.4250E-01  0.2807E-03
    -17.477  0.9882E-01  0.7770E-03
    -17.472  0.1485E+00  0.1523E-02
    -17.467  0.1812E+00  0.2433E-02
    -17.462  0.2973E+00  0.3926E-02
    -17.457  0.5787E+00  0.6833E-02
    -17.452  0.8302E+00  0.1100E-01
    -17.447  0.7555E+00  0.1480E-01
    -17.441  0.4255E+00  0.1693E-01
    -17.436  0.1483E+00  0.1768E-01
    -17.431  0.3808E-01  0.1787E-01
    -17.426  0.4910E-01  0.1812E-01
    -17.421  0.1909E+00  0.1908E-01
    -17.416  0.4978E+00  0.2158E-01
    -17.411  0.8051E+00  0.2562E-01
    -17.406  0.8317E+00  0.2980E-01
    -17.401  0.6570E+00  0.3310E-01
    -17.396  0.6510E+00  0.3637E-01
    -17.391  0.8258E+00  0.4051E-01
    -17.386  0.8134E+00  0.4460E-01
    -17.381  0.5134E+00  0.4718E-01
    -17.376  0.2008E+00  0.4819E-01
    -17.371  0.4837E-01  0.4843E-01
    -17.366  0.7167E-02  0.4847E-01
    -17.361  0.6754E-03  0.4847E-01
    -17.356  0.5398E-03  0.4847E-01
    -17.351  0.6567E-02  0.4851E-01
    -17.346  0.5253E-01  0.4877E-01
    -17.341  0.2583E+00  0.5007E-01
    -17.336  0.7814E+00  0.5399E-01
    -17.331  0.1456E+01  0.6131E-01
    -17.326  0.1673E+01  0.6971E-01
    -17.321  0.1185E+01  0.7566E-01
    -17.316  0.5173E+00  0.7826E-01
    -17.311  0.1413E+00  0.7897E-01
    -17.306  0.4331E-01  0.7918E-01
    -17.301  0.1092E+00  0.7973E-01
    -17.296  0.3457E+00  0.8147E-01
    -17.291  0.6882E+00  0.8493E-01
    -17.286  0.8445E+00  0.8917E-01
    -17.281  0.6390E+00  0.9238E-01
    -17.276  0.2980E+00  0.9387E-01
    -17.271  0.8556E-01  0.9430E-01
    -17.266  0.1511E-01  0.9438E-01
    -17.261  0.1644E-02  0.9439E-01
    -17.256  0.2076E-03  0.9439E-01
    -17.251  0.1510E-02  0.9440E-01
    -17.246  0.1411E-01  0.9447E-01
    -17.241  0.8124E-01  0.9487E-01
    -17.236  0.2878E+00  0.9632E-01
    -17.231  0.6300E+00  0.9948E-01
    -17.226  0.8684E+00  0.1038E+00
    -17.220  0.8477E+00  0.1081E+00
    -17.215  0.8994E+00  0.1126E+00
    -17.210  0.1328E+01  0.1193E+00
    -17.205  0.1702E+01  0.1278E+00
    -17.200  0.1433E+01  0.1350E+00
    -17.195  0.7511E+00  0.1388E+00
    -17.190  0.2428E+00  0.1400E+00
    -17.185  0.4831E-01  0.1403E+00
    -17.180  0.5907E-02  0.1403E+00
    -17.175  0.4950E-03  0.1403E+00
    -17.170  0.9030E-03  0.1403E+00
    -17.165  0.9171E-02  0.1404E+00
    -17.160  0.5850E-01  0.1407E+00
    -17.155  0.2295E+00  0.1418E+00
    -17.150  0.5542E+00  0.1446E+00
    -17.145  0.8248E+00  0.1487E+00
    -17.140  0.7567E+00  0.1525E+00
    -17.135  0.4280E+00  0.1547E+00
    -17.130  0.1491E+00  0.1554E+00
    -17.125  0.3197E-01  0.1556E+00
    -17.120  0.4216E-02  0.1556E+00
    -17.115  0.4084E-03  0.1556E+00
    -17.110  0.1245E-02  0.1556E+00
    -17.105  0.1365E-01  0.1557E+00
    -17.100  0.9315E-01  0.1562E+00
    -17.095  0.3909E+00  0.1581E+00
    -17.090  0.1010E+01  0.1632E+00
    -17.085  0.1607E+01  0.1713E+00
    -17.080  0.1577E+01  0.1792E+00
    -17.075  0.9536E+00  0.1840E+00
    -17.070  0.3563E+00  0.1858E+00
    -17.065  0.9323E-01  0.1862E+00
    -17.060  0.9431E-01  0.1867E+00
    -17.055  0.3604E+00  0.1885E+00
    -17.050  0.9602E+00  0.1933E+00
    -17.045  0.1580E+01  0.2013E+00
    -17.040  0.1604E+01  0.2093E+00
    -17.035  0.1003E+01  0.2144E+00
    -17.030  0.3865E+00  0.2163E+00
    -17.025  0.9170E-01  0.2168E+00
    -17.020  0.1338E-01  0.2168E+00
    -17.015  0.1198E-02  0.2168E+00
    -17.010  0.6572E-04  0.2168E+00
    -17.005  0.2218E-05  0.2168E+00
    -16.999  0.6338E-06  0.2168E+00
    -16.994  0.1906E-04  0.2168E+00
    -16.989  0.3777E-03  0.2168E+00
    -16.984  0.4586E-02  0.2169E+00
    -16.979  0.3417E-01  0.2170E+00
    -16.974  0.1565E+00  0.2178E+00
    -16.969  0.4410E+00  0.2200E+00
    -16.964  0.7658E+00  0.2239E+00
    -16.959  0.8197E+00  0.2280E+00
    -16.954  0.5409E+00  0.2307E+00
    -16.949  0.2203E+00  0.2318E+00
    -16.944  0.5901E-01  0.2321E+00
    -16.939  0.3889E-01  0.2323E+00
    -16.934  0.1446E+00  0.2330E+00
    -16.929  0.4190E+00  0.2351E+00
    -16.924  0.7575E+00  0.2389E+00
    -16.919  0.8881E+00  0.2434E+00
    -16.914  0.8485E+00  0.2477E+00
    -16.909  0.1068E+01  0.2530E+00
    -16.904  0.1556E+01  0.2608E+00
    -16.899  0.1668E+01  0.2692E+00
    -16.894  0.1135E+01  0.2749E+00
    -16.889  0.4780E+00  0.2773E+00
    -16.884  0.1240E+00  0.2780E+00
    -16.879  0.1979E-01  0.2781E+00
    -16.874  0.1967E-02  0.2781E+00
    -16.869  0.7145E-03  0.2781E+00
    -16.864  0.7572E-02  0.2781E+00
    -16.859  0.5876E-01  0.2784E+00
    -16.854  0.2804E+00  0.2798E+00
    -16.849  0.8233E+00  0.2839E+00
    -16.844  0.1489E+01  0.2914E+00
    -16.839  0.1661E+01  0.2998E+00
    -16.834  0.1142E+01  0.3055E+00
    -16.829  0.4837E+00  0.3079E+00
    -16.824  0.1262E+00  0.3086E+00
    -16.819  0.2024E-01  0.3087E+00
    -16.814  0.1993E-02  0.3087E+00
    -16.809  0.1204E-03  0.3087E+00
    -16.804  0.4449E-05  0.3087E+00
    -16.799  0.1005E-06  0.3087E+00
    -16.794  0.1386E-08  0.3087E+00
    -16.789  0.1123E-09  0.3087E+00
    -16.784  0.8969E-08  0.3087E+00
    -16.779  0.4876E-06  0.3087E+00
    -16.773  0.1619E-04  0.3087E+00
    -16.768  0.3288E-03  0.3087E+00
    -16.763  0.4092E-02  0.3087E+00
    -16.758  0.3125E-01  0.3089E+00
    -16.753  0.1467E+00  0.3096E+00
    -16.748  0.4240E+00  0.3117E+00
    -16.743  0.7606E+00  0.3155E+00
    -16.738  0.8823E+00  0.3200E+00
    -16.733  0.8292E+00  0.3241E+00
    -16.728  0.1037E+01  0.3293E+00
    -16.723  0.1535E+01  0.3371E+00
    -16.718  0.1676E+01  0.3455E+00
    -16.713  0.1162E+01  0.3513E+00
    -16.708  0.4991E+00  0.3538E+00
    -16.703  0.1399E+00  0.3545E+00
    -16.698  0.8387E-01  0.3549E+00
    -16.693  0.2953E+00  0.3564E+00
    -16.688  0.8469E+00  0.3607E+00
    -16.683  0.1507E+01  0.3682E+00
    -16.678  0.1653E+01  0.3765E+00
    -16.673  0.1118E+01  0.3822E+00
    -16.668  0.4658E+00  0.3845E+00
    -16.663  0.1195E+00  0.3851E+00
    -16.658  0.1885E-01  0.3852E+00
    -16.653  0.1826E-02  0.3852E+00
    -16.648  0.1085E-03  0.3852E+00
    -16.643  0.3977E-05  0.3852E+00
    -16.638  0.1817E-05  0.3852E+00
    -16.633  0.5324E-04  0.3852E+00
    -16.628  0.1002E-02  0.3852E+00
    -16.623  0.1156E-01  0.3853E+00
    -16.618  0.8190E-01  0.3857E+00
    -16.613  0.3566E+00  0.3875E+00
    -16.608  0.9555E+00  0.3923E+00
    -16.603  0.1578E+01  0.4002E+00
    -16.598  0.1606E+01  0.4083E+00
    -16.593  0.1008E+01  0.4133E+00
    -16.588  0.3895E+00  0.4153E+00
    -16.583  0.9271E-01  0.4157E+00
    -16.578  0.1356E-01  0.4158E+00
    -16.573  0.1218E-02  0.4158E+00
    -16.568  0.6707E-04  0.4158E+00
    -16.563  0.2259E-05  0.4158E+00
    -16.558  0.4650E-07  0.4158E+00
    -16.552  0.5859E-09  0.4158E+00
    -16.547  0.2802E-09  0.4158E+00
    -16.542  0.2210E-07  0.4158E+00
    -16.537  0.1080E-05  0.4158E+00
    -16.532  0.3226E-04  0.4158E+00
    -16.527  0.5896E-03  0.4158E+00
    -16.522  0.6604E-02  0.4159E+00
    -16.517  0.4541E-01  0.4161E+00
    -16.512  0.1921E+00  0.4170E+00
    -16.507  0.5020E+00  0.4196E+00
    -16.502  0.8278E+00  0.4237E+00
    -16.497  0.9642E+00  0.4286E+00
    -16.492  0.1162E+01  0.4344E+00
    -16.487  0.1828E+01  0.4436E+00
    -16.482  0.2507E+01  0.4562E+00
    -16.477  0.2284E+01  0.4676E+00
    -16.472  0.1300E+01  0.4742E+00
    -16.467  0.4575E+00  0.4765E+00
    -16.462  0.9925E-01  0.4770E+00
    -16.457  0.1326E-01  0.4770E+00
    -16.452  0.1273E-02  0.4770E+00
    -16.447  0.2909E-02  0.4771E+00
    -16.442  0.2704E-01  0.4772E+00
    -16.437  0.1573E+00  0.4780E+00
    -16.432  0.5628E+00  0.4808E+00
    -16.427  0.1240E+01  0.4870E+00
    -16.422  0.1684E+01  0.4955E+00
    -16.417  0.1410E+01  0.5026E+00
    -16.412  0.7276E+00  0.5062E+00
    -16.407  0.2313E+00  0.5074E+00
    -16.402  0.4523E-01  0.5076E+00
    -16.397  0.5435E-02  0.5077E+00
    -16.392  0.4007E-03  0.5077E+00
    -16.387  0.1809E-04  0.5077E+00
    -16.382  0.4996E-06  0.5077E+00
    -16.377  0.8424E-08  0.5077E+00
    -16.372  0.3548E-09  0.5077E+00
    -16.367  0.2320E-07  0.5077E+00
    -16.362  0.1224E-05  0.5077E+00
    -16.357  0.3945E-04  0.5077E+00
    -16.352  0.7776E-03  0.5077E+00
    -16.347  0.9392E-02  0.5077E+00
    -16.342  0.6962E-01  0.5081E+00
    -16.337  0.3172E+00  0.5096E+00
    -16.331  0.8894E+00  0.5141E+00
    -16.326  0.1537E+01  0.5218E+00
    -16.321  0.1636E+01  0.5301E+00
    -16.316  0.1074E+01  0.5354E+00
    -16.311  0.4346E+00  0.5376E+00
    -16.306  0.1082E+00  0.5382E+00
    -16.301  0.1658E-01  0.5383E+00
    -16.296  0.1559E-02  0.5383E+00
    -16.291  0.8983E-04  0.5383E+00
    -16.286  0.3193E-05  0.5383E+00
    -16.281  0.1332E-05  0.5383E+00
    -16.276  0.4055E-04  0.5383E+00
    -16.271  0.7960E-03  0.5383E+00
    -16.266  0.9574E-02  0.5383E+00
    -16.261  0.7067E-01  0.5387E+00
    -16.256  0.3207E+00  0.5403E+00
    -16.251  0.8955E+00  0.5448E+00
    -16.246  0.1541E+01  0.5525E+00
    -16.241  0.1634E+01  0.5607E+00
    -16.236  0.1068E+01  0.5661E+00
    -16.231  0.4322E+00  0.5683E+00
    -16.226  0.1258E+00  0.5689E+00
    -16.221  0.1368E+00  0.5696E+00
    -16.216  0.4704E+00  0.5719E+00
    -16.211  0.1125E+01  0.5776E+00
    -16.206  0.1680E+01  0.5860E+00
    -16.201  0.1631E+01  0.5942E+00
    -16.196  0.1229E+01  0.6004E+00
    -16.191  0.1016E+01  0.6055E+00
    -16.186  0.8995E+00  0.6100E+00
    -16.181  0.6051E+00  0.6131E+00
    -16.176  0.2629E+00  0.6144E+00
    -16.171  0.7095E-01  0.6147E+00
    -16.166  0.1180E-01  0.6148E+00
    -16.161  0.1245E-02  0.6148E+00
    -16.156  0.8584E-03  0.6148E+00
    -16.151  0.9447E-02  0.6148E+00
    -16.146  0.6992E-01  0.6152E+00
    -16.141  0.3182E+00  0.6168E+00
    -16.136  0.8912E+00  0.6213E+00
    -16.131  0.1538E+01  0.6290E+00
    -16.126  0.1636E+01  0.6372E+00
    -16.121  0.1073E+01  0.6426E+00
    -16.116  0.4334E+00  0.6448E+00
    -16.110  0.1078E+00  0.6453E+00
    -16.105  0.1649E-01  0.6454E+00
    -16.100  0.1548E-02  0.6454E+00
    -16.095  0.8914E-04  0.6454E+00
    -16.090  0.3140E-05  0.6454E+00
    -16.085  0.6759E-07  0.6454E+00
    -16.080  0.8878E-09  0.6454E+00
    -16.075  0.7104E-11  0.6454E+00
    -16.070  0.5177E-13  0.6454E+00
    -16.065  0.3656E-11  0.6454E+00
    -16.060  0.4872E-09  0.6454E+00
    -16.055  0.3956E-07  0.6454E+00
    -16.050  0.1960E-05  0.6454E+00
    -16.045  0.5931E-04  0.6454E+00
    -16.040  0.1098E-02  0.6454E+00
    -16.035  0.1246E-01  0.6455E+00
    -16.030  0.8680E-01  0.6459E+00
    -16.025  0.3717E+00  0.6478E+00
    -16.020  0.9798E+00  0.6527E+00
    -16.015  0.1591E+01  0.6607E+00
    -16.010  0.1593E+01  0.6687E+00
    -16.005  0.9833E+00  0.6736E+00
    -16.000  0.3740E+00  0.6755E+00
    -15.995  0.8927E-01  0.6760E+00
    -15.990  0.2843E-01  0.6761E+00
    -15.985  0.8974E-01  0.6766E+00
    -15.980  0.3056E+00  0.6781E+00
    -15.975  0.6533E+00  0.6814E+00
    -15.970  0.8973E+00  0.6859E+00
    -15.965  0.9376E+00  0.6906E+00
    -15.960  0.1116E+01  0.6962E+00
    -15.955  0.1557E+01  0.7040E+00
    -15.950  0.1693E+01  0.7125E+00
    -15.945  0.1190E+01  0.7185E+00
    -15.940  0.5197E+00  0.7211E+00
    -15.935  0.1399E+00  0.7218E+00
    -15.930  0.2319E-01  0.7219E+00
    -15.925  0.2650E-02  0.7219E+00
    -15.920  0.4326E-02  0.7220E+00
    -15.915  0.3670E-01  0.7221E+00
    -15.910  0.1979E+00  0.7231E+00
    -15.905  0.6569E+00  0.7264E+00
    -15.900  0.1343E+01  0.7332E+00
    -15.895  0.1691E+01  0.7417E+00
    -15.890  0.1314E+01  0.7483E+00
    -15.884  0.6320E+00  0.7514E+00
    -15.879  0.2115E+00  0.7525E+00
    -15.874  0.1623E+00  0.7533E+00
    -15.869  0.3935E+00  0.7553E+00
    -15.864  0.7277E+00  0.7590E+00
    -15.859  0.8367E+00  0.7632E+00
    -15.854  0.5934E+00  0.7661E+00
    -15.849  0.2593E+00  0.7674E+00
    -15.844  0.6978E-01  0.7678E+00
    -15.839  0.1155E-01  0.7679E+00
    -15.834  0.1229E-02  0.7679E+00
    -15.829  0.1112E-02  0.7679E+00
    -15.824  0.1191E-01  0.7679E+00
    -15.819  0.8381E-01  0.7683E+00
    -15.814  0.3625E+00  0.7702E+00
    -15.809  0.9651E+00  0.7750E+00
    -15.804  0.1583E+01  0.7830E+00
    -15.799  0.1601E+01  0.7910E+00
    -15.794  0.9980E+00  0.7960E+00
    -15.789  0.3833E+00  0.7979E+00
    -15.784  0.9063E-01  0.7984E+00
    -15.779  0.1317E-01  0.7985E+00
    -15.774  0.1176E-02  0.7985E+00
    -15.769  0.6429E-04  0.7985E+00
    -15.764  0.2151E-05  0.7985E+00
    -15.759  0.4398E-07  0.7985E+00
    -15.754  0.5485E-09  0.7985E+00
    -15.749  0.4168E-11  0.7985E+00
    -15.744  0.1895E-13  0.7985E+00
    -15.739  0.0000E+00  0.7985E+00
    -15.734  0.3383E-15  0.7985E+00
    -15.729  0.5684E-13  0.7985E+00
    -15.724  0.1122E-10  0.7985E+00
    -15.719  0.1340E-08  0.7985E+00
    -15.714  0.9759E-07  0.7985E+00
    -15.709  0.4337E-05  0.7985E+00
    -15.704  0.1178E-03  0.7985E+00
    -15.699  0.1962E-02  0.7985E+00
    -15.694  0.2007E-01  0.7986E+00
    -15.689  0.1269E+00  0.7992E+00
    -15.684  0.5019E+00  0.8017E+00
    -15.679  0.1271E+01  0.8081E+00
    -15.674  0.2166E+01  0.8190E+00
    -15.669  0.2665E+01  0.8324E+00
    -15.663  0.2498E+01  0.8449E+00
    -15.658  0.1750E+01  0.8537E+00
    -15.653  0.8555E+00  0.8580E+00
    -15.648  0.2890E+00  0.8595E+00
    -15.643  0.1617E+00  0.8603E+00
    -15.638  0.4372E+00  0.8625E+00
    -15.633  0.1069E+01  0.8678E+00
    -15.628  0.1634E+01  0.8761E+00
    -15.623  0.1541E+01  0.8838E+00
    -15.618  0.8955E+00  0.8883E+00
    -15.613  0.3207E+00  0.8899E+00
    -15.608  0.7068E-01  0.8903E+00
    -15.603  0.9576E-02  0.8903E+00
    -15.598  0.7962E-03  0.8903E+00
    -15.593  0.4199E-04  0.8903E+00
    -15.588  0.4644E-04  0.8903E+00
    -15.583  0.8723E-03  0.8903E+00
    -15.578  0.1032E-01  0.8904E+00
    -15.573  0.7495E-01  0.8907E+00
    -15.568  0.3345E+00  0.8924E+00
    -15.563  0.9191E+00  0.8970E+00
    -15.558  0.1556E+01  0.9048E+00
    -15.553  0.1623E+01  0.9130E+00
    -15.548  0.1044E+01  0.9182E+00
    -15.543  0.4139E+00  0.9203E+00
    -15.538  0.1011E+00  0.9208E+00
    -15.533  0.1708E-01  0.9209E+00
    -15.528  0.1862E-01  0.9210E+00
    -15.523  0.9447E-01  0.9215E+00
    -15.518  0.3183E+00  0.9231E+00
    -15.513  0.6608E+00  0.9264E+00
    -15.508  0.8457E+00  0.9307E+00
    -15.503  0.6672E+00  0.9340E+00
    -15.498  0.3245E+00  0.9356E+00
    -15.493  0.9717E-01  0.9361E+00
    -15.488  0.1790E-01  0.9362E+00
    -15.483  0.2059E-02  0.9362E+00
    -15.478  0.7990E-03  0.9362E+00
    -15.473  0.8196E-02  0.9363E+00
    -15.468  0.6253E-01  0.9366E+00
    -15.463  0.2934E+00  0.9381E+00
    -15.458  0.8472E+00  0.9423E+00
    -15.453  0.1507E+01  0.9499E+00
    -15.448  0.1653E+01  0.9582E+00
    -15.442  0.1117E+01  0.9638E+00
    -15.437  0.4654E+00  0.9661E+00
    -15.432  0.1194E+00  0.9667E+00
    -15.427  0.1883E-01  0.9668E+00
    -15.422  0.1823E-02  0.9668E+00
    -15.417  0.1083E-03  0.9668E+00
    -15.412  0.3934E-05  0.9668E+00
    -15.407  0.8735E-07  0.9668E+00
    -15.402  0.1184E-08  0.9668E+00
    -15.397  0.9870E-11  0.9668E+00
    -15.392  0.1720E-10  0.9668E+00
    -15.387  0.1833E-08  0.9668E+00
    -15.382  0.1195E-06  0.9668E+00
    -15.377  0.4751E-05  0.9668E+00
    -15.372  0.1155E-03  0.9668E+00
    -15.367  0.1720E-02  0.9668E+00
    -15.362  0.1570E-01  0.9669E+00
    -15.357  0.8813E-01  0.9674E+00
    -15.352  0.3052E+00  0.9689E+00
    -15.347  0.6613E+00  0.9722E+00
    -15.342  0.9501E+00  0.9770E+00
    -15.337  0.1109E+01  0.9826E+00
    -15.332  0.1416E+01  0.9897E+00
    -15.327  0.1839E+01  0.9989E+00
    -15.322  0.1989E+01  0.1009E+01
    -15.317  0.1963E+01  0.1019E+01
    -15.312  0.1955E+01  0.1029E+01
    -15.307  0.1619E+01  0.1037E+01
    -15.302  0.9169E+00  0.1041E+01
    -15.297  0.3456E+00  0.1043E+01
    -15.292  0.1898E+00  0.1044E+01
    -15.287  0.4697E+00  0.1046E+01
    -15.282  0.1110E+01  0.1052E+01
    -15.277  0.1650E+01  0.1060E+01
    -15.272  0.1513E+01  0.1068E+01
    -15.267  0.8548E+00  0.1072E+01
    -15.262  0.2976E+00  0.1074E+01
    -15.257  0.6375E-01  0.1074E+01
    -15.252  0.8395E-02  0.1074E+01
    -15.247  0.6784E-03  0.1074E+01
    -15.242  0.3358E-04  0.1074E+01
    -15.237  0.1039E-05  0.1074E+01
    -15.232  0.1184E-05  0.1074E+01
    -15.227  0.3778E-04  0.1074E+01
    -15.221  0.7497E-03  0.1074E+01
    -15.216  0.9114E-02  0.1074E+01
    -15.211  0.6800E-01  0.1074E+01
    -15.206  0.3118E+00  0.1076E+01
    -15.201  0.8801E+00  0.1080E+01
    -15.196  0.1530E+01  0.1088E+01
    -15.191  0.1640E+01  0.1096E+01
    -15.186  0.1084E+01  0.1102E+01
    -15.181  0.4413E+00  0.1104E+01
    -15.176  0.1106E+00  0.1104E+01
    -15.171  0.1711E-01  0.1105E+01
    -15.166  0.2641E-02  0.1105E+01
    -15.161  0.1046E-01  0.1105E+01
    -15.156  0.6427E-01  0.1105E+01
    -15.151  0.2450E+00  0.1106E+01
    -15.146  0.5750E+00  0.1109E+01
    -15.141  0.8317E+00  0.1113E+01
    -15.136  0.7416E+00  0.1117E+01
    -15.131  0.4076E+00  0.1119E+01
    -15.126  0.1380E+00  0.1120E+01
    -15.121  0.2876E-01  0.1120E+01
    -15.116  0.3696E-02  0.1120E+01
    -15.111  0.5913E-03  0.1120E+01
    -15.106  0.4311E-02  0.1120E+01
    -15.101  0.3752E-01  0.1120E+01
    -15.096  0.2013E+00  0.1121E+01
    -15.091  0.6641E+00  0.1124E+01
    -15.086  0.1350E+01  0.1131E+01
    -15.081  0.1691E+01  0.1140E+01
    -15.076  0.1306E+01  0.1146E+01
    -15.071  0.6216E+00  0.1149E+01
    -15.066  0.1822E+00  0.1150E+01
    -15.061  0.3286E-01  0.1150E+01
    -15.056  0.3640E-02  0.1151E+01
    -15.051  0.2473E-03  0.1151E+01
    -15.046  0.1029E-04  0.1151E+01
    -15.041  0.2626E-06  0.1151E+01
    -15.036  0.7652E-07  0.1151E+01
    -15.031  0.3338E-05  0.1151E+01
    -15.026  0.9396E-04  0.1151E+01
    -15.021  0.1619E-02  0.1151E+01
    -15.016  0.1709E-01  0.1151E+01
    -15.011  0.1108E+00  0.1151E+01
    -15.006  0.4419E+00  0.1153E+01
    -15.001  0.1085E+01  0.1159E+01
    -14.995  0.1641E+01  0.1167E+01
    -14.990  0.1532E+01  0.1175E+01
    -14.985  0.9032E+00  0.1179E+01
    -14.980  0.4549E+00  0.1182E+01
    -14.975  0.5967E+00  0.1185E+01
    -14.970  0.1209E+01  0.1191E+01
    -14.965  0.1686E+01  0.1199E+01
    -14.960  0.1509E+01  0.1207E+01
    -14.955  0.1066E+01  0.1212E+01
    -14.950  0.1109E+01  0.1218E+01
    -14.945  0.1565E+01  0.1225E+01
    -14.940  0.1655E+01  0.1234E+01
    -14.935  0.1108E+01  0.1239E+01
    -14.930  0.4674E+00  0.1242E+01
    -14.925  0.1876E+00  0.1243E+01
    -14.920  0.3401E+00  0.1244E+01
    -14.915  0.8993E+00  0.1249E+01
    -14.910  0.1542E+01  0.1257E+01
    -14.905  0.1633E+01  0.1265E+01
    -14.900  0.1066E+01  0.1270E+01
    -14.895  0.4289E+00  0.1272E+01
    -14.890  0.1062E+00  0.1273E+01
    -14.885  0.1617E-01  0.1273E+01
    -14.880  0.1512E-02  0.1273E+01
    -14.875  0.8666E-04  0.1273E+01
    -14.870  0.3042E-05  0.1273E+01
    -14.865  0.2679E-06  0.1273E+01
    -14.860  0.8232E-05  0.1273E+01
    -14.855  0.2043E-03  0.1273E+01
    -14.850  0.3103E-02  0.1273E+01
    -14.845  0.2892E-01  0.1273E+01
    -14.840  0.1655E+00  0.1274E+01
    -14.835  0.5826E+00  0.1277E+01
    -14.830  0.1263E+01  0.1283E+01
    -14.825  0.1687E+01  0.1292E+01
    -14.820  0.1390E+01  0.1299E+01
    -14.815  0.7057E+00  0.1302E+01
    -14.810  0.2209E+00  0.1303E+01
    -14.805  0.4550E-01  0.1304E+01
    -14.800  0.2973E-01  0.1304E+01
    -14.795  0.1238E+00  0.1304E+01
    -14.790  0.3796E+00  0.1306E+01
    -14.785  0.7189E+00  0.1310E+01
    -14.780  0.8391E+00  0.1314E+01
    -14.774  0.6038E+00  0.1317E+01
    -14.769  0.2678E+00  0.1318E+01
    -14.764  0.7313E-01  0.1319E+01
    -14.759  0.1228E-01  0.1319E+01
    -14.754  0.1298E-02  0.1319E+01
    -14.749  0.7222E-03  0.1319E+01
    -14.744  0.8026E-02  0.1319E+01
    -14.739  0.6152E-01  0.1319E+01
    -14.734  0.2899E+00  0.1321E+01
    -14.729  0.8410E+00  0.1325E+01
    -14.724  0.1503E+01  0.1332E+01
    -14.719  0.1655E+01  0.1341E+01
    -14.714  0.1124E+01  0.1346E+01
    -14.709  0.4702E+00  0.1349E+01
    -14.704  0.1211E+00  0.1349E+01
    -14.699  0.1919E-01  0.1349E+01