    2    2    1    1
  0.7464293E+02  0.3282343E-09  0.3282343E-09  0.1600000E-08  0.5000000E-15
  1.000000000000000E-004
  CAR 
 unknown system                          
     10     80     16
 
  0.0000000E+00  0.0000000E+00  0.0000000E+00  0.1275510E-02
      1        -17.472992   1.000000
      2         -9.758898   1.000000
      3         -3.766333   1.000000
      4         -3.496762   1.000000
      5         -3.496762   1.000000
      6          0.373882   0.000000
      7          0.527303   0.000000
      8          0.527303   0.000000
      9          2.024621   0.000000
     10          2.462153   0.000000
     11          3.814076   0.000000
     12          4.439420   0.000000
     13          6.478401   0.000000
     14          6.478401   0.000000
     15          6.916228   0.000000
     16          7.565763   0.000000
 
  0.3571429E-01  0.0000000E+00  0.0000000E+00  0.7653061E-02
      1        -17.452463   1.000000
      2         -9.744922   1.000000
      3         -3.754047   1.000000
      4         -3.689719   1.000000
      5         -3.546174   1.000000
      6          0.431601   0.000000
      7          0.590230   0.000000
      8          0.598689   0.000000
      9          2.050203   0.000000
     10          2.483440   0.000000
     11          3.830189   0.000000
     12          4.462469   0.000000
     13          6.248509   0.000000
     14          6.438005   0.000000
     15          7.008975   0.000000
     16          7.556400   0.000000
 
  0.7142857E-01  0.0000000E+00  0.0000000E+00  0.7653061E-02
      1        -17.390949   1.000000
      2         -9.704201   1.000000
      3         -4.177914   1.000000
      4         -3.718049   1.000000
      5         -3.682986   1.000000
      6          0.279695   0.000000
      7          0.764791   0.000000
      8          1.052274   0.000000
      9          2.128802   0.000000
     10          2.546668   0.000000
     11          3.874882   0.000000
     12          4.531514   0.000000
     13          5.804117   0.000000
     14          6.343270   0.000000
     15          7.125461   0.000000
     16          7.518786   0.000000
 
  0.1071429E+00 -0.6938894E-17  0.0000000E+00  0.7653061E-02
      1        -17.288682   1.000000
      2         -9.640687   1.000000
      3         -4.815807   1.000000
      4         -3.881520   1.000000
      5         -3.661307   1.000000
      6          0.036120   0.000000
      7          1.014807   0.000000
      8          1.613391   0.000000
      9          2.267529   0.000000
     10          2.652638   0.000000
     11          3.936528   0.000000
     12          4.646212   0.000000
     13          5.346485   0.000000
     14          6.248527   0.000000
     15          7.109648   0.000000
     16          7.509102   0.000000
 
  0.1428571E+00  0.0000000E+00  0.0000000E+00  0.7653061E-02
      1        -17.146048   1.000000
      2         -9.562905   1.000000
      3         -5.505168   1.000000
      4         -4.114263   1.000000
      5         -3.589060   1.000000
      6         -0.255349   0.000000
      7          1.294912   0.000000
      8          2.070262   0.000000
      9          2.458947   0.000000
     10          2.825927   0.000000
     11          4.010166   0.000000
     12          4.805341   0.000000
     13          5.040841   0.000000
     14          6.207708   0.000000
     15          6.863275   0.000000
     16          7.637188   0.000000
 
  0.1785714E+00 -0.2775558E-16  0.0000000E+00  0.7653061E-02
      1        -16.963633   1.000000
      2         -9.488598   1.000000
      3         -6.183190   1.000000
      4         -4.359779   1.000000
      5         -3.510787   1.000000
      6         -0.564694   0.000000
      7          1.560913   0.000000
      8          2.245519   0.000000
      9          2.605962   0.000000
     10          3.091746   0.000000
     11          4.180364   0.000000
     12          4.983538   0.000000
     13          5.059852   0.000000
     14          6.265545   0.000000
     15          6.534830   0.000000
     16          7.828260   0.000000
 
  0.2142857E+00 -0.1387779E-16  0.0000000E+00  0.7653061E-02
      1        -16.742386   1.000000
      2         -9.455044   1.000000
      3         -6.789690   1.000000
      4         -4.601673   1.000000
      5         -3.442193   1.000000
      6         -0.864330   0.000000
      7          1.776660   0.000000
      8          2.040542   0.000000
      9          2.823762   0.000000
     10          3.352877   0.000000
     11          4.469728   0.000000
     12          5.211870   0.000000
     13          5.396449   0.000000
     14          6.234991   0.000000
     15          6.455364   0.000000
     16          8.045202   0.000000
 
  0.2500000E+00 -0.2775558E-16  0.0000000E+00  0.7653061E-02
      1        -16.483582   1.000000
      2         -9.531974   1.000000
      3         -7.241605   1.000000
      4         -4.829223   1.000000
      5         -3.407988   1.000000
      6         -1.125838   0.000000
      7          1.647804   0.000000
      8          1.923405   0.000000
      9          3.119393   0.000000
     10          3.616557   0.000000
     11          4.679910   0.000000
     12          5.467693   0.000000
     13          5.851581   0.000000
     14          6.207831   0.000000
     15          6.792807   0.000000
     16          8.266662   0.000000
 
  0.2857143E+00  0.0000000E+00  0.0000000E+00  0.7653061E-02
      1        -16.189352   1.000000
      2         -9.794690   1.000000
      3         -7.456466   1.000000
      4         -5.035390   1.000000
      5         -3.441361   1.000000
      6         -1.319369   0.000000
      7          1.230202   0.000000
      8          2.002258   0.000000
      9          3.462786   0.000000
     10          3.871304   0.000000
     11          4.725666   0.000000
     12          5.689603   0.000000
     13          6.058592   0.000000
     14          6.845059   0.000000
     15          7.268587   0.000000
     16          8.455069   0.000000
 
  0.3214286E+00 -0.5551115E-16  0.0000000E+00  0.7653061E-02
      1        -15.862935   1.000000
      2        -10.231229   1.000000
      3         -7.441684   1.000000
      4         -5.215709   1.000000
      5         -3.569697   1.000000
      6         -1.424156   0.000000
      7          0.856531   0.000000
      8          2.029282   0.000000
      9          3.825360   0.000000
     10          4.007857   0.000000
     11          4.763137   0.000000
     12          5.955565   0.000000
     13          6.393092   0.000000
     14          7.546179   0.000000
     15          7.858270   0.000000
     16          8.591922   0.000000
 
  0.3571429E+00  0.0000000E+00  0.0000000E+00  0.7653061E-02
      1        -15.510245   1.000000
      2        -10.755639   1.000000
      3         -7.280665   1.000000
      4         -5.366461   1.000000
      5         -3.792459   1.000000
      6         -1.448350   0.000000
      7          0.559972   0.000000
      8          2.024274   0.000000
      9          3.794618   0.000000
     10          4.318342   0.000000
     11          5.030752   0.000000
     12          6.291165   0.000000
     13          6.810622   0.000000
     14          7.901429   0.000000
     15          8.518478   0.000000
     16          8.903255   0.000000
 
  0.3928571E+00 -0.2775558E-16  0.0000000E+00  0.7653061E-02
      1        -15.142324   1.000000
      2        -11.293346   1.000000
      3         -7.046209   1.000000
      4         -5.485700   1.000000
      5         -4.077260   1.000000
      6         -1.426428   0.000000
      7          0.355147   0.000000
      8          2.004410   0.000000
      9          3.541575   0.000000
     10          4.791562   0.000000
     11          5.442052   0.000000
     12          6.650573   0.000000
     13          7.281173   0.000000
     14          7.883950   0.000000
     15          8.644634   0.000000
     16          9.164338   0.000000
 
  0.4285714E+00 -0.2775558E-16  0.0000000E+00  0.7653061E-02
      1        -14.782923   1.000000
      2        -11.788183   1.000000
      3         -6.792415   1.000000
      4         -5.571742   1.000000
      5         -4.374421   1.000000
      6         -1.394755   0.000000
      7          0.238759   0.000000
      8          1.982350   0.000000
      9          3.299320   0.000000
     10          5.310459   0.000000
     11          5.912242   0.000000
     12          6.955027   0.000000
     13          7.694311   0.000000
     14          7.845838   0.000000
     15          8.110227   0.000000
     16          8.807784   0.000000
 
  0.4642857E+00 -0.2775558E-16  0.0000000E+00  0.7653061E-02
      1        -14.487072   1.000000
      2        -12.169810   1.000000
      3         -6.579810   1.000000
      4         -5.623715   1.000000
      5         -4.616884   1.000000
      6         -1.373611   0.000000
      7          0.189507   0.000000
      8          1.966127   0.000000
      9          3.129509   0.000000
     10          5.862462   0.000000
     11          6.373942   0.000000
     12          7.020567   0.000000
     13          7.338206   0.000000
     14          7.893769   0.000000
     15          8.375977   0.000000
     16          8.451113   0.000000
 
  0.5000000E+00 -0.5551115E-16  0.0000000E+00  0.3826531E-02
      1        -14.362489   1.000000
      2        -12.323783   1.000000
      3         -6.491743   1.000000
      4         -5.641288   1.000000
      5         -4.715601   1.000000
      6         -1.367163   0.000000
      7          0.177840   0.000000
      8          1.960042   0.000000
      9          3.068433   0.000000
     10          6.390889   0.000000
     11          6.403053   0.000000
     12          6.851137   0.000000
     13          7.218394   0.000000
     14          7.711499   0.000000
     15          8.488153   0.000000
     16          8.943047   0.000000
 
  0.3571429E-01  0.3571429E-01  0.0000000E+00  0.7653061E-02
      1        -17.411443   1.000000
      2         -9.717577   1.000000
      3         -4.021083   1.000000
      4         -3.730004   1.000000
      5         -3.646972   1.000000
      6          0.453537   0.000000
      7          0.524928   0.000000
      8          0.975422   0.000000
      9          2.102362   0.000000
     10          2.525559   0.000000
     11          3.860511   0.000000
     12          4.508500   0.000000
     13          5.940523   0.000000
     14          6.350385   0.000000
     15          7.110139   0.000000
     16          7.532611   0.000000
 
  0.7142857E-01  0.3571429E-01  0.0000000E+00  0.1530612E-01
      1        -17.329549   1.000000
      2         -9.665359   1.000000
      3         -4.563363   1.000000
      4         -3.832995   1.000000
      5         -3.683446   1.000000
      6          0.269545   0.000000
      7          0.715737   0.000000
      8          1.490272   0.000000
      9          2.212330   0.000000
     10          2.608473   0.000000
     11          3.912526   0.000000
     12          4.600406   0.000000
     13          5.517470   0.000000
     14          6.219332   0.000000
     15          7.212880   0.000000
     16          7.481501   0.000000
 
  0.1071429E+00  0.3571429E-01  0.0000000E+00  0.1530612E-01
      1        -17.207093   1.000000
      2         -9.594294   1.000000
      3         -5.207500   1.000000
      4         -4.068577   1.000000
      5         -3.618829   1.000000
      6          0.004873   0.000000
      7          0.998837   0.000000
      8          1.982497   0.000000
      9          2.393748   0.000000
     10          2.737538   0.000000
     11          3.968924   0.000000
     12          4.737676   0.000000
     13          5.137480   0.000000
     14          6.129129   0.000000
     15          7.123174   0.000000
     16          7.538468   0.000000
 
  0.1428571E+00  0.3571429E-01  0.0000000E+00  0.1530612E-01
      1        -17.044550   1.000000
      2         -9.516886   1.000000
      3         -5.877067   1.000000
      4         -4.325233   1.000000
      5         -3.543018   1.000000
      6         -0.292587   0.000000
      7          1.295778   0.000000
      8          2.282435   0.000000
      9          2.570707   0.000000
     10          2.958989   0.000000
     11          4.049839   0.000000
     12          4.912471   0.000000
     13          4.981087   0.000000
     14          6.135699   0.000000
     15          6.866201   0.000000
     16          7.713997   0.000000
 
  0.1785714E+00  0.3571429E-01  0.0000000E+00  0.1530612E-01
      1        -16.842666   1.000000
      2         -9.459203   1.000000
      3         -6.511956   1.000000
      4         -4.583214   1.000000
      5         -3.468123   1.000000
      6         -0.594954   0.000000
      7          1.554615   0.000000
      8          2.259647   0.000000
      9          2.720041   0.000000
     10          3.228196   0.000000
     11          4.267006   0.000000
     12          5.067974   0.000000
     13          5.171956   0.000000
     14          6.232082   0.000000
     15          6.648509   0.000000
     16          7.924599   0.000000
 
  0.2142857E+00  0.3571429E-01  0.0000000E+00  0.1530612E-01
      1        -16.602528   1.000000
      2         -9.473951   1.000000
      3         -7.040662   1.000000
      4         -4.829261   1.000000
      5         -3.413651   1.000000
      6         -0.875789   0.000000
      7          1.725287   0.000000
      8          1.944521   0.000000
      9          2.982841   0.000000
     10          3.491073   0.000000
     11          4.539440   0.000000
     12          5.329449   0.000000
     13          5.506990   0.000000
     14          6.190018   0.000000
     15          6.832525   0.000000
     16          8.149174   0.000000
 
  0.2500000E+00  0.3571429E-01  0.0000000E+00  0.1530612E-01
      1        -16.325815   1.000000
      2         -9.641258   1.000000
      3         -7.371659   1.000000
      4         -5.054772   1.000000
      5         -3.408319   1.000000
      6         -1.105864   0.000000
      7          1.477255   0.000000
      8          1.886030   0.000000
      9          3.303244   0.000000
     10          3.762820   0.000000
     11          4.699961   0.000000
     12          5.581591   0.000000
     13          5.900312   0.000000
     14          6.267792   0.000000
     15          7.362203   0.000000
     16          8.364754   0.000000
 
  0.2857143E+00  0.3571429E-01  0.0000000E+00  0.1530612E-01
      1        -16.015055   1.000000
      2         -9.999921   1.000000
      3         -7.459745   1.000000
      4         -5.253617   1.000000
      5         -3.484237   1.000000
      6         -1.257051   0.000000
      7          1.079672   0.000000
      8          1.930063   0.000000
      9          3.663775   0.000000
     10          3.987611   0.000000
     11          4.732848   0.000000
     12          5.821847   0.000000
     13          6.226601   0.000000
     14          6.750054   0.000000
     15          8.029904   0.000000
     16          8.541702   0.000000
 
  0.3214286E+00  0.3571429E-01  0.0000000E+00  0.1530612E-01
      1        -15.674625   1.000000
      2        -10.489837   1.000000
      3         -7.361719   1.000000
      4         -5.421938   1.000000
      5         -3.658048   1.000000
      6         -1.319254   0.000000
      7          0.736647   0.000000
      8          1.938942   0.000000
      9          3.909092   0.000000
     10          4.140559   0.000000
     11          4.884934   0.000000
     12          6.128314   0.000000
     13          6.612849   0.000000
     14          7.326384   0.000000
     15          8.476568   0.000000
     16          8.914439   0.000000
 
  0.3571429E+00  0.3571429E-01  0.0000000E+00  0.1530612E-01
      1        -15.312443   1.000000
      2        -11.026445   1.000000
      3         -7.160356   1.000000
      4         -5.555677   1.000000
      5         -3.914401   1.000000
      6         -1.312412   0.000000
      7          0.473956   0.000000
      8          1.930412   0.000000
      9          3.712881   0.000000
     10          4.569297   0.000000
     11          5.240674   0.000000
     12          6.485422   0.000000
     13          7.058804   0.000000
     14          7.730276   0.000000
     15          8.664197   0.000000
     16          8.962707   0.000000
 
  0.3928571E+00  0.3571429E-01  0.0000000E+00  0.1530612E-01
      1        -14.944370   1.000000
      2        -11.548223   1.000000
      3         -6.917033   1.000000
      4         -5.651180   1.000000
      5         -4.212734   1.000000
      6         -1.274063   0.000000
      7          0.298364   0.000000
      8          1.919734   0.000000
      9          3.450027   0.000000
     10          5.066456   0.000000
     11          5.689484   0.000000
     12          6.839227   0.000000
     13          7.545319   0.000000
     14          7.812471   0.000000
     15          8.345460   0.000000
     16          9.042286   0.000000
 
  0.4285714E+00  0.3571429E-01  0.0000000E+00  0.1530612E-01
      1        -14.606401   1.000000
      2        -11.996940   1.000000
      3         -6.687240   1.000000
      4         -5.704559   1.000000
      5         -4.496383   1.000000
      6         -1.236899   0.000000
      7          0.201862   0.000000
      8          1.914932   0.000000
      9          3.228739   0.000000
     10          5.604389   0.000000
     11          6.172700   0.000000
     12          7.074107   0.000000
     13          7.542196   0.000000
     14          7.966283   0.000000
     15          8.123188   0.000000
     16          8.577143   0.000000
 
  0.4642857E+00  0.3571429E-01  0.0000000E+00  0.1530612E-01
      1        -14.379691   1.000000
      2        -12.281167   1.000000
      3         -6.540383   1.000000
      4         -5.719550   1.000000
      5         -4.684234   1.000000
      6         -1.216841   0.000000
      7          0.163428   0.000000
      8          1.915244   0.000000
      9          3.101870   0.000000
     10          6.165193   0.000000
     11          6.544475   0.000000
     12          6.905002   0.000000
     13          7.268067   0.000000
     14          7.788583   0.000000
     15          8.423258   0.000000
     16          8.694780   0.000000
 
  0.7142857E-01  0.7142857E-01  0.0000000E+00  0.7653061E-02
      1        -17.227467   1.000000
      2         -9.605323   1.000000
      3         -5.082337   1.000000
      4         -4.084572   1.000000
      5         -3.629061   1.000000
      6          0.306896   0.000000
      7          0.659354   0.000000
      8          1.976846   0.000000
      9          2.374980   0.000000
     10          2.706790   0.000000
     11          3.953358   0.000000
     12          4.714994   0.000000
     13          5.193129   0.000000
     14          6.062828   0.000000
     15          7.369396   0.000000
     16          7.396636   0.000000
 
  0.1071429E+00  0.7142857E-01  0.0000000E+00  0.1530612E-01
      1        -17.085080   1.000000
      2         -9.533326   1.000000
      3         -5.671419   1.000000
      4         -4.381631   1.000000
      5         -3.560325   1.000000
      6          0.122768   0.000000
      7          0.867450   0.000000
      8          2.309503   0.000000
      9          2.615261   0.000000
     10          2.850943   0.000000
     11          3.966833   0.000000
     12          4.873896   0.000000
     13          4.960216   0.000000
     14          6.038725   0.000000
     15          7.224938   0.000000
     16          7.568233   0.000000
 
  0.1428571E+00  0.7142857E-01  0.0000000E+00  0.1530612E-01
      1        -16.902991   1.000000
      2         -9.468280   1.000000
      3         -6.271877   1.000000
      4         -4.685178   1.000000
      5         -3.486384   1.000000
      6         -0.148268   0.000000
      7          1.155047   0.000000
      8          2.476211   0.000000
      9          2.707089   0.000000
     10          3.092331   0.000000
     11          4.013086   0.000000
     12          4.942226   0.000000
     13          5.079930   0.000000
     14          6.194126   0.000000
     15          7.025962   0.000000
     16          7.782100   0.000000
 
  0.1785714E+00  0.7142857E-01  0.0000000E+00  0.1530612E-01
      1        -16.682113   1.000000
      2         -9.448642   1.000000
      3         -6.817213   1.000000
      4         -4.973930   1.000000
      5         -3.422145   1.000000
      6         -0.426833   0.000000
      7          1.403247   0.000000
      8          2.266335   0.000000
      9          2.896815   0.000000
     10          3.359001   0.000000
     11          4.203213   0.000000
     12          5.109100   0.000000
     13          5.324961   0.000000
     14          6.334515   0.000000
     15          7.049371   0.000000
     16          8.006994   0.000000
 
  0.2142857E+00  0.7142857E-01  0.0000000E+00  0.1530612E-01
      1        -16.423743   1.000000
      2         -9.541923   1.000000
      3         -7.221696   1.000000
      4         -5.237225   1.000000
      5         -3.390329   1.000000
      6         -0.678174   0.000000
      7          1.564401   0.000000
      8          1.865645   0.000000
      9          3.189341   0.000000
     10          3.642161   0.000000
     11          4.465254   0.000000
     12          5.386044   0.000000
     13          5.606553   0.000000
     14          6.236094   0.000000
     15          7.544345   0.000000
     16          8.231724   0.000000
 
  0.2500000E+00  0.7142857E-01  0.0000000E+00  0.1530612E-01
      1        -16.129946   1.000000
      2         -9.813128   1.000000
      3         -7.408657   1.000000
      4         -5.468313   1.000000
      5         -3.420489   1.000000
      6         -0.870865   0.000000
      7          1.415290   0.000000
      8          1.674168   0.000000
      9          3.529084   0.000000
     10          3.924163   0.000000
     11          4.671542   0.000000
     12          5.705770   0.000000
     13          5.940961   0.000000
     14          6.242714   0.000000
     15          8.222954   0.000000
     16          8.457858   0.000000
 
  0.2857143E+00  0.7142857E-01  0.0000000E+00  0.1530612E-01
      1        -15.804002   1.000000
      2        -10.245771   1.000000
      3         -7.388710   1.000000
      4         -5.662002   1.000000
      5         -3.539037   1.000000
      6         -0.979689   0.000000
      7          1.031054   0.000000
      8          1.702650   0.000000
      9          3.883436   0.000000
     10          4.117582   0.000000
     11          4.810044   0.000000
     12          5.995758   0.000000
     13          6.406759   0.000000
     14          6.516485   0.000000
     15          8.531939   0.000000
     16          9.044528   0.000000
 
  0.3214286E+00  0.7142857E-01  0.0000000E+00  0.1530612E-01
      1        -15.451578   1.000000
      2        -10.761501   1.000000
      3         -7.238471   1.000000
      4         -5.812629   1.000000
      5         -3.750493   1.000000
      6         -1.001071   0.000000
      7          0.701426   0.000000
      8          1.715737   0.000000
      9          3.918867   0.000000
     10          4.406900   0.000000
     11          5.089122   0.000000
     12          6.333408   0.000000
     13          6.883831   0.000000
     14          6.994519   0.000000
     15          8.620453   0.000000
     16          9.079039   0.000000
 
  0.3571429E+00  0.7142857E-01  0.0000000E+00  0.1530612E-01
      1        -15.083546   1.000000
      2        -11.291534   1.000000
      3         -7.030496   1.000000
      4         -5.911190   1.000000
      5         -4.030179   1.000000
      6         -0.958298   0.000000
      7          0.440435   0.000000
      8          1.730842   0.000000
      9          3.674053   0.000000
     10          4.872496   0.000000
     11          5.504049   0.000000
     12          6.708972   0.000000
     13          7.350362   0.000000
     14          7.469423   0.000000
     15          8.619112   0.000000
     16          8.718797   0.000000
 
  0.3928571E+00  0.7142857E-01  0.0000000E+00  0.1530612E-01
      1        -14.723255   1.000000
      2        -11.781557   1.000000
      3         -6.827430   1.000000
      4         -5.943414   1.000000
      5         -4.332339   1.000000
      6         -0.888037   0.000000
      7          0.251313   0.000000
      8          1.757591   0.000000
      9          3.409540   0.000000
     10          5.390728   0.000000
     11          5.982102   0.000000
     12          7.056320   0.000000
     13          7.639292   0.000000
     14          7.877503   0.000000
     15          8.086233   0.000000
     16          8.834142   0.000000
 
  0.4285714E+00  0.7142857E-01  0.0000000E+00  0.1530612E-01
      1        -14.425386   1.000000
      2        -12.161872   1.000000
      3         -6.689696   1.000000
      4         -5.907720   1.000000
      5         -4.589629   1.000000
      6         -0.826783   0.000000
      7          0.135639   0.000000
      8          1.789665   0.000000
      9          3.210735   0.000000
     10          5.945954   0.000000
     11          6.469698   0.000000
     12          7.118502   0.000000
     13          7.416892   0.000000
     14          7.833759   0.000000
     15          8.385730   0.000000
     16          8.458109   0.000000
 
  0.4642857E+00  0.7142857E-01  0.0000000E+00  0.7653061E-02
      1        -14.299226   1.000000
      2        -12.316128   1.000000
      3         -6.644773   1.000000
      4         -5.872002   1.000000
      5         -4.699087   1.000000
      6         -0.802624   0.000000
      7          0.096335   0.000000
      8          1.805239   0.000000
      9          3.135853   0.000000
     10          6.465374   0.000000
     11          6.544524   0.000000
     12          6.928963   0.000000
     13          7.242820   0.000000
     14          7.826213   0.000000
     15          8.231753   0.000000
     16          9.011530   0.000000
 
  0.1071429E+00  0.1071429E+00  0.0000000E+00  0.7653061E-02
      1        -16.923124   1.000000
      2         -9.472347   1.000000
      3         -6.169035   1.000000
      4         -4.749843   1.000000
      5         -3.492970   1.000000
      6          0.187357   0.000000
      7          0.838833   0.000000
      8          2.533542   0.000000
      9          2.824972   0.000000
     10          2.957530   0.000000
     11          3.897328   0.000000
     12          4.904375   0.000000
     13          5.054454   0.000000
     14          6.185685   0.000000
     15          7.236158   0.000000
     16          7.675660   0.000000
 
  0.1428571E+00  0.1071429E+00  0.0000000E+00  0.1530612E-01
      1        -16.721986   1.000000
      2         -9.440198   1.000000
      3         -6.655106   1.000000
      4         -5.115397   1.000000
      5         -3.428298   1.000000
      6          0.044403   0.000000
      7          1.010755   0.000000
      8          2.598274   0.000000
      9          2.886352   0.000000
     10          3.148152   0.000000
     11          3.898349   0.000000
     12          5.012227   0.000000
     13          5.274784   0.000000
     14          6.433824   0.000000
     15          7.263871   0.000000
     16          7.862811   0.000000
 
  0.1785714E+00  0.1071429E+00  0.0000000E+00  0.1530612E-01
      1        -16.482698   1.000000
      2         -9.489099   1.000000
      3         -7.059991   1.000000
      4         -5.448392   1.000000
      5         -3.383778   1.000000
      6         -0.178170   0.000000
      7          1.206247   0.000000
      8          2.279468   0.000000
      9          3.121253   0.000000
     10          3.421574   0.000000
     11          4.073059   0.000000
     12          5.228456   0.000000
     13          5.525455   0.000000
     14          6.402666   0.000000
     15          7.686947   0.000000
     16          8.068059   0.000000
 
  0.2142857E+00  0.1071429E+00  0.0000000E+00  0.1530612E-01
      1        -16.206914   1.000000
      2         -9.684599   1.000000
      3         -7.303092   1.000000
      4         -5.736726   1.000000
      5         -3.383889   1.000000
      6         -0.388228   0.000000
      7          1.325126   0.000000
      8          1.866556   0.000000
      9          3.432058   0.000000
     10          3.744874   0.000000
     11          4.366163   0.000000
     12          5.514740   0.000000
     13          5.756685   0.000000
     14          6.269106   0.000000
     15          8.192897   0.000000
     16          8.435755   0.000000
 
  0.2500000E+00  0.1071429E+00  0.0000000E+00  0.1530612E-01
      1        -15.897150   1.000000
      2        -10.045760   1.000000
      3         -7.354857   1.000000
      4         -5.973865   1.000000
      5         -3.455767   1.000000
      6         -0.540279   0.000000
      7          1.306660   0.000000
      8          1.534916   0.000000
      9          3.777135   0.000000
     10          4.055954   0.000000
     11          4.688287   0.000000
     12          5.831419   0.000000
     13          5.893847   0.000000
     14          6.407261   0.000000
     15          8.330426   0.000000
     16          9.157389   0.000000
 
  0.2857143E+00  0.1071429E+00  0.0000000E+00  0.1530612E-01
      1        -15.557569   1.000000
      2        -10.519430   1.000000
      3         -7.266455   1.000000
      4         -6.151123   1.000000
      5         -3.616364   1.000000
      6         -0.609658   0.000000
      7          1.015848   0.000000