Automatically generated mesh
      80
Reciprocal lattice
    0.00000000000000    0.00000000000000    0.00000000000000             1
    0.03571428571428    0.00000000000000    0.00000000000000             6
    0.07142857142857    0.00000000000000    0.00000000000000             6
    0.10714285714285   -0.00000000000000    0.00000000000000             6
    0.14285714285715    0.00000000000000    0.00000000000000             6
    0.17857142857143   -0.00000000000000    0.00000000000000             6
    0.21428571428572   -0.00000000000000    0.00000000000000             6
    0.25000000000000   -0.00000000000000    0.00000000000000             6
    0.28571428571428    0.00000000000000    0.00000000000000             6
    0.32142857142857   -0.00000000000000    0.00000000000000             6
    0.35714285714285    0.00000000000000    0.00000000000000             6
    0.39285714285715   -0.00000000000000    0.00000000000000             6
    0.42857142857143   -0.00000000000000    0.00000000000000             6
    0.46428571428572   -0.00000000000000    0.00000000000000             6
    0.50000000000000   -0.00000000000000    0.00000000000000             3
    0.03571428571428    0.03571428571428    0.00000000000000             6
    0.07142857142857    0.03571428571428    0.00000000000000            12
    0.10714285714285    0.03571428571428    0.00000000000000            12
    0.14285714285715    0.03571428571428    0.00000000000000            12
    0.17857142857143    0.03571428571428    0.00000000000000            12
    0.21428571428572    0.03571428571428    0.00000000000000            12
    0.25000000000000    0.03571428571428    0.00000000000000            12
    0.28571428571428    0.03571428571428    0.00000000000000            12
    0.32142857142857    0.03571428571428    0.00000000000000            12
    0.35714285714285    0.03571428571428    0.00000000000000            12
    0.39285714285715    0.03571428571428    0.00000000000000            12
    0.42857142857143    0.03571428571428    0.00000000000000            12
    0.46428571428572    0.03571428571428    0.00000000000000            12
    0.07142857142857    0.07142857142857    0.00000000000000             6
    0.10714285714285    0.07142857142857    0.00000000000000            12
    0.14285714285715    0.07142857142857    0.00000000000000            12
    0.17857142857143    0.07142857142857    0.00000000000000            12
    0.21428571428572    0.07142857142857    0.00000000000000            12
    0.25000000000000    0.07142857142857    0.00000000000000            12
    0.28571428571428    0.07142857142857    0.00000000000000            12
    0.32142857142857    0.07142857142857    0.00000000000000            12
    0.35714285714285    0.07142857142857    0.00000000000000            12
    0.39285714285715    0.07142857142857    0.00000000000000            12
    0.42857142857143    0.07142857142857    0.00000000000000            12
    0.46428571428572    0.07142857142857    0.00000000000000             6
    0.10714285714285    0.10714285714285    0.00000000000000             6
    0.14285714285715    0.10714285714285    0.00000000000000            12
    0.17857142857143    0.10714285714285    0.00000000000000            12
    0.21428571428572    0.10714285714285    0.00000000000000            12
    0.25000000000000    0.10714285714285    0.00000000000000            12
    0.28571428571428    0.10714285714285    0.00000000000000            12
    0.32142857142857    0.10714285714285    0.00000000000000            12
    0.35714285714285    0.10714285714285    0.00000000000000            12
    0.39285714285715    0.10714285714285    0.00000000000000            12
    0.42857142857143    0.10714285714285    0.00000000000000            12
    0.14285714285715    0.14285714285715    0.00000000000000             6
    0.17857142857143    0.14285714285715    0.00000000000000            12
    0.21428571428572    0.14285714285715    0.00000000000000            12
    0.25000000000000    0.14285714285715    0.00000000000000            12
    0.28571428571428    0.14285714285715    0.00000000000000            12
    0.32142857142857    0.14285714285715    0.00000000000000            12
    0.35714285714285    0.14285714285715    0.00000000000000            12
    0.39285714285715    0.14285714285715    0.00000000000000            12
    0.42857142857143    0.14285714285715    0.00000000000000             6
    0.17857142857143    0.17857142857143    0.00000000000000             6
    0.21428571428572    0.17857142857143    0.00000000000000            12
    0.25000000000000    0.17857142857143    0.00000000000000            12
    0.28571428571428    0.17857142857143    0.00000000000000            12
    0.32142857142857    0.17857142857143    0.00000000000000            12
    0.35714285714285    0.17857142857143    0.00000000000000            12
    0.39285714285715    0.17857142857143    0.00000000000000            12
    0.21428571428572    0.21428571428572    0.00000000000000             6
    0.25000000000000    0.21428571428572    0.00000000000000            12
    0.28571428571428    0.21428571428572    0.00000000000000            12
    0.32142857142857    0.21428571428572    0.00000000000000            12
    0.35714285714285    0.21428571428572    0.00000000000000            12
    0.39285714285715    0.21428571428572    0.00000000000000             6
    0.25000000000000    0.25000000000000    0.00000000000000             6
    0.28571428571428    0.25000000000000    0.00000000000000            12
    0.32142857142857    0.25000000000000    0.00000000000000            12
    0.35714285714285    0.25000000000000    0.00000000000000            12
    0.28571428571428    0.28571428571428    0.00000000000000             6
    0.32142857142857    0.28571428571428    0.00000000000000            12
    0.35714285714285    0.28571428571428    0.00000000000000             6
    0.32142857142857    0.32142857142857    0.00000000000000             6
