 running   16 mpi-ranks, on    1 nodes
 distrk:  each k-point on   16 cores,    1 groups
 distr:  one band on    4 cores,    4 groups
 vasp.6.4.2 20Jul23 (build Nov 14 2023 12:59:38) complex                        
  
 POSCAR found type information on POSCAR P 
 POSCAR found :  1 types and       2 ions
 Reading from existing POTCAR
 scaLAPACK will be used
 Reading from existing POTCAR
 LDA part: xc-table for Pade appr. of Perdew
 POSCAR, INCAR and KPOINTS ok, starting setup
 FFT: planning ... GRIDC
 FFT: planning ... GRID_SOFT
 FFT: planning ... GRID
 WAVECAR not read
 entering main loop
       N       E                     dE             d eps       ncg     rms          rms(c)
DAV:   1     0.342395139940E+02    0.34240E+02   -0.23840E+03  2568   0.275E+02
DAV:   2    -0.745841351930E+01   -0.41698E+02   -0.39237E+02  3720   0.845E+01
DAV:   3    -0.106044005609E+02   -0.31460E+01   -0.31310E+01  3584   0.249E+01
DAV:   4    -0.107849106160E+02   -0.18051E+00   -0.18047E+00  4520   0.588E+00
DAV:   5    -0.107858957315E+02   -0.98512E-03   -0.98510E-03  3584   0.353E-01
DAV:   6    -0.107859264574E+02   -0.30726E-04   -0.30726E-04  4008   0.508E-02
DAV:   7    -0.107859271577E+02   -0.70022E-06   -0.70032E-06  3952   0.743E-03
DAV:   8    -0.107859271792E+02   -0.21560E-07   -0.21636E-07  2976   0.125E-03
DAV:   9    -0.107859271824E+02   -0.31395E-08   -0.31348E-08  3000   0.628E-04
DAV:  10    -0.107859271837E+02   -0.13753E-08   -0.14034E-08  2624   0.440E-04
DAV:  11    -0.107859271845E+02   -0.74192E-09   -0.72800E-09  2240   0.318E-04
DAV:  12    -0.107859271849E+02   -0.41399E-09   -0.38982E-09  2128   0.237E-04    0.249E+00
DAV:  13    -0.107597838124E+02    0.26143E-01   -0.34141E-03  3168   0.228E-01    0.221E+00
DAV:  14    -0.106836842067E+02    0.76100E-01   -0.18445E-01  3512   0.168E+00    0.297E-01
DAV:  15    -0.106783265946E+02    0.53576E-02   -0.19215E-02  3624   0.665E-01    0.117E-01
DAV:  16    -0.106785545044E+02   -0.22791E-03   -0.21628E-03  3840   0.203E-01    0.638E-02
DAV:  17    -0.106784013602E+02    0.15314E-03   -0.68571E-04  3680   0.113E-01    0.554E-02
DAV:  18    -0.106783754801E+02    0.25880E-04   -0.23202E-04  3416   0.622E-02    0.895E-03
DAV:  19    -0.106783763596E+02   -0.87946E-06   -0.13654E-05  3880   0.162E-02    0.864E-03
DAV:  20    -0.106783782669E+02   -0.19074E-05   -0.10164E-05  2960   0.150E-02    0.423E-03
DAV:  21    -0.106783781485E+02    0.11841E-06   -0.16120E-06  3056   0.617E-03
   1 F= -.10678378E+02 E0= -.10678378E+02  d E =-.128169E-12
