PROCAR new format
# of k-points:   80         # of bands:   16         # of ions:    2

 k-point     1 :    0.00000000 0.00000000 0.00000000     weight = 0.00127551

band     1 # energy  -17.47299229 # occ.  2.00000000
 
ion      s      p      d    tot
    1  0.261  0.016  0.000  0.277
    2  0.261  0.016  0.000  0.277
tot    0.522  0.032  0.001  0.554
 
band     2 # energy   -9.75889757 # occ.  2.00000000
 
ion      s      p      d    tot
    1  0.212  0.052  0.003  0.268
    2  0.212  0.052  0.003  0.268
tot    0.424  0.105  0.007  0.535
 
band     3 # energy   -3.76633268 # occ.  2.00000000
 
ion      s      p      d    tot
    1  0.005  0.206  0.004  0.214
    2  0.005  0.206  0.004  0.214
tot    0.010  0.412  0.007  0.429
 
band     4 # energy   -3.49676211 # occ.  2.00000000
 
ion      s      p      d    tot
    1  0.000  0.310  0.034  0.344
    2  0.000  0.310  0.034  0.344
tot    0.000  0.620  0.068  0.688
 
band     5 # energy   -3.49676197 # occ.  2.00000000
 
ion      s      p      d    tot
    1  0.000  0.310  0.034  0.344
    2  0.000  0.310  0.034  0.344
tot    0.000  0.620  0.068  0.688
 
band     6 # energy    0.37388221 # occ.  0.00000000
 
ion      s      p      d    tot
    1  0.219  0.102  0.038  0.359
    2  0.219  0.102  0.038  0.359
tot    0.438  0.205  0.075  0.718
 
band     7 # energy    0.52730270 # occ.  0.00000000
 
ion      s      p      d    tot
    1  0.000  0.260  0.047  0.307
    2  0.000  0.260  0.047  0.307
tot    0.000  0.520  0.094  0.615
 
band     8 # energy    0.52730281 # occ.  0.00000000
 
ion      s      p      d    tot
    1  0.000  0.260  0.047  0.307
    2  0.000  0.260  0.047  0.307
tot    0.000  0.520  0.094  0.615
 
band     9 # energy    2.02462090 # occ.  0.00000000
 
ion      s      p      d    tot
    1  0.002  0.004  0.023  0.030
    2  0.002  0.004  0.023  0.030
tot    0.005  0.008  0.046  0.059
 
band    10 # energy    2.46215337 # occ.  0.00000000
 
ion      s      p      d    tot
    1  0.003  0.017  0.000  0.020
    2  0.003  0.017  0.000  0.020
tot    0.006  0.034  0.000  0.040
 
band    11 # energy    3.81407604 # occ.  0.00000000
 
ion      s      p      d    tot
    1  0.006  0.026  0.000  0.032
    2  0.006  0.026  0.000  0.032
tot    0.012  0.052  0.000  0.063
 
band    12 # energy    4.43942002 # occ.  0.00000000
 
ion      s      p      d    tot
    1  0.008  0.000  0.022  0.030
    2  0.008  0.000  0.022  0.030
tot    0.016  0.000  0.044  0.060
 
band    13 # energy    6.47840100 # occ.  0.00000000
 
ion      s      p      d    tot
    1  0.000  0.062  0.189  0.251
    2  0.000  0.062  0.189  0.251
tot    0.000  0.123  0.378  0.501
 
band    14 # energy    6.47840105 # occ.  0.00000000
 
ion      s      p      d    tot
    1  0.000  0.062  0.189  0.251
    2  0.000  0.062  0.189  0.251
tot    0.000  0.123  0.378  0.501
 
band    15 # energy    6.91622753 # occ.  0.00000000
 
ion      s      p      d    tot
    1  0.024  0.040  0.000  0.064
    2  0.024  0.040  0.000  0.064
tot    0.048  0.080  0.000  0.128
 
band    16 # energy    7.56576257 # occ.  0.00000000
 
ion      s      p      d    tot
    1  0.010  0.028  0.055  0.093
    2  0.010  0.028  0.055  0.093
tot    0.019  0.056  0.110  0.185
 

 k-point     2 :    0.03571429 0.00000000 0.00000000     weight = 0.00765306

band     1 # energy  -17.45246282 # occ.  2.00000000
 
ion      s      p      d    tot
    1  0.261  0.016  0.000  0.277
    2  0.261  0.016  0.000  0.277
tot    0.522  0.032  0.001  0.554
 
band     2 # energy   -9.74492158 # occ.  2.00000000
 
ion      s      p      d    tot
    1  0.213  0.052  0.003  0.268
    2  0.213  0.052  0.003  0.268
tot    0.426  0.104  0.007  0.537
 
band     3 # energy   -3.75404696 # occ.  2.00000000
 
ion      s      p      d    tot
    1  0.005  0.206  0.004  0.215
    2  0.005  0.206  0.004  0.215
tot    0.010  0.413  0.007  0.430
 
band     4 # energy   -3.68971926 # occ.  2.00000000
 
ion      s      p      d    tot
    1  0.008  0.299  0.034  0.340
    2  0.008  0.299  0.034  0.340
tot    0.016  0.597  0.067  0.681
 
band     5 # energy   -3.54617429 # occ.  2.00000000
 
ion      s      p      d    tot
    1  0.000  0.309  0.034  0.342
    2  0.000  0.309  0.034  0.342
tot    0.000  0.617  0.068  0.685
 
band     6 # energy    0.43160135 # occ.  0.00000000
 
ion      s      p      d    tot
    1  0.088  0.195  0.043  0.326
    2  0.088  0.195  0.043  0.326
tot    0.177  0.389  0.086  0.652
 
band     7 # energy    0.59023016 # occ.  0.00000000
 
ion      s      p      d    tot
    1  0.000  0.263  0.046  0.310
    2  0.000  0.263  0.046  0.310
tot    0.000  0.527  0.093  0.620
 
band     8 # energy    0.59868932 # occ.  0.00000000
 
ion      s      p      d    tot
    1  0.124  0.177  0.040  0.340
    2  0.124  0.177  0.040  0.340
tot    0.247  0.354  0.080  0.681
 
band     9 # energy    2.05020333 # occ.  0.00000000
 
ion      s      p      d    tot
    1  0.002  0.005  0.024  0.030
    2  0.002  0.005  0.024  0.030
tot    0.004  0.010  0.047  0.061
 
band    10 # energy    2.48343952 # occ.  0.00000000
 
ion      s      p      d    tot
    1  0.003  0.017  0.000  0.020
    2  0.003  0.017  0.000  0.020
tot    0.006  0.035  0.000  0.041
 
band    11 # energy    3.83018855 # occ.  0.00000000
 
ion      s      p      d    tot
    1  0.006  0.026  0.001  0.032
    2  0.006  0.026  0.001  0.032
tot    0.012  0.052  0.001  0.065
 
band    12 # energy    4.46246858 # occ.  0.00000000
 
ion      s      p      d    tot
    1  0.008  0.000  0.022  0.030
    2  0.008  0.000  0.022  0.030
tot    0.016  0.000  0.044  0.060
 
band    13 # energy    6.24850914 # occ.  0.00000000
 
ion      s      p      d    tot
    1  0.001  0.057  0.164  0.222
    2  0.001  0.057  0.164  0.222
tot    0.002  0.113  0.329  0.444
 
band    14 # energy    6.43800522 # occ.  0.00000000
 
ion      s      p      d    tot
    1  0.000  0.058  0.190  0.248
    2  0.000  0.058  0.190  0.248
tot    0.000  0.116  0.380  0.496
 
band    15 # energy    7.00897455 # occ.  0.00000000
 
ion      s      p      d    tot
    1  0.024  0.043  0.016  0.083
    2  0.024  0.043  0.016  0.083
tot    0.048  0.086  0.032  0.165
 
band    16 # energy    7.55640024 # occ.  0.00000000
 
ion      s      p      d    tot
    1  0.008  0.033  0.061  0.103
    2  0.008  0.033  0.061  0.103
tot    0.017  0.066  0.123  0.206
 

 k-point     3 :    0.07142857 0.00000000 0.00000000     weight = 0.00765306

band     1 # energy  -17.39094919 # occ.  2.00000000
 
ion      s      p      d    tot
    1  0.260  0.017  0.001  0.278
    2  0.260  0.017  0.001  0.278
tot    0.521  0.033  0.001  0.555
 
band     2 # energy   -9.70420127 # occ.  2.00000000
 
ion      s      p      d    tot
    1  0.216  0.051  0.004  0.271
    2  0.216  0.051  0.004  0.271
tot    0.433  0.102  0.007  0.542
 
band     3 # energy   -4.17791417 # occ.  2.00000000
 
ion      s      p      d    tot
    1  0.022  0.277  0.032  0.331
    2  0.022  0.277  0.032  0.331
tot    0.044  0.553  0.065  0.663
 
band     4 # energy   -3.71804942 # occ.  2.00000000
 
ion      s      p      d    tot
    1  0.005  0.208  0.004  0.217
    2  0.005  0.208  0.004  0.217
tot    0.011  0.416  0.008  0.434
 
band     5 # energy   -3.68298564 # occ.  2.00000000
 
ion      s      p      d    tot
    1  0.000  0.305  0.033  0.338
    2  0.000  0.305  0.033  0.338
tot    0.000  0.610  0.066  0.676
 
band     6 # energy    0.27969500 # occ.  0.00000000
 
ion      s      p      d    tot
    1  0.045  0.219  0.045  0.308
    2  0.045  0.219  0.045  0.308
tot    0.090  0.437  0.089  0.617
 
band     7 # energy    0.76479142 # occ.  0.00000000
 
ion      s      p      d    tot
    1  0.000  0.272  0.044  0.316
    2  0.000  0.272  0.044  0.316
tot    0.000  0.544  0.088  0.632
 
band     8 # energy    1.05227366 # occ.  0.00000000
 
ion      s      p      d    tot
    1  0.155  0.168  0.033  0.355
    2  0.155  0.168  0.033  0.355
tot    0.309  0.335  0.066  0.711
 
band     9 # energy    2.12880158 # occ.  0.00000000
 
ion      s      p      d    tot
    1  0.001  0.007  0.026  0.034
    2  0.001  0.007  0.026  0.034
tot    0.002  0.015  0.052  0.068
 
band    10 # energy    2.54666769 # occ.  0.00000000
 
ion      s      p      d    tot
    1  0.003  0.018  0.001  0.021
    2  0.003  0.018  0.001  0.021
tot    0.006  0.036  0.002  0.043
 
band    11 # energy    3.87488239 # occ.  0.00000000
 
ion      s      p      d    tot
    1  0.006  0.026  0.003  0.035
    2  0.006  0.026  0.003  0.035
tot    0.011  0.052  0.006  0.070
 
band    12 # energy    4.53151432 # occ.  0.00000000
 
ion      s      p      d    tot
    1  0.008  0.000  0.022  0.030
    2  0.008  0.000  0.022  0.030
tot    0.015  0.000  0.045  0.061
 
band    13 # energy    5.80411734 # occ.  0.00000000
 
ion      s      p      d    tot
    1  0.002  0.048  0.151  0.201
    2  0.002  0.048  0.151  0.201
tot    0.004  0.097  0.301  0.402
 
band    14 # energy    6.34327043 # occ.  0.00000000
 
ion      s      p      d    tot
    1  0.000  0.048  0.193  0.241
    2  0.000  0.048  0.193  0.241
tot    0.000  0.097  0.385  0.482
 
band    15 # energy    7.12546136 # occ.  0.00000000
 
ion      s      p      d    tot
    1  0.021  0.045  0.021  0.088
    2  0.021  0.045  0.021  0.088
tot    0.042  0.091  0.042  0.176
 
band    16 # energy    7.51878607 # occ.  0.00000000
 
ion      s      p      d    tot
    1  0.006  0.049  0.078  0.133
    2  0.006  0.049  0.078  0.133
tot    0.011  0.098  0.156  0.265
 

 k-point     4 :    0.10714286-0.00000000 0.00000000     weight = 0.00765306

band     1 # energy  -17.28868227 # occ.  2.00000000
 
ion      s      p      d    tot
    1  0.260  0.018  0.001  0.279
    2  0.260  0.018  0.001  0.279
tot    0.520  0.036  0.001  0.557
 
band     2 # energy   -9.64068720 # occ.  2.00000000
 
ion      s      p      d    tot
    1  0.223  0.049  0.004  0.276
    2  0.223  0.049  0.004  0.276
tot    0.446  0.098  0.007  0.551
 
band     3 # energy   -4.81580676 # occ.  2.00000000
 
ion      s      p      d    tot
    1  0.031  0.257  0.030  0.319
    2  0.031  0.257  0.030  0.319
tot    0.063  0.515  0.061  0.638
 
band     4 # energy   -3.88151990 # occ.  2.00000000
 
ion      s      p      d    tot
    1  0.000  0.300  0.032  0.333
    2  0.000  0.300  0.032  0.333
tot    0.000  0.601  0.064  0.665
 
band     5 # energy   -3.66130688 # occ.  2.00000000
 
ion      s      p      d    tot
    1  0.006  0.211  0.004  0.221
    2  0.006  0.211  0.004  0.221
tot    0.012  0.421  0.008  0.441
 
band     6 # energy    0.03611953 # occ.  0.00000000
 
ion      s      p      d    tot
    1  0.048  0.208  0.044  0.300
    2  0.048  0.208  0.044  0.300
tot    0.096  0.415  0.088  0.599
 
band     7 # energy    1.01480731 # occ.  0.00000000
 
ion      s      p      d    tot
    1  0.000  0.284  0.041  0.325
    2  0.000  0.284  0.041  0.325
tot    0.000  0.568  0.081  0.649
 
band     8 # energy    1.61339136 # occ.  0.00000000
 
ion      s      p      d    tot
    1  0.140  0.182  0.023  0.344
    2  0.140  0.182  0.023  0.344
tot    0.280  0.363  0.045  0.689
 
band     9 # energy    2.26752924 # occ.  0.00000000
 
ion      s      p      d    tot
    1  0.000  0.019  0.031  0.050
    2  0.000  0.019  0.031  0.050
tot    0.001  0.037  0.062  0.100
 
band    10 # energy    2.65263777 # occ.  0.00000000
 
ion      s      p      d    tot
    1  0.003  0.020  0.002  0.025
    2  0.003  0.020  0.002  0.025
tot    0.006  0.040  0.005  0.051
 
band    11 # energy    3.93652790 # occ.  0.00000000
 
ion      s      p      d    tot
    1  0.006  0.027  0.010  0.042
    2  0.006  0.027  0.010  0.042
tot    0.011  0.053  0.020  0.085
 
band    12 # energy    4.64621173 # occ.  0.00000000
 
ion      s      p      d    tot
    1  0.007  0.000  0.023  0.031
    2  0.007  0.000  0.023  0.031
tot    0.015  0.001  0.047  0.062
 
band    13 # energy    5.34648487 # occ.  0.00000000
 
ion      s      p      d    tot
    1  0.003  0.037  0.140  0.180
    2  0.003  0.037  0.140  0.180
tot    0.007  0.073  0.280  0.360
 
band    14 # energy    6.24852724 # occ.  0.00000000
 
ion      s      p      d    tot
    1  0.000  0.036  0.197  0.233
    2  0.000  0.036  0.197  0.233
tot    0.000  0.072  0.395  0.466
 
band    15 # energy    7.10964750 # occ.  0.00000000
 
ion      s      p      d    tot
    1  0.013  0.055  0.065  0.133
    2  0.013  0.055  0.065  0.133
tot    0.027  0.110  0.130  0.267
 
band    16 # energy    7.50910157 # occ.  0.00000000
 
ion      s      p      d    tot
    1  0.007  0.059  0.061  0.128
    2  0.007  0.059  0.061  0.128
tot    0.015  0.119  0.123  0.256
 

 k-point     5 :    0.14285714 0.00000000 0.00000000     weight = 0.00765306

band     1 # energy  -17.14604763 # occ.  2.00000000
 
ion      s      p      d    tot
    1  0.259  0.019  0.001  0.280
    2  0.259  0.019  0.001  0.280
tot    0.519  0.039  0.002  0.559
 
band     2 # energy   -9.56290496 # occ.  2.00000000
 
ion      s      p      d    tot
    1  0.233  0.046  0.004  0.283
    2  0.233  0.046  0.004  0.283
tot    0.467  0.091  0.008  0.566
 
band     3 # energy   -5.50516804 # occ.  2.00000000
 
ion      s      p      d    tot
    1  0.033  0.244  0.028  0.305
    2  0.033  0.244  0.028  0.305
tot    0.066  0.488  0.056  0.609
 
band     4 # energy   -4.11426289 # occ.  2.00000000
 
ion      s      p      d    tot
    1  0.000  0.296  0.031  0.327
    2  0.000  0.296  0.031  0.327
tot    0.000  0.593  0.061  0.654
 
band     5 # energy   -3.58906018 # occ.  2.00000000
 
ion      s      p      d    tot
    1  0.008  0.214  0.004  0.226
    2  0.008  0.214  0.004  0.226
tot    0.015  0.429  0.008  0.452
 
band     6 # energy   -0.25534938 # occ.  0.00000000
 
ion      s      p      d    tot
    1  0.055  0.193  0.043  0.291
    2  0.055  0.193  0.043  0.291
tot    0.110  0.386  0.086  0.582
 
band     7 # energy    1.29491221 # occ.  0.00000000
 
ion      s      p      d    tot
    1  0.000  0.297  0.036  0.333
    2  0.000  0.297  0.036  0.333
tot    0.000  0.595  0.072  0.666
 
band     8 # energy    2.07026193 # occ.  0.00000000
 
ion      s      p      d    tot
    1  0.110  0.163  0.011  0.283
    2  0.110  0.163  0.011  0.283
tot    0.219  0.326  0.021  0.566
 
band     9 # energy    2.45894720 # occ.  0.00000000
 
ion      s      p      d    tot
    1  0.005  0.044  0.036  0.085
    2  0.005  0.044  0.036  0.085
tot    0.009  0.089  0.073  0.171
 
band    10 # energy    2.82592655 # occ.  0.00000000
 
ion      s      p      d    tot
    1  0.007  0.035  0.006  0.048
    2  0.007  0.035  0.006  0.048
tot    0.014  0.070  0.013  0.097
 
band    11 # energy    4.01016608 # occ.  0.00000000
 
ion      s      p      d    tot
    1  0.008  0.031  0.025  0.064
    2  0.008  0.031  0.025  0.064
tot    0.017  0.062  0.050  0.129
 
band    12 # energy    4.80534140 # occ.  0.00000000
 
ion      s      p      d    tot
    1  0.008  0.001  0.024  0.032
    2  0.008  0.001  0.024  0.032
tot    0.015  0.001  0.048  0.064
 
band    13 # energy    5.04084096 # occ.  0.00000000
 
ion      s      p      d    tot
    1  0.008  0.026  0.123  0.156
    2  0.008  0.026  0.123  0.156
tot    0.016  0.052  0.245  0.312
 
band    14 # energy    6.20770846 # occ.  0.00000000
 
ion      s      p      d    tot
    1  0.000  0.022  0.204  0.226
    2  0.000  0.022  0.204  0.226
tot    0.000  0.045  0.407  0.452
 
band    15 # energy    6.86327458 # occ.  0.00000000
 
ion      s      p      d    tot
    1  0.010  0.065  0.106  0.181
    2  0.010  0.065  0.106  0.181
tot    0.019  0.130  0.211  0.361
 
band    16 # energy    7.63718818 # occ.  0.00000000
 
ion      s      p      d    tot
    1  0.010  0.056  0.034  0.099
    2  0.010  0.056  0.034  0.099
tot    0.019  0.111  0.067  0.198
 

 k-point     6 :    0.17857143-0.00000000 0.00000000     weight = 0.00765306

band     1 # energy  -16.96363312 # occ.  2.00000000
 
ion      s      p      d    tot
    1  0.259  0.021  0.001  0.281
    2  0.259  0.021  0.001  0.281
tot    0.517  0.043  0.002  0.562
 
band     2 # energy   -9.48859774 # occ.  2.00000000
 
ion      s      p      d    tot
    1  0.249  0.041  0.005  0.295
    2  0.249  0.041  0.005  0.295
tot    0.499  0.081  0.009  0.589
 
band     3 # energy   -6.18319026 # occ.  2.00000000
 
ion      s      p      d    tot
    1  0.027  0.235  0.025  0.287
    2  0.027  0.235  0.025  0.287
tot    0.054  0.471  0.049  0.574
 
band     4 # energy   -4.35977899 # occ.  2.00000000
 
ion      s      p      d    tot
    1  0.000  0.292  0.029  0.321
    2  0.000  0.292  0.029  0.321
tot    0.000  0.585  0.058  0.643
 
band     5 # energy   -3.51078721 # occ.  2.00000000
 
ion      s      p      d    tot
    1  0.010  0.219  0.004  0.233
    2  0.010  0.219  0.004  0.233
tot    0.020  0.439  0.008  0.467
 
band     6 # energy   -0.56469391 # occ.  0.00000000
 
ion      s      p      d    tot
    1  0.062  0.178  0.042  0.282
    2  0.062  0.178  0.042  0.282
tot    0.123  0.356  0.084  0.564
 
band     7 # energy    1.56091326 # occ.  0.00000000
 
ion      s      p      d    tot
    1  0.000  0.309  0.031  0.340
    2  0.000  0.309  0.031  0.340
tot    0.000  0.618  0.062  0.680
 
band     8 # energy    2.24551871 # occ.  0.00000000
 
ion      s      p      d    tot
    1  0.075  0.159  0.026  0.260
    2  0.075  0.159  0.026  0.260
tot    0.149  0.319  0.052  0.520
 
band     9 # energy    2.60596196 # occ.  0.00000000
 
ion      s      p      d    tot
    1  0.003  0.013  0.028  0.044
    2  0.003  0.013  0.028  0.044
tot    0.005  0.026  0.056  0.087
 
band    10 # energy    3.09174638 # occ.  0.00000000
 
ion      s      p      d    tot
    1  0.009  0.055  0.006  0.070
    2  0.009  0.055  0.006  0.070
tot    0.018  0.109  0.013  0.141
 
band    11 # energy    4.18036416 # occ.  0.00000000
 
ion      s      p      d    tot
    1  0.017  0.057  0.030  0.104
    2  0.017  0.057  0.030  0.104
tot    0.033  0.113  0.061  0.207
 
band    12 # energy    4.98353835 # occ.  0.00000000
 
ion      s      p      d    tot
    1  0.021  0.015  0.035  0.071
    2  0.021  0.015  0.035  0.071
tot    0.042  0.030  0.071  0.143
 
band    13 # energy    5.05985234 # occ.  0.00000000
 
ion      s      p      d    tot
    1  0.005  0.018  0.096  0.119
    2  0.005  0.018  0.096  0.119
tot    0.010  0.036  0.191  0.238
 
band    14 # energy    6.26554459 # occ.  0.00000000
 
ion      s      p      d    tot
    1  0.000  0.011  0.211  0.221
    2  0.000  0.011  0.211  0.221
tot    0.000  0.021  0.422  0.443
 
band    15 # energy    6.53482964 # occ.  0.00000000
 
ion      s      p      d    tot
    1  0.011  0.061  0.117  0.190
    2  0.011  0.061  0.117  0.190
tot    0.023  0.122  0.235  0.380
 
band    16 # energy    7.82825990 # occ.  0.00000000
 
ion      s      p      d    tot
    1  0.010  0.053  0.024  0.088
    2  0.010  0.053  0.024  0.088
tot    0.020  0.106  0.049  0.175
 

 k-point     7 :    0.21428571-0.00000000 0.00000000     weight = 0.00765306

band     1 # energy  -16.74238573 # occ.  2.00000000
 
ion      s      p      d    tot
    1  0.258  0.024  0.001  0.283
    2  0.258  0.024  0.001  0.283
tot    0.516  0.048  0.003  0.566
 
band     2 # energy   -9.45504430 # occ.  2.00000000
 
ion      s      p      d    tot
    1  0.270  0.035  0.006  0.312
    2  0.270  0.035  0.006  0.312
tot    0.541  0.070  0.012  0.623
 
band     3 # energy   -6.78968959 # occ.  2.00000000
 
ion      s      p      d    tot
    1  0.014  0.230  0.021  0.265
    2  0.014  0.230  0.021  0.265
tot    0.027  0.461  0.041  0.530
 
band     4 # energy   -4.60167261 # occ.  2.00000000
 
ion      s      p      d    tot
    1  0.000  0.289  0.027  0.317
    2  0.000  0.289  0.027  0.317
tot    0.000  0.579  0.054  0.633
 
band     5 # energy   -3.44219333 # occ.  2.00000000
 
ion      s      p      d    tot
    1  0.014  0.226  0.003  0.243
    2  0.014  0.226  0.003  0.243
tot    0.028  0.451  0.007  0.486
 
band     6 # energy   -0.86433012 # occ.  0.00000000
 
ion      s      p      d    tot
    1  0.067  0.164  0.042  0.272
    2  0.067  0.164  0.042  0.272
tot    0.133  0.327  0.084  0.544
 
band     7 # energy    1.77666041 # occ.  0.00000000
 
ion      s      p      d    tot
    1  0.000  0.316  0.027  0.343
    2  0.000  0.316  0.027  0.343
tot    0.000  0.632  0.054  0.685
 
band     8 # energy    2.04054218 # occ.  0.00000000
 
ion      s      p      d    tot
    1  0.042  0.139  0.056  0.237
    2  0.042  0.139  0.056  0.237
tot    0.083  0.279  0.111  0.473
 
band     9 # energy    2.82376158 # occ.  0.00000000
 
ion      s      p      d    tot
    1  0.012  0.003  0.017  0.032
    2  0.012  0.003  0.017  0.032
tot    0.024  0.006  0.035  0.064
 
band    10 # energy    3.35287665 # occ.  0.00000000
 
ion      s      p      d    tot
    1  0.004  0.043  0.004  0.051
    2  0.004  0.043  0.004  0.051
tot    0.007  0.087  0.008  0.102
 
band    11 # energy    4.46972799 # occ.  0.00000000
 
ion      s      p      d    tot
    1  0.014  0.080  0.016  0.111
    2  0.014  0.080  0.016  0.111
tot    0.028  0.161  0.032  0.222
 
band    12 # energy    5.21186957 # occ.  0.00000000
 
ion      s      p      d    tot
    1  0.022  0.022  0.025  0.069
    2  0.022  0.022  0.025  0.069
tot    0.044  0.044  0.050  0.138
 
band    13 # energy    5.39644913 # occ.  0.00000000
 
ion      s      p      d    tot
    1  0.017  0.051  0.101  0.169
    2  0.017  0.051  0.101  0.169
tot    0.033  0.102  0.202  0.337
 
band    14 # energy    6.23499066 # occ.  0.00000000
 
ion      s      p      d    tot
    1  0.018  0.045  0.121  0.183
    2  0.018  0.045  0.121  0.183
tot    0.035  0.090  0.241  0.366
 
band    15 # energy    6.45536401 # occ.  0.00000000
 
ion      s      p      d    tot
    1  0.000  0.003  0.218  0.221
    2  0.000  0.003  0.218  0.221
tot    0.000  0.007  0.436  0.443
 
band    16 # energy    8.04520187 # occ.  0.00000000
 
ion      s      p      d    tot
    1  0.012  0.052  0.021  0.085
    2  0.012  0.052  0.021  0.085
tot    0.023  0.104  0.042  0.169
 

 k-point     8 :    0.25000000-0.00000000 0.00000000     weight = 0.00765306

band     1 # energy  -16.48358224 # occ.  2.00000000
 
ion      s      p      d    tot
    1  0.257  0.026  0.002  0.285
    2  0.257  0.026  0.002  0.285
tot    0.514  0.053  0.003  0.571
 
band     2 # energy   -9.53197396 # occ.  2.00000000
 
ion      s      p      d    tot
    1  0.288  0.035  0.008  0.331
    2  0.288  0.035  0.008  0.331
tot    0.577  0.069  0.017  0.663
 
band     3 # energy   -7.24160465 # occ.  2.00000000
 
ion      s      p      d    tot
    1  0.003  0.223  0.016  0.241
    2  0.003  0.223  0.016  0.241
tot    0.005  0.446  0.031  0.482
 
band     4 # energy   -4.82922251 # occ.  2.00000000
 
ion      s      p      d    tot
    1  0.000  0.287  0.025  0.313
    2  0.000  0.287  0.025  0.313
tot    0.000  0.574  0.051  0.625
 
band     5 # energy   -3.40798796 # occ.  2.00000000
 
ion      s      p      d    tot
    1  0.021  0.232  0.003  0.255
    2  0.021  0.232  0.003  0.255
tot    0.042  0.464  0.006  0.511
 
band     6 # energy   -1.12583844 # occ.  0.00000000
 
ion      s      p      d    tot
    1  0.068  0.150  0.042  0.261
    2  0.068  0.150  0.042  0.261
tot    0.136  0.301  0.085  0.522
 
band     7 # energy    1.64780415 # occ.  0.00000000
 
ion      s      p      d    tot
    1  0.027  0.118  0.069  0.214
    2  0.027  0.118  0.069  0.214
tot    0.053  0.237  0.138  0.428
 
band     8 # energy    1.92340546 # occ.  0.00000000
 
ion      s      p      d    tot
    1  0.000  0.316  0.025  0.341
    2  0.000  0.316  0.025  0.341
tot    0.000  0.632  0.050  0.683
 
band     9 # energy    3.11939346 # occ.  0.00000000
 
ion      s      p      d    tot
    1  0.014  0.005  0.016  0.034
    2  0.014  0.005  0.016  0.034
tot    0.028  0.009  0.031  0.068
 
band    10 # energy    3.61655734 # occ.  0.00000000
 
ion      s      p      d    tot
    1  0.002  0.040  0.004  0.046
    2  0.002  0.040  0.004  0.046
tot    0.004  0.079  0.008  0.091
 
band    11 # energy    4.67991039 # occ.  0.00000000
 
ion      s      p      d    tot
    1  0.008  0.080  0.022  0.110
    2  0.008  0.080  0.022  0.110
tot    0.015  0.161  0.044  0.220
 
band    12 # energy    5.46769285 # occ.  0.00000000
 
ion      s      p      d    tot
    1  0.011  0.023  0.032  0.067
    2  0.011  0.023  0.032  0.067
tot    0.023  0.046  0.065  0.133
 
band    13 # energy    5.85158128 # occ.  0.00000000
 
ion      s      p      d    tot
    1  0.002  0.069  0.050  0.121
    2  0.002  0.069  0.050  0.121
tot    0.005  0.138  0.099  0.242
 
band    14 # energy    6.20783076 # occ.  0.00000000
 
ion      s      p      d    tot
    1  0.049  0.053  0.145  0.247
    2  0.049  0.053  0.145  0.247
tot    0.097  0.107  0.290  0.494
 
band    15 # energy    6.79280719 # occ.  0.00000000
 
ion      s      p      d    tot
    1  0.000  0.002  0.224  0.226
    2  0.000  0.002  0.224  0.226
tot    0.000  0.005  0.448  0.453
 
band    16 # energy    8.26666206 # occ.  0.00000000
 
ion      s      p      d    tot
    1  0.016  0.051  0.021  0.088
    2  0.016  0.051  0.021  0.088
tot    0.032  0.101  0.042  0.176
 

 k-point     9 :    0.28571429 0.00000000 0.00000000     weight = 0.00765306

band     1 # energy  -16.18935181 # occ.  2.00000000
 
ion      s      p      d    tot
    1  0.257  0.029  0.002  0.288
    2  0.257  0.029  0.002  0.288
tot    0.513  0.059  0.004  0.576
 
band     2 # energy   -9.79468972 # occ.  2.00000000
 
ion      s      p      d    tot
    1  0.285  0.046  0.011  0.342
    2  0.285  0.046  0.011  0.342
tot    0.571  0.091  0.022  0.684
 
band     3 # energy   -7.45646562 # occ.  2.00000000
 
ion      s      p      d    tot
    1  0.011  0.205  0.011  0.227
    2  0.011  0.205  0.011  0.227
tot    0.023  0.410  0.021  0.454
 
band     4 # energy   -5.03538979 # occ.  2.00000000
 
ion      s      p      d    tot
    1  0.000  0.286  0.024  0.309
    2  0.000  0.286  0.024  0.309
tot    0.000  0.571  0.047  0.619
 
band     5 # energy   -3.44136143 # occ.  2.00000000
 
ion      s      p      d    tot
    1  0.031  0.236  0.002  0.268
    2  0.031  0.236  0.002  0.268
tot    0.061  0.471  0.004  0.536
 
band     6 # energy   -1.31936933 # occ.  0.00000000
 
ion      s      p      d    tot
    1  0.065  0.140  0.044  0.249
    2  0.065  0.140  0.044  0.249
tot    0.130  0.280  0.089  0.499
 
band     7 # energy    1.23020201 # occ.  0.00000000
 
ion      s      p      d    tot
    1  0.019  0.108  0.074  0.200
    2  0.019  0.108  0.074  0.200
tot    0.038  0.215  0.147  0.401
 
band     8 # energy    2.00225767 # occ.  0.00000000
 
ion      s      p      d    tot
    1  0.000  0.311  0.026  0.337
    2  0.000  0.311  0.026  0.337
tot    0.000  0.623  0.051  0.674
 
band     9 # energy    3.46278574 # occ.  0.00000000
 
ion      s      p      d    tot
    1  0.014  0.007  0.017  0.037
    2  0.014  0.007  0.017  0.037
tot    0.028  0.013  0.034  0.075
 
band    10 # energy    3.87130447 # occ.  0.00000000
 
ion      s      p      d    tot
    1  0.002  0.050  0.010  0.063
    2  0.002  0.050  0.010  0.063
tot    0.005  0.100  0.021  0.126
 
band    11 # energy    4.72566612 # occ.  0.00000000
 
ion      s      p      d    tot
    1  0.004  0.067  0.044  0.116
    2  0.004  0.067  0.044  0.116
tot    0.009  0.134  0.089  0.232
 
band    12 # energy    5.68960312 # occ.  0.00000000
 
ion      s      p      d    tot
    1  0.003  0.026  0.039  0.068
    2  0.003  0.026  0.039  0.068
tot    0.006  0.052  0.077  0.136
 
band    13 # energy    6.05859172 # occ.  0.00000000
 
ion      s      p      d    tot
    1  0.007  0.013  0.021  0.042
    2  0.007  0.013  0.021  0.042
tot    0.014  0.027  0.042  0.084
 
band    14 # energy    6.84505914 # occ.  0.00000000
 
ion      s      p      d    tot
    1  0.044  0.120  0.128  0.293
    2  0.044  0.120  0.128  0.293
tot    0.088  0.241  0.256  0.585
 
band    15 # energy    7.26858748 # occ.  0.00000000
 
ion      s      p      d    tot
    1  0.000  0.006  0.229  0.235
    2  0.000  0.006  0.229  0.235
tot    0.000  0.012  0.458  0.471
 
band    16 # energy    8.45506874 # occ.  0.00000000
 
ion      s      p      d    tot
    1  0.027  0.048  0.025  0.100
    2  0.027  0.048  0.025  0.100
tot    0.054  0.095  0.051  0.200
 

 k-point    10 :    0.32142857-0.00000000 0.00000000     weight = 0.00765306

band     1 # energy  -15.86293525 # occ.  2.00000000
 
ion      s      p      d    tot
    1  0.257  0.032  0.003  0.291
    2  0.257  0.032  0.003  0.291
tot    0.513  0.064  0.006  0.583
 
band     2 # energy  -10.23122887 # occ.  2.00000000
 
ion      s      p      d    tot
    1  0.266  0.061  0.012  0.339
    2  0.266  0.061  0.012  0.339
tot    0.531  0.123  0.024  0.678
 
band     3 # energy   -7.44168404 # occ.  2.00000000
 
ion      s      p      d    tot
    1  0.037  0.185  0.007  0.228
    2  0.037  0.185  0.007  0.228
tot    0.073  0.369  0.014  0.456
 
band     4 # energy   -5.21570880 # occ.  2.00000000
 
ion      s      p      d    tot
    1  0.000  0.284  0.022  0.306
    2  0.000  0.284  0.022  0.306
tot    0.000  0.569  0.044  0.613
 
band     5 # energy   -3.56969742 # occ.  2.00000000
 
ion      s      p      d    tot
    1  0.042  0.234  0.002  0.277
    2  0.042  0.234  0.002  0.277
tot    0.084  0.467  0.003  0.554
 
band     6 # energy   -1.42415606 # occ.  0.00000000
 
ion      s      p      d    tot
    1  0.059  0.134  0.048  0.241
    2  0.059  0.134  0.048  0.241
tot    0.119  0.268  0.095  0.482
 
band     7 # energy    0.85653058 # occ.  0.00000000
 
ion      s      p      d    tot
    1  0.014  0.106  0.073  0.193
    2  0.014  0.106  0.073  0.193
tot    0.029  0.212  0.146  0.386
 
band     8 # energy    2.02928180 # occ.  0.00000000
 
ion      s      p      d    tot
    1  0.000  0.304  0.027  0.331
    2  0.000  0.304  0.027  0.331
tot    0.000  0.608  0.054  0.662
 
band     9 # energy    3.82535997 # occ.  0.00000000
 
ion      s      p      d    tot