<?xml version="1.0" encoding="ISO-8859-1"?>
<modeling>
 <generator>
  <i name="program" type="string">vasp </i>
  <i name="version" type="string">6.4.2  </i>
  <i name="subversion" type="string">20Jul23 (build Nov 14 2023 12:59:38) complex                          parallel </i>
  <i name="platform" type="string">LinuxIFC </i>
  <i name="date" type="string">2023 12 17 </i>
  <i name="time" type="string">08:38:04 </i>
 </generator>
 <incar>
  <i type="string" name="PREC">Accurate</i>
  <i type="string" name="ALGO">Normal</i>
  <i type="logical" name="ADDGRID"> T  </i>
  <i type="int" name="ISPIN">     1</i>
  <i name="AMIX">      0.10000000</i>
  <i name="BMIX">      0.00010000</i>
  <i type="int" name="NELM">   200</i>
  <i type="int" name="NELMDL">   -12</i>
  <i type="int" name="NELMIN">     6</i>
  <i type="int" name="IBRION">     2</i>
  <i name="EDIFF">      0.00000100</i>
  <i name="EDIFFG">     -0.01000000</i>
  <i type="int" name="NSW">     0</i>
  <i type="int" name="ISIF">    -1</i>
  <i name="ENCUT">    286.92000000</i>
  <i type="int" name="NBANDS">    16</i>
  <i name="POTIM">      0.50000000</i>
  <i type="int" name="NEDOS">  6001</i>
  <i type="logical" name="LPLANE"> T  </i>
  <i type="int" name="ISMEAR">     0</i>
  <i name="SIGMA">      0.01000000</i>
  <i type="int" name="NWRITE">     1</i>
  <i type="logical" name="LWAVE"> F  </i>
  <i type="logical" name="LCHARG"> F  </i>
  <i type="int" name="LORBIT">    10</i>
  <i type="logical" name="LASPH"> T  </i>
  <i type="int" name="IVDW">     0</i>
 </incar>
 <primitive_cell>
  <structure name="primitive_cell" >
   <crystal>
    <varray name="basis" >
     <v>       3.28234349       0.00000000       0.00000000 </v>
     <v>      -1.64117175       2.84259285       0.00000000 </v>
     <v>       0.00000000       0.00000000      16.00000000 </v>
    </varray>
    <i name="volume">    149.28585836 </i>
    <varray name="rec_basis" >
     <v>       0.30466038       0.17589575       0.00000000 </v>
     <v>       0.00000000       0.35179150       0.00000000 </v>
     <v>       0.00000000       0.00000000       0.06250000 </v>
    </varray>
   </crystal>
   <varray name="positions" >
    <v>       0.66666667       0.33333333       0.46118284 </v>
    <v>       0.33333333       0.66666667       0.53881716 </v>
   </varray>
  </structure>
  <varray name="primitive_index" >
   <v type="int" >        1 </v>
   <v type="int" >        2 </v>
  </varray>
 </primitive_cell>
 <kpoints>
  <generation param="Gamma">
   <v type="int" name="divisions">      28       28        1 </v>
   <v name="usershift">      0.00000000       0.00000000       0.00000000 </v>
   <v name="genvec1">      0.03571429       0.00000000       0.00000000 </v>
   <v name="genvec2">      0.00000000       0.03571429       0.00000000 </v>
   <v name="genvec3">      0.00000000       0.00000000       1.00000000 </v>
   <v name="shift">      0.00000000       0.00000000       0.00000000 </v>
  </generation>
  <varray name="kpointlist" >
   <v>       0.00000000       0.00000000       0.00000000 </v>
   <v>       0.03571429       0.00000000       0.00000000 </v>
   <v>       0.07142857       0.00000000       0.00000000 </v>
   <v>       0.10714286      -0.00000000       0.00000000 </v>
   <v>       0.14285714       0.00000000       0.00000000 </v>
   <v>       0.17857143      -0.00000000       0.00000000 </v>
   <v>       0.21428571      -0.00000000       0.00000000 </v>
   <v>       0.25000000      -0.00000000       0.00000000 </v>
   <v>       0.28571429       0.00000000       0.00000000 </v>
   <v>       0.32142857      -0.00000000       0.00000000 </v>
   <v>       0.35714286       0.00000000       0.00000000 </v>
   <v>       0.39285714      -0.00000000       0.00000000 </v>
   <v>       0.42857143      -0.00000000       0.00000000 </v>
   <v>       0.46428571      -0.00000000       0.00000000 </v>
   <v>       0.50000000      -0.00000000       0.00000000 </v>
   <v>       0.03571429       0.03571429       0.00000000 </v>
   <v>       0.07142857       0.03571429       0.00000000 </v>
   <v>       0.10714286       0.03571429       0.00000000 </v>
   <v>       0.14285714       0.03571429       0.00000000 </v>
   <v>       0.17857143       0.03571429       0.00000000 </v>
   <v>       0.21428571       0.03571429       0.00000000 </v>
   <v>       0.25000000       0.03571429       0.00000000 </v>
   <v>       0.28571429       0.03571429       0.00000000 </v>
   <v>       0.32142857       0.03571429       0.00000000 </v>
   <v>       0.35714286       0.03571429       0.00000000 </v>
   <v>       0.39285714       0.03571429       0.00000000 </v>
   <v>       0.42857143       0.03571429       0.00000000 </v>
   <v>       0.46428571       0.03571429       0.00000000 </v>
   <v>       0.07142857       0.07142857       0.00000000 </v>
   <v>       0.10714286       0.07142857       0.00000000 </v>
   <v>       0.14285714       0.07142857       0.00000000 </v>
   <v>       0.17857143       0.07142857       0.00000000 </v>
   <v>       0.21428571       0.07142857       0.00000000 </v>
   <v>       0.25000000       0.07142857       0.00000000 </v>
   <v>       0.28571429       0.07142857       0.00000000 </v>
   <v>       0.32142857       0.07142857       0.00000000 </v>
   <v>       0.35714286       0.07142857       0.00000000 </v>
   <v>       0.39285714       0.07142857       0.00000000 </v>
   <v>       0.42857143       0.07142857       0.00000000 </v>
   <v>       0.46428571       0.07142857       0.00000000 </v>
   <v>       0.10714286       0.10714286       0.00000000 </v>
   <v>       0.14285714       0.10714286       0.00000000 </v>
   <v>       0.17857143       0.10714286       0.00000000 </v>
   <v>       0.21428571       0.10714286       0.00000000 </v>
   <v>       0.25000000       0.10714286       0.00000000 </v>
   <v>       0.28571429       0.10714286       0.00000000 </v>
   <v>       0.32142857       0.10714286       0.00000000 </v>
   <v>       0.35714286       0.10714286       0.00000000 </v>
   <v>       0.39285714       0.10714286       0.00000000 </v>
   <v>       0.42857143       0.10714286       0.00000000 </v>
   <v>       0.14285714       0.14285714       0.00000000 </v>
   <v>       0.17857143       0.14285714       0.00000000 </v>
   <v>       0.21428571       0.14285714       0.00000000 </v>
   <v>       0.25000000       0.14285714       0.00000000 </v>
   <v>       0.28571429       0.14285714       0.00000000 </v>
   <v>       0.32142857       0.14285714       0.00000000 </v>
   <v>       0.35714286       0.14285714       0.00000000 </v>
   <v>       0.39285714       0.14285714       0.00000000 </v>
   <v>       0.42857143       0.14285714       0.00000000 </v>
   <v>       0.17857143       0.17857143       0.00000000 </v>
   <v>       0.21428571       0.17857143       0.00000000 </v>
   <v>       0.25000000       0.17857143       0.00000000 </v>
   <v>       0.28571429       0.17857143       0.00000000 </v>
   <v>       0.32142857       0.17857143       0.00000000 </v>
   <v>       0.35714286       0.17857143       0.00000000 </v>
   <v>       0.39285714       0.17857143       0.00000000 </v>
   <v>       0.21428571       0.21428571       0.00000000 </v>
   <v>       0.25000000       0.21428571       0.00000000 </v>
   <v>       0.28571429       0.21428571       0.00000000 </v>
   <v>       0.32142857       0.21428571       0.00000000 </v>
   <v>       0.35714286       0.21428571       0.00000000 </v>
   <v>       0.39285714       0.21428571       0.00000000 </v>
   <v>       0.25000000       0.25000000       0.00000000 </v>
   <v>       0.28571429       0.25000000       0.00000000 </v>
   <v>       0.32142857       0.25000000       0.00000000 </v>
   <v>       0.35714286       0.25000000       0.00000000 </v>
   <v>       0.28571429       0.28571429       0.00000000 </v>
   <v>       0.32142857       0.28571429       0.00000000 </v>
   <v>       0.35714286       0.28571429       0.00000000 </v>
   <v>       0.32142857       0.32142857       0.00000000 </v>
  </varray>
  <varray name="weights" >
   <v>       0.00127551 </v>
   <v>       0.00765306 </v>
   <v>       0.00765306 </v>
   <v>       0.00765306 </v>
   <v>       0.00765306 </v>
   <v>       0.00765306 </v>
   <v>       0.00765306 </v>
   <v>       0.00765306 </v>
   <v>       0.00765306 </v>
   <v>       0.00765306 </v>
   <v>       0.00765306 </v>
   <v>       0.00765306 </v>
   <v>       0.00765306 </v>
   <v>       0.00765306 </v>
   <v>       0.00382653 </v>
   <v>       0.00765306 </v>
   <v>       0.01530612 </v>
   <v>       0.01530612 </v>
   <v>       0.01530612 </v>
   <v>       0.01530612 </v>
   <v>       0.01530612 </v>
   <v>       0.01530612 </v>
   <v>       0.01530612 </v>
   <v>       0.01530612 </v>
   <v>       0.01530612 </v>
   <v>       0.01530612 </v>
   <v>       0.01530612 </v>
   <v>       0.01530612 </v>
   <v>       0.00765306 </v>
   <v>       0.01530612 </v>
   <v>       0.01530612 </v>
   <v>       0.01530612 </v>
   <v>       0.01530612 </v>
   <v>       0.01530612 </v>
   <v>       0.01530612 </v>
   <v>       0.01530612 </v>
   <v>       0.01530612 </v>
   <v>       0.01530612 </v>
   <v>       0.01530612 </v>
   <v>       0.00765306 </v>
   <v>       0.00765306 </v>
   <v>       0.01530612 </v>
   <v>       0.01530612 </v>
   <v>       0.01530612 </v>
   <v>       0.01530612 </v>
   <v>       0.01530612 </v>
   <v>       0.01530612 </v>
   <v>       0.01530612 </v>
   <v>       0.01530612 </v>
   <v>       0.01530612 </v>
   <v>       0.00765306 </v>
   <v>       0.01530612 </v>
   <v>       0.01530612 </v>
   <v>       0.01530612 </v>
   <v>       0.01530612 </v>
   <v>       0.01530612 </v>
   <v>       0.01530612 </v>
   <v>       0.01530612 </v>
   <v>       0.00765306 </v>
   <v>       0.00765306 </v>
   <v>       0.01530612 </v>
   <v>       0.01530612 </v>
   <v>       0.01530612 </v>
   <v>       0.01530612 </v>
   <v>       0.01530612 </v>
   <v>       0.01530612 </v>
   <v>       0.00765306 </v>
   <v>       0.01530612 </v>
   <v>       0.01530612 </v>
   <v>       0.01530612 </v>
   <v>       0.01530612 </v>
   <v>       0.00765306 </v>
   <v>       0.00765306 </v>
   <v>       0.01530612 </v>
   <v>       0.01530612 </v>
   <v>       0.01530612 </v>
   <v>       0.00765306 </v>
   <v>       0.01530612 </v>
   <v>       0.00765306 </v>
   <v>       0.00765306 </v>
  </varray>
 </kpoints>
 <parameters>
  <separator name="general" >
   <i type="string" name="SYSTEM">unknown system</i>
   <i type="logical" name="LCOMPAT"> F  </i>
  </separator>
  <separator name="electronic" >
   <i type="string" name="PREC">accura</i>
   <i name="ENMAX">    286.92000000</i>
   <i name="ENAUG">    499.73200000</i>
   <i name="EDIFF">      0.00000100</i>
   <i type="int" name="IALGO">    38</i>
   <i type="int" name="IWAVPR">    10</i>
   <i type="int" name="NBANDS">    16</i>
   <i type="int" name="NBANDSLOW">    -1</i>
   <i type="int" name="NBANDSHIGH">    -1</i>
   <i name="NELECT">     10.00000000</i>
   <i type="int" name="TURBO">     0</i>
   <i type="int" name="IRESTART">     0</i>
   <i type="int" name="NREBOOT">     0</i>
   <i type="int" name="NMIN">     0</i>
   <i name="EREF">      0.00000000</i>
   <separator name="electronic smearing" >
    <i type="int" name="ISMEAR">     0</i>
    <i name="SIGMA">      0.01000000</i>
    <i name="KSPACING">      0.50000000</i>
    <i type="logical" name="KGAMMA"> T  </i>
    <i type="logical" name="KBLOWUP"> T  </i>
   </separator>
   <separator name="electronic projectors" >
    <i type="logical" name="LREAL"> F  </i>
    <v name="ROPT">      0.00000000</v>
    <i type="int" name="LMAXPAW">  -100</i>
    <i type="int" name="LMAXMIX">     2</i>
    <i type="logical" name="NLSPLINE"> F  </i>
   </separator>
   <separator name="electronic startup" >
    <i type="int" name="ISTART">     0</i>
    <i type="int" name="ICHARG">     2</i>
    <i type="int" name="INIWAV">     1</i>
   </separator>
   <separator name="electronic spin" >
    <i type="int" name="ISPIN">     1</i>
    <i type="logical" name="LNONCOLLINEAR"> F  </i>
    <v name="MAGMOM">      1.00000000      1.00000000</v>
    <i name="NUPDOWN">     -1.00000000</i>
    <i type="logical" name="LSORBIT"> F  </i>
    <v name="SAXIS">      0.00000000      0.00000000      1.00000000</v>
    <i type="logical" name="LSPIRAL"> F  </i>
    <v name="QSPIRAL">      0.00000000      0.00000000      0.00000000</v>
    <i type="logical" name="LZEROZ"> F  </i>
   </separator>
   <separator name="electronic exchange-correlation" >
    <i type="logical" name="LASPH"> T  </i>
    <i type="logical" name="LMETAGGA"> F  </i>
   </separator>
   <separator name="electronic convergence" >
    <i type="int" name="NELM">   200</i>
    <i type="int" name="NELMDL">   -12</i>
    <i type="int" name="NELMIN">     6</i>
    <i name="ENINI">    286.92000000</i>
    <separator name="electronic convergence detail" >
     <i type="logical" name="LDIAG"> T  </i>
     <i type="logical" name="LSUBROT"> F  </i>
     <i name="WEIMIN">      0.00000000</i>
     <i name="EBREAK">      0.00000002</i>
     <i name="DEPER">      0.30000000</i>
     <i type="int" name="NRMM">     4</i>
     <i name="TIME">      0.40000000</i>
    </separator>
   </separator>
   <separator name="electronic mixer" >
    <i name="AMIX">      0.10000000</i>
    <i name="BMIX">      0.00010000</i>
    <i name="AMIN">      0.10000000</i>
    <i name="AMIX_MAG">      0.40000000</i>
    <i name="BMIX_MAG">      0.00010000</i>
    <separator name="electronic mixer details" >
     <i type="int" name="IMIX">     4</i>
     <i type="logical" name="MIXFIRST"> F  </i>
     <i type="int" name="MAXMIX">   -45</i>
     <i name="WC">    100.00000000</i>
     <i type="int" name="INIMIX">     1</i>
     <i type="int" name="MIXPRE">     1</i>
     <i type="int" name="MREMOVE">     5</i>
    </separator>
   </separator>
   <separator name="electronic dipolcorrection" >
    <i type="logical" name="LDIPOL"> F  </i>
    <i type="logical" name="LMONO"> F  </i>
    <i type="int" name="IDIPOL">     0</i>
    <i name="EPSILON">      1.00000000</i>
    <v name="DIPOL">   -100.00000000   -100.00000000   -100.00000000</v>
    <i name="EFIELD">      0.00000000</i>
   </separator>
  </separator>
  <separator name="grids" >
   <i type="int" name="NGX">    18</i>
   <i type="int" name="NGY">    18</i>
   <i type="int" name="NGZ">    90</i>
   <i type="int" name="NGXF">    36</i>
   <i type="int" name="NGYF">    36</i>
   <i type="int" name="NGZF">   180</i>
   <i type="logical" name="ADDGRID"> T  </i>
  </separator>
  <separator name="ionic" >
   <i type="int" name="NSW">     0</i>
   <i type="int" name="IBRION">    -1</i>
   <i type="int" name="MDALGO">     0</i>
   <i type="int" name="ISIF">    -1</i>
   <i name="PSTRESS">      0.00000000</i>
   <i name="EDIFFG">     -0.01000000</i>
   <i type="int" name="NFREE">     1</i>
   <i name="POTIM">      0.50000000</i>
   <i name="SMASS">     -3.00000000</i>
   <i name="SCALEE">      1.00000000</i>
  </separator>
  <separator name="ionic md" >
   <i name="TEBEG">      0.00010000</i>
   <i name="TEEND">      0.00010000</i>
   <i type="int" name="NBLOCK">     1</i>
   <i type="int" name="KBLOCK">     1</i>
   <i type="int" name="NPACO">   256</i>
   <i name="APACO">     10.00000000</i>
  </separator>
  <separator name="symmetry" >
   <i type="int" name="ISYM">     2</i>
   <i name="SYMPREC">      0.00001000</i>
  </separator>
  <separator name="dos" >
   <i type="int" name="LORBIT">    10</i>
   <v name="RWIGS">     -1.00000000</v>
   <i type="int" name="NEDOS">  6001</i>
   <i name="EMIN">     10.00000000</i>
   <i name="EMAX">    -10.00000000</i>
   <i name="EFERMI">      0.00000000</i>
  </separator>
  <separator name="writing" >
   <i type="int" name="NWRITE">     1</i>
   <i type="logical" name="LWAVE"> F  </i>
   <i type="logical" name="LDOWNSAMPLE"> F  </i>
   <i type="logical" name="LCHARG"> F  </i>
   <i type="logical" name="LPARD"> F  </i>
   <i type="logical" name="LVTOT"> F  </i>
   <i type="logical" name="LVHAR"> F  </i>
   <i type="logical" name="LELF"> F  </i>
   <i type="logical" name="LOPTICS"> F  </i>
   <v name="STM">      0.00000000      0.00000000      0.00000000      0.00000000      0.00000000      0.00000000      0.00000000</v>
  </separator>
  <separator name="performance" >
   <i type="int" name="NPAR">     4</i>
   <i type="int" name="NSIM">     4</i>
   <i type="int" name="NBLK">    -1</i>
   <i type="logical" name="LPLANE"> T  </i>
   <i type="logical" name="LSCALAPACK"> T  </i>
   <i type="logical" name="LSCAAWARE"> F  </i>
   <i type="logical" name="LSCALU"> F  </i>
   <i type="logical" name="LASYNC"> F  </i>
   <i type="logical" name="LORBITALREAL"> F  </i>
  </separator>
  <separator name="miscellaneous" >
   <i type="int" name="IDIOT">     3</i>
   <i type="int" name="PHON_NSTRUCT">    -1</i>
   <i type="logical" name="LMUSIC"> F  </i>
   <v name="POMASS">     30.97400000</v>
   <v name="DARWINR">      0.00000000</v>
   <v name="DARWINV">      1.00000000</v>
   <i type="logical" name="LCORR"> T  </i>
  </separator>
  <i type="logical" name="GGA_COMPAT"> T  </i>
  <i type="logical" name="LBERRY"> F  </i>
  <i type="int" name="ICORELEVEL">     0</i>
  <i type="logical" name="LDAU"> F  </i>
  <i type="int" name="I_CONSTRAINED_M">     0</i>
  <separator name="electronic exchange-correlation" >
   <i type="string" name="GGA">--</i>
   <i type="int" name="VOSKOWN">     0</i>
   <i type="logical" name="LHFCALC"> F  </i>
   <i type="string" name="PRECFOCK"></i>
   <i type="logical" name="LSYMGRAD"> F  </i>
   <i type="logical" name="LHFONE"> F  </i>
   <i type="logical" name="LRHFCALC"> F  </i>
   <i type="logical" name="LTHOMAS"> F  </i>
   <i type="logical" name="LMODELHF"> F  </i>
   <i type="logical" name="LFOCKACE"> F  </i>
   <i name="ENCUT4O">     -1.00000000</i>
   <i type="int" name="EXXOEP">     0</i>
   <i type="int" name="FOURORBIT">     0</i>
   <i name="AEXX">      0.00000000</i>
   <i name="HFALPHA">      0.00000000</i>
   <i name="MCALPHA">      0.00000000</i>
   <i name="ALDAX">      1.00000000</i>
   <i name="AGGAX">      1.00000000</i>
   <i name="ALDAC">      1.00000000</i>
   <i name="AGGAC">      1.00000000</i>
   <i type="int" name="NKREDX">     1</i>
   <i type="int" name="NKREDY">     1</i>
   <i type="int" name="NKREDZ">     1</i>
   <i type="logical" name="SHIFTRED"> F  </i>
   <i type="logical" name="ODDONLY"> F  </i>
   <i type="logical" name="EVENONLY"> F  </i>
   <i type="int" name="LMAXFOCK">     0</i>
   <i type="int" name="NMAXFOCKAE">     0</i>
   <i type="logical" name="LFOCKAEDFT"> F  </i>
   <i name="HFSCREEN">      0.00000000</i>
   <i name="HFSCREENC">      0.00000000</i>
   <i type="int" name="NBANDSGWLOW">     0</i>
  </separator>
  <separator name="vdW DFT" >
   <i type="logical" name="LUSE_VDW"> F  </i>
   <i type="int" name="IVDW_NL">     1</i>
   <i type="logical" name="LSPIN_VDW"> F  </i>
   <i name="Zab_VDW">     -0.84910000</i>
   <i name="PARAM1">      0.12340000</i>
   <i name="PARAM2">      1.00000000</i>
   <i name="PARAM3">      0.00000000</i>
  </separator>
  <separator name="model GW" >
   <i type="int" name="MODEL_GW">     0</i>
   <i name="MODEL_EPS0">     44.78575751</i>
   <i name="MODEL_ALPHA">      1.00000000</i>
  </separator>
  <separator name="linear response parameters" >
   <i type="logical" name="LEPSILON"> F  </i>
   <i type="logical" name="LRPA"> F  </i>
   <i type="logical" name="LNABLA"> F  </i>
   <i type="logical" name="LVEL"> F  </i>
   <i name="CSHIFT">      0.10000000</i>
   <i name="OMEGAMAX">     -1.00000000</i>
   <i name="DEG_THRESHOLD">      0.00200000</i>
   <i name="RTIME">     -0.10000000</i>
   <i name="WPLASMAI">      0.00000000</i>
   <v name="DFIELD">      0.00000000      0.00000000      0.00000000</v>
   <v name="WPLASMA">      0.00000000      0.00000000      0.00000000      0.00000000      0.00000000      0.00000000      0.00000000      0.00000000      0.00000000</v>
  </separator>
  <separator name="orbital magnetization" >
   <i type="logical" name="NUCIND"> F  </i>
   <v name="MAGPOS">      0.00000000      0.00000000      0.00000000</v>
   <i type="logical" name="LNICSALL"> T  </i>
   <i type="logical" name="ORBITALMAG"> F  </i>
   <i type="logical" name="LMAGBLOCH"> F  </i>
   <i type="logical" name="LCHIMAG"> F  </i>
   <i type="logical" name="LGAUGE"> T  </i>
   <i type="int" name="MAGATOM">     0</i>
   <v name="MAGDIPOL">      0.00000000      0.00000000      0.00000000</v>
   <v name="AVECCONST">      0.00000000      0.00000000      0.00000000</v>
  </separator>
  <separator name="response functions" >
   <i type="logical" name="LALL_IN_ONE"> F  </i>
   <i type="int" name="IALL_IN_ONE">    -1</i>
   <i type="int" name="NBANDS_WAVE">    -1</i>
   <i type="logical" name="LFINITE_TEMPERATURE"> F  </i>
   <i type="logical" name="LADDER"> F  </i>
   <i type="logical" name="LRPAFORCE"> F  </i>
   <i type="logical" name="LFXC"> F  </i>
   <i type="logical" name="LHARTREE"> T  </i>
   <i type="int" name="IBSE">     0</i>
   <v type="int" name="KPOINT">    -1     0     0     0</v>
   <i type="logical" name="LTCTC"> F  </i>
   <i type="logical" name="LTCTE"> F  </i>
   <i type="logical" name="LTETE"> F  </i>
   <i type="logical" name="LTRIPLET"> F  </i>
   <i type="logical" name="LFXCEPS"> F  </i>
   <i type="logical" name="LFXHEG"> F  </i>
   <i type="int" name="NATURALO">     2</i>
   <i type="logical" name="LHOLEGF"> F  </i>
   <i type="logical" name="L2ORDER"> F  </i>
   <i type="logical" name="LDMP1"> F  </i>
   <i type="logical" name="LMP2LT"> F  </i>
   <i type="logical" name="LSMP2LT"> F  </i>
   <i type="logical" name="LGWLF"> F  </i>
   <i name="ENCUTGW">     -1.60000002</i>
   <i name="ENCUTGWSOFT">     -1.60000002</i>
   <i name="ENCUTLF">     -1.00000000</i>
   <i type="logical" name="LESF_SPLINES"> F  </i>
   <i type="int" name="LMAXMP2">    -1</i>
   <i name="SCISSOR">      0.00000000</i>
   <i type="int" name="NOMEGA">     0</i>
   <i type="int" name="NOMEGAR">     0</i>
   <i type="int" name="NBANDSGW">    -1</i>
   <i type="int" name="NBANDSO">    -1</i>
   <i type="int" name="NBANDSV">    -1</i>
   <i type="int" name="NELMGW">     1</i>
   <i type="int" name="NELMHF">     1</i>
   <i type="int" name="DIM">     3</i>
   <i type="int" name="IESPILON">     4</i>
   <i type="int" name="ANTIRES">     0</i>
   <i name="OMEGAMAX">    -30.00000000</i>
   <i name="OMEGAMIN">    -30.00000000</i>
   <i name="OMEGATL">   -200.00000000</i>
   <i type="int" name="OMEGAGRID">     0</i>
   <i name="CSHIFT">     -0.10000000</i>
   <i type="logical" name="LSELFENERGY"> F  </i>
   <i type="logical" name="LSPECTRAL"> F  </i>
   <i type="logical" name="LSPECTRALGW"> F  </i>
   <i type="logical" name="LSINGLES"> F  </i>
   <i type="logical" name="LFERMIGW"> F  </i>
   <i type="logical" name="ODDONLYGW"> F  </i>
   <i type="logical" name="EVENONLYGW"> F  </i>
   <i type="int" name="NKREDLFX">     1</i>
   <i type="int" name="NKREDLFY">     1</i>
   <i type="int" name="NKREDLFZ">     1</i>
   <i type="int" name="MAXMEM">  2800</i>
   <i type="int" name="TELESCOPE">     0</i>
   <i type="int" name="NTAUPAR">    -1</i>
   <i type="int" name="NOMEGAPAR">    -1</i>
   <i name="DAMP_NEWTON">      0.80000001</i>
   <i name="LAMBDA">      1.00000000</i>
  </separator>
  <separator name="External order field" >
   <i name="OFIELD_KAPPA">      0.00000000</i>
   <v name="OFIELD_K">      0.00000000      0.00000000      0.00000000</v>
   <i name="OFIELD_Q6_NEAR">      0.00000000</i>
   <i name="OFIELD_Q6_FAR">      0.00000000</i>
   <i name="OFIELD_A">      0.00000000</i>
  </separator>
  <separator name="optional k-points parameters" >
   <i type="int" name="KPOINTS_OPT_MODE">     1</i>
   <i type="logical" name="LKPOINTS_OPT"> F  </i>
  </separator>
 </parameters>
 <atominfo>
  <atoms>       2 </atoms>
  <types>       1 </types>
  <array name="atoms" >
   <dimension dim="1">ion</dimension>
   <field type="string">element</field>
   <field type="int">atomtype</field>
   <set>
    <rc><c>P </c><c>   1</c></rc>
    <rc><c>P </c><c>   1</c></rc>
   </set>
  </array>
  <array name="atomtypes" >
   <dimension dim="1">type</dimension>
   <field type="int">atomspertype</field>
   <field type="string">element</field>
   <field>mass</field>
   <field>valence</field>
   <field type="string">pseudopotential</field>
   <set>
    <rc><c>   2</c><c>P </c><c>     30.97400000</c><c>      5.00000000</c><c>  PAW_PBE P_GW 19Mar2012                </c></rc>
   </set>
  </array>
 </atominfo>
 <structure name="initialpos" >
  <crystal>
   <varray name="basis" >
    <v>       3.28234349       0.00000000       0.00000000 </v>
    <v>      -1.64117175       2.84259285       0.00000000 </v>
    <v>       0.00000000       0.00000000      16.00000000 </v>
   </varray>
   <i name="volume">    149.28585836 </i>
   <varray name="rec_basis" >
    <v>       0.30466038       0.17589575       0.00000000 </v>
    <v>       0.00000000       0.35179150       0.00000000 </v>
    <v>       0.00000000       0.00000000       0.06250000 </v>
   </varray>
  </crystal>
  <varray name="positions" >
   <v>       0.66666667       0.33333333       0.46118284 </v>
   <v>       0.33333333       0.66666667       0.53881716 </v>
  </varray>
 </structure>
 <calculation>
  <scstep>
   <time name="dav">    0.37    0.37</time>
   <time name="total">    0.51    0.52</time>
   <energy>
    <i name="alphaZ">      3.71007814 </i>
    <i name="ewald">    534.42243236 </i>
    <i name="hartreedc">   -833.34816100 </i>
    <i name="XCdc">     -7.57089016 </i>
    <i name="pawpsdc">    293.95507915 </i>
    <i name="pawaedc">   -263.19716017 </i>
    <i name="eentropy">     -0.00023835 </i>
    <i name="bandstr">    -45.80730696 </i>
    <i name="atom">    352.07568098 </i>
    <i name="e_fr_energy">     34.23951399 </i>
    <i name="e_wo_entrp">     34.23975234 </i>
    <i name="e_0_energy">     34.23963317 </i>
   </energy>
  </scstep>
  <scstep>
   <time name="dav">    0.49    0.49</time>
   <time name="total">    0.49    0.49</time>
   <energy>
    <i name="e_fr_energy">     -7.45841352 </i>
    <i name="e_wo_entrp">     -7.45841352 </i>
    <i name="e_0_energy">     -7.45841352 </i>
   </energy>
  </scstep>
  <scstep>
   <time name="dav">    0.47    0.47</time>
   <time name="total">    0.47    0.47</time>
   <energy>
    <i name="e_fr_energy">    -10.60440056 </i>
    <i name="e_wo_entrp">    -10.60440056 </i>
    <i name="e_0_energy">    -10.60440056 </i>
   </energy>
  </scstep>
  <scstep>
   <time name="dav">    0.57    0.57</time>
   <time name="total">    0.57    0.57</time>
   <energy>
    <i name="e_fr_energy">    -10.78491062 </i>
    <i name="e_wo_entrp">    -10.78491062 </i>
    <i name="e_0_energy">    -10.78491062 </i>
   </energy>
  </scstep>
  <scstep>
   <time name="dav">    0.47    0.47</time>
   <time name="total">    0.47    0.47</time>
   <energy>
    <i name="e_fr_energy">    -10.78589573 </i>
    <i name="e_wo_entrp">    -10.78589573 </i>
    <i name="e_0_energy">    -10.78589573 </i>
   </energy>
  </scstep>
  <scstep>
   <time name="dav">    0.51    0.51</time>
   <time name="total">    0.51    0.51</time>
   <energy>
    <i name="e_fr_energy">    -10.78592646 </i>
    <i name="e_wo_entrp">    -10.78592646 </i>
    <i name="e_0_energy">    -10.78592646 </i>
   </energy>
  </scstep>
  <scstep>
   <time name="dav">    0.51    0.51</time>
   <time name="total">    0.51    0.51</time>
   <energy>
    <i name="e_fr_energy">    -10.78592716 </i>
    <i name="e_wo_entrp">    -10.78592716 </i>
    <i name="e_0_energy">    -10.78592716 </i>
   </energy>
  </scstep>
  <scstep>
   <time name="dav">    0.41    0.41</time>
   <time name="total">    0.41    0.41</time>
   <energy>
    <i name="e_fr_energy">    -10.78592718 </i>
    <i name="e_wo_entrp">    -10.78592718 </i>
    <i name="e_0_energy">    -10.78592718 </i>
   </energy>
  </scstep>
  <scstep>
   <time name="dav">    0.42    0.42</time>
   <time name="total">    0.42    0.42</time>
   <energy>
    <i name="e_fr_energy">    -10.78592718 </i>
    <i name="e_wo_entrp">    -10.78592718 </i>
    <i name="e_0_energy">    -10.78592718 </i>
   </energy>
  </scstep>
  <scstep>
   <time name="dav">    0.38    0.38</time>
   <time name="total">    0.38    0.38</time>
   <energy>
    <i name="e_fr_energy">    -10.78592718 </i>
    <i name="e_wo_entrp">    -10.78592718 </i>
    <i name="e_0_energy">    -10.78592718 </i>
   </energy>
  </scstep>
  <scstep>
   <time name="dav">    0.34    0.34</time>
   <time name="total">    0.34    0.34</time>
   <energy>
    <i name="e_fr_energy">    -10.78592718 </i>
    <i name="e_wo_entrp">    -10.78592718 </i>
    <i name="e_0_energy">    -10.78592718 </i>
   </energy>
  </scstep>
  <scstep>
   <time name="dav">    0.34    0.35</time>
   <time name="total">    0.37    0.37</time>
   <energy>
    <i name="e_fr_energy">    -10.78592718 </i>
    <i name="e_wo_entrp">    -10.78592718 </i>
    <i name="e_0_energy">    -10.78592718 </i>
   </energy>
  </scstep>
  <scstep>
   <time name="dav">    0.48    0.48</time>
   <time name="total">    0.65    0.65</time>
   <energy>
    <i name="e_fr_energy">    -10.75978381 </i>
    <i name="e_wo_entrp">    -10.75978381 </i>
    <i name="e_0_energy">    -10.75978381 </i>
   </energy>
  </scstep>
  <scstep>
   <time name="dav">    0.64    0.64</time>
   <time name="total">    0.87    0.88</time>
   <energy>
    <i name="e_fr_energy">    -10.68368421 </i>
    <i name="e_wo_entrp">    -10.68368421 </i>
    <i name="e_0_energy">    -10.68368421 </i>
   </energy>
  </scstep>
  <scstep>
   <time name="dav">    0.73    0.73</time>
   <time name="total">    1.00    1.00</time>
   <energy>
    <i name="e_fr_energy">    -10.67832659 </i>
    <i name="e_wo_entrp">    -10.67832659 </i>
    <i name="e_0_energy">    -10.67832659 </i>
   </energy>
  </scstep>
  <scstep>
   <time name="dav">    0.73    0.73</time>
   <time name="total">    0.99    0.99</time>
   <energy>
    <i name="e_fr_energy">    -10.67855450 </i>
    <i name="e_wo_entrp">    -10.67855450 </i>
    <i name="e_0_energy">    -10.67855450 </i>
   </energy>
  </scstep>
  <scstep>
   <time name="dav">    0.69    0.69</time>
   <time name="total">    0.96    0.96</time>
   <energy>
    <i name="e_fr_energy">    -10.67840136 </i>
    <i name="e_wo_entrp">    -10.67840136 </i>
    <i name="e_0_energy">    -10.67840136 </i>
   </energy>
  </scstep>
  <scstep>
   <time name="dav">    0.65    0.65</time>
   <time name="total">    0.91    0.92</time>
   <energy>
    <i name="e_fr_energy">    -10.67837548 </i>
    <i name="e_wo_entrp">    -10.67837548 </i>
    <i name="e_0_energy">    -10.67837548 </i>
   </energy>
  </scstep>
  <scstep>
   <time name="dav">    0.72    0.72</time>
   <time name="total">    0.99    0.99</time>
   <energy>
    <i name="e_fr_energy">    -10.67837636 </i>
    <i name="e_wo_entrp">    -10.67837636 </i>
    <i name="e_0_energy">    -10.67837636 </i>
   </energy>
  </scstep>
  <scstep>
   <time name="dav">    0.57    0.57</time>
   <time name="total">    0.83    0.83</time>
   <energy>
    <i name="e_fr_energy">    -10.67837827 </i>
    <i name="e_wo_entrp">    -10.67837827 </i>
    <i name="e_0_energy">    -10.67837827 </i>
   </energy>
  </scstep>
  <scstep>
   <time name="dav">    0.59    0.59</time>
   <time name="total">    0.82    0.82</time>
   <energy>
    <i name="alphaZ">      3.71007814 </i>
    <i name="ewald">    534.42243236 </i>
    <i name="hartreedc">   -838.78059819 </i>
    <i name="XCdc">     -7.05573562 </i>
    <i name="pawpsdc">    350.95740275 </i>
    <i name="pawaedc">   -320.39319993 </i>
    <i name="eentropy">     -0.00000000 </i>
    <i name="bandstr">    -85.61443864 </i>
    <i name="atom">    352.07568098 </i>
    <i name="e_fr_energy">    -10.67837815 </i>
    <i name="e_wo_entrp">    -10.67837815 </i>
    <i name="e_0_energy">    -10.67837815 </i>
   </energy>
  </scstep>
  <structure>
   <crystal>
    <varray name="basis" >
     <v>       3.28234349       0.00000000       0.00000000 </v>
     <v>      -1.64117175       2.84259285       0.00000000 </v>
     <v>       0.00000000       0.00000000      16.00000000 </v>
    </varray>
    <i name="volume">    149.28585836 </i>
    <varray name="rec_basis" >
     <v>       0.30466038       0.17589575       0.00000000 </v>
     <v>       0.00000000       0.35179150       0.00000000 </v>
     <v>       0.00000000       0.00000000       0.06250000 </v>
    </varray>
   </crystal>
   <varray name="positions" >
    <v>       0.66666667       0.33333333       0.46118284 </v>
    <v>       0.33333333       0.66666667       0.53881716 </v>
   </varray>
  </structure>
  <varray name="forces" >
   <v>       0.00000000       0.00000000       0.00000000 </v>
   <v>       0.00000000       0.00000000       0.00000000 </v>
  </varray>
  <varray name="stress" >
   <v>       0.00000000       0.00000000       0.00000000 </v>
   <v>       0.00000000       0.00000000       0.00000000 </v>
   <v>       0.00000000       0.00000000       0.00000000 </v>
  </varray>
  <energy>
   <i name="e_fr_energy">    -10.67837815 </i>
   <i name="e_wo_entrp">    -10.67837815 </i>
   <i name="e_0_energy">    -10.67837815 </i>
  </energy>
  <time name="totalsc">   13.50   13.62</time>
  <eigenvalues>
   <array>
    <dimension dim="1">band</dimension>
    <dimension dim="2">kpoint</dimension>
    <dimension dim="3">spin</dimension>
    <field>eigene</field>
    <field>occ</field>
    <set>
     <set comment="spin 1">
      <set comment="kpoint 1">
       <r>  -17.4730    1.0000 </r>
       <r>   -9.7589    1.0000 </r>
       <r>   -3.7663    1.0000 </r>
       <r>   -3.4968    1.0000 </r>
       <r>   -3.4968    1.0000 </r>
       <r>    0.3739    0.0000 </r>
       <r>    0.5273    0.0000 </r>
       <r>    0.5273    0.0000 </r>
       <r>    2.0246    0.0000 </r>
       <r>    2.4622    0.0000 </r>
       <r>    3.8141    0.0000 </r>
       <r>    4.4394    0.0000 </r>
       <r>    6.4784    0.0000 </r>
       <r>    6.4784    0.0000 </r>
       <r>    6.9162    0.0000 </r>
       <r>    7.5658    0.0000 </r>
      </set>
      <set comment="kpoint 2">
       <r>  -17.4525    1.0000 </r>
       <r>   -9.7449    1.0000 </r>
       <r>   -3.7540    1.0000 </r>
       <r>   -3.6897    1.0000 </r>
       <r>   -3.5462    1.0000 </r>
       <r>    0.4316    0.0000 </r>
       <r>    0.5902    0.0000 </r>
       <r>    0.5987    0.0000 </r>
       <r>    2.0502    0.0000 </r>
       <r>    2.4834    0.0000 </r>
       <r>    3.8302    0.0000 </r>
       <r>    4.4625    0.0000 </r>
       <r>    6.2485    0.0000 </r>
       <r>    6.4380    0.0000 </r>
       <r>    7.0090    0.0000 </r>
       <r>    7.5564    0.0000 </r>
      </set>
      <set comment="kpoint 3">
       <r>  -17.3909    1.0000 </r>
       <r>   -9.7042    1.0000 </r>
       <r>   -4.1779    1.0000 </r>
       <r>   -3.7180    1.0000 </r>
       <r>   -3.6830    1.0000 </r>
       <r>    0.2797    0.0000 </r>
       <r>    0.7648    0.0000 </r>
       <r>    1.0523    0.0000 </r>
       <r>    2.1288    0.0000 </r>
       <r>    2.5467    0.0000 </r>
       <r>    3.8749    0.0000 </r>
       <r>    4.5315    0.0000 </r>
       <r>    5.8041    0.0000 </r>
       <r>    6.3433    0.0000 </r>
       <r>    7.1255    0.0000 </r>
       <r>    7.5188    0.0000 </r>
      </set>
      <set comment="kpoint 4">
       <r>  -17.2887    1.0000 </r>
       <r>   -9.6407    1.0000 </r>
       <r>   -4.8158    1.0000 </r>
       <r>   -3.8815    1.0000 </r>
       <r>   -3.6613    1.0000 </r>
       <r>    0.0361    0.0000 </r>
       <r>    1.0148    0.0000 </r>
       <r>    1.6134    0.0000 </r>
       <r>    2.2675    0.0000 </r>
       <r>    2.6526    0.0000 </r>
       <r>    3.9365    0.0000 </r>
       <r>    4.6462    0.0000 </r>
       <r>    5.3465    0.0000 </r>
       <r>    6.2485    0.0000 </r>
       <r>    7.1096    0.0000 </r>
       <r>    7.5091    0.0000 </r>
      </set>
      <set comment="kpoint 5">
       <r>  -17.1460    1.0000 </r>
       <r>   -9.5629    1.0000 </r>
       <r>   -5.5052    1.0000 </r>
       <r>   -4.1143    1.0000 </r>
       <r>   -3.5891    1.0000 </r>
       <r>   -0.2553    0.0000 </r>
       <r>    1.2949    0.0000 </r>
       <r>    2.0703    0.0000 </r>
       <r>    2.4589    0.0000 </r>
       <r>    2.8259    0.0000 </r>
       <r>    4.0102    0.0000 </r>
       <r>    4.8053    0.0000 </r>
       <r>    5.0408    0.0000 </r>
       <r>    6.2077    0.0000 </r>
       <r>    6.8633    0.0000 </r>
       <r>    7.6372    0.0000 </r>
      </set>
      <set comment="kpoint 6">
       <r>  -16.9636    1.0000 </r>
       <r>   -9.4886    1.0000 </r>
       <r>   -6.1832    1.0000 </r>
       <r>   -4.3598    1.0000 </r>
       <r>   -3.5108    1.0000 </r>
       <r>   -0.5647    0.0000 </r>
       <r>    1.5609    0.0000 </r>
       <r>    2.2455    0.0000 </r>
       <r>    2.6060    0.0000 </r>
       <r>    3.0917    0.0000 </r>
       <r>    4.1804    0.0000 </r>
       <r>    4.9835    0.0000 </r>
       <r>    5.0599    0.0000 </r>
       <r>    6.2655    0.0000 </r>
       <r>    6.5348    0.0000 </r>
       <r>    7.8283    0.0000 </r>
      </set>
      <set comment="kpoint 7">
       <r>  -16.7424    1.0000 </r>
       <r>   -9.4550    1.0000 </r>
       <r>   -6.7897    1.0000 </r>
       <r>   -4.6017    1.0000 </r>
       <r>   -3.4422    1.0000 </r>
       <r>   -0.8643    0.0000 </r>
       <r>    1.7767    0.0000 </r>
       <r>    2.0405    0.0000 </r>
       <r>    2.8238    0.0000 </r>
       <r>    3.3529    0.0000 </r>
       <r>    4.4697    0.0000 </r>
       <r>    5.2119    0.0000 </r>
       <r>    5.3964    0.0000 </r>
       <r>    6.2350    0.0000 </r>
       <r>    6.4554    0.0000 </r>
       <r>    8.0452    0.0000 </r>
      </set>
      <set comment="kpoint 8">
       <r>  -16.4836    1.0000 </r>
       <r>   -9.5320    1.0000 </r>
       <r>   -7.2416    1.0000 </r>
       <r>   -4.8292    1.0000 </r>
       <r>   -3.4080    1.0000 </r>
       <r>   -1.1258    0.0000 </r>
       <r>    1.6478    0.0000 </r>
       <r>    1.9234    0.0000 </r>
       <r>    3.1194    0.0000 </r>
       <r>    3.6166    0.0000 </r>
       <r>    4.6799    0.0000 </r>
       <r>    5.4677    0.0000 </r>
       <r>    5.8516    0.0000 </r>
       <r>    6.2078    0.0000 </r>
       <r>    6.7928    0.0000 </r>
       <r>    8.2667    0.0000 </r>
      </set>
      <set comment="kpoint 9">
       <r>  -16.1894    1.0000 </r>
       <r>   -9.7947    1.0000 </r>
       <r>   -7.4565    1.0000 </r>
       <r>   -5.0354    1.0000 </r>
       <r>   -3.4414    1.0000 </r>
       <r>   -1.3194    0.0000 </r>
       <r>    1.2302    0.0000 </r>
       <r>    2.0023    0.0000 </r>
       <r>    3.4628    0.0000 </r>
       <r>    3.8713    0.0000 </r>
       <r>    4.7257    0.0000 </r>
       <r>    5.6896    0.0000 </r>
       <r>    6.0586    0.0000 </r>
       <r>    6.8451    0.0000 </r>
       <r>    7.2686    0.0000 </r>
       <r>    8.4551    0.0000 </r>
      </set>
      <set comment="kpoint 10">
       <r>  -15.8629    1.0000 </r>
       <r>  -10.2312    1.0000 </r>
       <r>   -7.4417    1.0000 </r>
       <r>   -5.2157    1.0000 </r>
       <r>   -3.5697    1.0000 </r>
       <r>   -1.4242    0.0000 </r>
       <r>    0.8565    0.0000 </r>
       <r>    2.0293    0.0000 </r>
       <r>    3.8254    0.0000 </r>
       <r>    4.0079    0.0000 </r>
       <r>    4.7631    0.0000 </r>
       <r>    5.9556    0.0000 </r>
       <r>    6.3931    0.0000 </r>
       <r>    7.5462    0.0000 </r>
       <r>    7.8583    0.0000 </r>
       <r>    8.5919    0.0000 </r>
      </set>
      <set comment="kpoint 11">
       <r>  -15.5102    1.0000 </r>
       <r>  -10.7556    1.0000 </r>
       <r>   -7.2807    1.0000 </r>
       <r>   -5.3665    1.0000 </r>
       <r>   -3.7925    1.0000 </r>
       <r>   -1.4483    0.0000 </r>
       <r>    0.5600    0.0000 </r>
       <r>    2.0243    0.0000 </r>
       <r>    3.7946    0.0000 </r>
       <r>    4.3183    0.0000 </r>
       <r>    5.0308    0.0000 </r>
       <r>    6.2912    0.0000 </r>
       <r>    6.8106    0.0000 </r>
       <r>    7.9014    0.0000 </r>
       <r>    8.5185    0.0000 </r>
       <r>    8.9033    0.0000 </r>
      </set>
      <set comment="kpoint 12">
       <r>  -15.1423    1.0000 </r>
       <r>  -11.2933    1.0000 </r>
       <r>   -7.0462    1.0000 </r>
       <r>   -5.4857    1.0000 </r>
       <r>   -4.0773    1.0000 </r>
       <r>   -1.4264    0.0000 </r>
       <r>    0.3551    0.0000 </r>
       <r>    2.0044    0.0000 </r>
       <r>    3.5416    0.0000 </r>
       <r>    4.7916    0.0000 </r>
       <r>    5.4421    0.0000 </r>
       <r>    6.6506    0.0000 </r>
       <r>    7.2812    0.0000 </r>
       <r>    7.8839    0.0000 </r>
       <r>    8.6446    0.0000 </r>
       <r>    9.1643    0.0000 </r>
      </set>
      <set comment="kpoint 13">
       <r>  -14.7829    1.0000 </r>
       <r>  -11.7882    1.0000 </r>
       <r>   -6.7924    1.0000 </r>
       <r>   -5.5717    1.0000 </r>
       <r>   -4.3744    1.0000 </r>
       <r>   -1.3948    0.0000 </r>
       <r>    0.2388    0.0000 </r>
       <r>    1.9824    0.0000 </r>
       <r>    3.2993    0.0000 </r>
       <r>    5.3105    0.0000 </r>
       <r>    5.9122    0.0000 </r>
       <r>    6.9550    0.0000 </r>
       <r>    7.6943    0.0000 </r>
       <r>    7.8458    0.0000 </r>
       <r>    8.1102    0.0000 </r>
       <r>    8.8078    0.0000 </r>
      </set>
      <set comment="kpoint 14">
       <r>  -14.4871    1.0000 </r>
       <r>  -12.1698    1.0000 </r>
       <r>   -6.5798    1.0000 </r>
       <r>   -5.6237    1.0000 </r>
       <r>   -4.6169    1.0000 </r>
       <r>   -1.3736    0.0000 </r>
       <r>    0.1895    0.0000 </r>
       <r>    1.9661    0.0000 </r>
       <r>    3.1295    0.0000 </r>
       <r>    5.8625    0.0000 </r>
       <r>    6.3739    0.0000 </r>
       <r>    7.0206    0.0000 </r>
       <r>    7.3382    0.0000 </r>
       <r>    7.8938    0.0000 </r>
       <r>    8.3760    0.0000 </r>
       <r>    8.4511    0.0000 </r>
      </set>
      <set comment="kpoint 15">
       <r>  -14.3625    1.0000 </r>
       <r>  -12.3238    1.0000 </r>
       <r>   -6.4917    1.0000 </r>
       <r>   -5.6413    1.0000 </r>
       <r>   -4.7156    1.0000 </r>
       <r>   -1.3672    0.0000 </r>
       <r>    0.1778    0.0000 </r>
       <r>    1.9600    0.0000 </r>
       <r>    3.0684    0.0000 </r>
       <r>    6.3909    0.0000 </r>
       <r>    6.4031    0.0000 </r>
       <r>    6.8511    0.0000 </r>
       <r>    7.2184    0.0000 </r>
       <r>    7.7115    0.0000 </r>
       <r>    8.4882    0.0000 </r>
       <r>    8.9430    0.0000 </r>
      </set>
      <set comment="kpoint 16">
       <r>  -17.4114    1.0000 </r>
       <r>   -9.7176    1.0000 </r>
       <r>   -4.0211    1.0000 </r>
       <r>   -3.7300    1.0000 </r>
       <r>   -3.6470    1.0000 </r>
       <r>    0.4535    0.0000 </r>
       <r>    0.5249    0.0000 </r>
       <r>    0.9754    0.0000 </r>
       <r>    2.1024    0.0000 </r>
       <r>    2.5256    0.0000 </r>
       <r>    3.8605    0.0000 </r>
       <r>    4.5085    0.0000 </r>
       <r>    5.9405    0.0000 </r>
       <r>    6.3504    0.0000 </r>
       <r>    7.1101    0.0000 </r>
       <r>    7.5326    0.0000 </r>
      </set>
      <set comment="kpoint 17">
       <r>  -17.3295    1.0000 </r>
       <r>   -9.6654    1.0000 </r>
       <r>   -4.5634    1.0000 </r>
       <r>   -3.8330    1.0000 </r>
       <r>   -3.6834    1.0000 </r>
       <r>    0.2695    0.0000 </r>
       <r>    0.7157    0.0000 </r>
       <r>    1.4903    0.0000 </r>
       <r>    2.2123    0.0000 </r>
       <r>    2.6085    0.0000 </r>
       <r>    3.9125    0.0000 </r>
       <r>    4.6004    0.0000 </r>
       <r>    5.5175    0.0000 </r>
       <r>    6.2193    0.0000 </r>
       <r>    7.2129    0.0000 </r>
       <r>    7.4815    0.0000 </r>
      </set>
      <set comment="kpoint 18">
       <r>  -17.2071    1.0000 </r>
       <r>   -9.5943    1.0000 </r>
       <r>   -5.2075    1.0000 </r>
       <r>   -4.0686    1.0000 </r>
       <r>   -3.6188    1.0000 </r>
       <r>    0.0049    0.0000 </r>
       <r>    0.9988    0.0000 </r>
       <r>    1.9825    0.0000 </r>
       <r>    2.3937    0.0000 </r>
       <r>    2.7375    0.0000 </r>
       <r>    3.9689    0.0000 </r>
       <r>    4.7377    0.0000 </r>
       <r>    5.1375    0.0000 </r>
       <r>    6.1291    0.0000 </r>
       <r>    7.1232    0.0000 </r>
       <r>    7.5385    0.0000 </r>
      </set>
      <set comment="kpoint 19">
       <r>  -17.0446    1.0000 </r>
       <r>   -9.5169    1.0000 </r>
       <r>   -5.8771    1.0000 </r>
       <r>   -4.3252    1.0000 </r>
       <r>   -3.5430    1.0000 </r>
       <r>   -0.2926    0.0000 </r>
       <r>    1.2958    0.0000 </r>
       <r>    2.2824    0.0000 </r>
       <r>    2.5707    0.0000 </r>
       <r>    2.9590    0.0000 </r>
       <r>    4.0498    0.0000 </r>
       <r>    4.9125    0.0000 </r>
       <r>    4.9811    0.0000 </r>
       <r>    6.1357    0.0000 </r>
       <r>    6.8662    0.0000 </r>
       <r>    7.7140    0.0000 </r>
      </set>
      <set comment="kpoint 20">
       <r>  -16.8427    1.0000 </r>
       <r>   -9.4592    1.0000 </r>
       <r>   -6.5120    1.0000 </r>
       <r>   -4.5832    1.0000 </r>
       <r>   -3.4681    1.0000 </r>
       <r>   -0.5950    0.0000 </r>
       <r>    1.5546    0.0000 </r>
       <r>    2.2596    0.0000 </r>
       <r>    2.7200    0.0000 </r>
       <r>    3.2282    0.0000 </r>
       <r>    4.2670    0.0000 </r>
       <r>    5.0680    0.0000 </r>
       <r>    5.1720    0.0000 </r>
       <r>    6.2321    0.0000 </r>
       <r>    6.6485    0.0000 </r>
       <r>    7.9246    0.0000 </r>
      </set>
      <set comment="kpoint 21">
       <r>  -16.6025    1.0000 </r>
       <r>   -9.4740    1.0000 </r>
       <r>   -7.0407    1.0000 </r>
       <r>   -4.8293    1.0000 </r>
       <r>   -3.4137    1.0000 </r>
       <r>   -0.8758    0.0000 </r>
       <r>    1.7253    0.0000 </r>
       <r>    1.9445    0.0000 </r>
       <r>    2.9828    0.0000 </r>
       <r>    3.4911    0.0000 </r>
       <r>    4.5394    0.0000 </r>
       <r>    5.3294    0.0000 </r>
       <r>    5.5070    0.0000 </r>
       <r>    6.1900    0.0000 </r>
       <r>    6.8325    0.0000 </r>
       <r>    8.1492    0.0000 </r>
      </set>
      <set comment="kpoint 22">
       <r>  -16.3258    1.0000 </r>
       <r>   -9.6413    1.0000 </r>
       <r>   -7.3717    1.0000 </r>
       <r>   -5.0548    1.0000 </r>
       <r>   -3.4083    1.0000 </r>
       <r>   -1.1059    0.0000 </r>
       <r>    1.4773    0.0000 </r>
       <r>    1.8860    0.0000 </r>
       <r>    3.3032    0.0000 </r>
       <r>    3.7628    0.0000 </r>
       <r>    4.7000    0.0000 </r>
       <r>    5.5816    0.0000 </r>
       <r>    5.9003    0.0000 </r>
       <r>    6.2678    0.0000 </r>
       <r>    7.3622    0.0000 </r>
       <r>    8.3648    0.0000 </r>
      </set>
      <set comment="kpoint 23">
       <r>  -16.0151    1.0000 </r>
       <r>   -9.9999    1.0000 </r>
       <r>   -7.4597    1.0000 </r>
       <r>   -5.2536    1.0000 </r>
       <r>   -3.4842    1.0000 </r>
       <r>   -1.2571    0.0000 </r>
       <r>    1.0797    0.0000 </r>
       <r>    1.9301    0.0000 </r>
       <r>    3.6638    0.0000 </r>
       <r>    3.9876    0.0000 </r>
       <r>    4.7328    0.0000 </r>
       <r>    5.8218    0.0000 </r>
       <r>    6.2266    0.0000 </r>
       <r>    6.7501    0.0000 </r>
       <r>    8.0299    0.0000 </r>
       <r>    8.5417    0.0000 </r>
      </set>
      <set comment="kpoint 24">
       <r>  -15.6746    1.0000 </r>
       <r>  -10.4898    1.0000 </r>
       <r>   -7.3617    1.0000 </r>
       <r>   -5.4219    1.0000 </r>
       <r>   -3.6580    1.0000 </r>
       <r>   -1.3193    0.0000 </r>
       <r>    0.7366    0.0000 </r>
       <r>    1.9389    0.0000 </r>
       <r>    3.9091    0.0000 </r>
       <r>    4.1406    0.0000 </r>
       <r>    4.8849    0.0000 </r>
       <r>    6.1283    0.0000 </r>
       <r>    6.6128    0.0000 </r>
       <r>    7.3264    0.0000 </r>
       <r>    8.4766    0.0000 </r>
       <r>    8.9144    0.0000 </r>
      </set>
      <set comment="kpoint 25">
       <r>  -15.3124    1.0000 </r>
       <r>  -11.0264    1.0000 </r>
       <r>   -7.1604    1.0000 </r>
       <r>   -5.5557    1.0000 </r>
       <r>   -3.9144    1.0000 </r>
       <r>   -1.3124    0.0000 </r>
       <r>    0.4740    0.0000 </r>
       <r>    1.9304    0.0000 </r>
       <r>    3.7129    0.0000 </r>
       <r>    4.5693    0.0000 </r>
       <r>    5.2407    0.0000 </r>
       <r>    6.4854    0.0000 </r>
       <r>    7.0588    0.0000 </r>
       <r>    7.7303    0.0000 </r>
       <r>    8.6642    0.0000 </r>
       <r>    8.9627    0.0000 </r>
      </set>
      <set comment="kpoint 26">
       <r>  -14.9444    1.0000 </r>
       <r>  -11.5482    1.0000 </r>
       <r>   -6.9170    1.0000 </r>
       <r>   -5.6512    1.0000 </r>
       <r>   -4.2127    1.0000 </r>
       <r>   -1.2741    0.0000 </r>
       <r>    0.2984    0.0000 </r>
       <r>    1.9197    0.0000 </r>
       <r>    3.4500    0.0000 </r>
       <r>    5.0665    0.0000 </r>
       <r>    5.6895    0.0000 </r>
       <r>    6.8392    0.0000 </r>
       <r>    7.5453    0.0000 </r>
       <r>    7.8125    0.0000 </r>
       <r>    8.3455    0.0000 </r>
       <r>    9.0423    0.0000 </r>
      </set>
      <set comment="kpoint 27">
       <r>  -14.6064    1.0000 </r>
       <r>  -11.9969    1.0000 </r>
       <r>   -6.6872    1.0000 </r>
       <r>   -5.7046    1.0000 </r>
       <r>   -4.4964    1.0000 </r>
       <r>   -1.2369    0.0000 </r>
       <r>    0.2019    0.0000 </r>
       <r>    1.9149    0.0000 </r>
       <r>    3.2287    0.0000 </r>
       <r>    5.6044    0.0000 </r>
       <r>    6.1727    0.0000 </r>
       <r>    7.0741    0.0000 </r>
       <r>    7.5422    0.0000 </r>
       <r>    7.9663    0.0000 </r>
       <r>    8.1232    0.0000 </r>
       <r>    8.5771    0.0000 </r>
      </set>
      <set comment="kpoint 28">
       <r>  -14.3797    1.0000 </r>
       <r>  -12.2812    1.0000 </r>
       <r>   -6.5404    1.0000 </r>
       <r>   -5.7196    1.0000 </r>
       <r>   -4.6842    1.0000 </r>
       <r>   -1.2168    0.0000 </r>
       <r>    0.1634    0.0000 </r>
       <r>    1.9152    0.0000 </r>
       <r>    3.1019    0.0000 </r>
       <r>    6.1652    0.0000 </r>
       <r>    6.5445    0.0000 </r>
       <r>    6.9050    0.0000 </r>
       <r>    7.2681    0.0000 </r>
       <r>    7.7886    0.0000 </r>
       <r>    8.4233    0.0000 </r>
       <r>    8.6948    0.0000 </r>
      </set>
      <set comment="kpoint 29">
       <r>  -17.2275    1.0000 </r>
       <r>   -9.6053    1.0000 </r>
       <r>   -5.0823    1.0000 </r>
       <r>   -4.0846    1.0000 </r>
       <r>   -3.6291    1.0000 </r>
       <r>    0.3069    0.0000 </r>
       <r>    0.6594    0.0000 </r>
       <r>    1.9768    0.0000 </r>
       <r>    2.3750    0.0000 </r>
       <r>    2.7068    0.0000 </r>
       <r>    3.9534    0.0000 </r>
       <r>    4.7150    0.0000 </r>
       <r>    5.1931    0.0000 </r>
       <r>    6.0628    0.0000 </r>
       <r>    7.3694    0.0000 </r>
       <r>    7.3966    0.0000 </r>
      </set>
      <set comment="kpoint 30">
       <r>  -17.0851    1.0000 </r>
       <r>   -9.5333    1.0000 </r>
       <r>   -5.6714    1.0000 </r>
       <r>   -4.3816    1.0000 </r>
       <r>   -3.5603    1.0000 </r>
       <r>    0.1228    0.0000 </r>
       <r>    0.8675    0.0000 </r>
       <r>    2.3095    0.0000 </r>
       <r>    2.6153    0.0000 </r>
       <r>    2.8509    0.0000 </r>
       <r>    3.9668    0.0000 </r>
       <r>    4.8739    0.0000 </r>
       <r>    4.9602    0.0000 </r>
       <r>    6.0387    0.0000 </r>
       <r>    7.2249    0.0000 </r>
       <r>    7.5682    0.0000 </r>
      </set>
      <set comment="kpoint 31">
       <r>  -16.9030    1.0000 </r>
       <r>   -9.4683    1.0000 </r>
       <r>   -6.2719    1.0000 </r>
       <r>   -4.6852    1.0000 </r>
       <r>   -3.4864    1.0000 </r>
       <r>   -0.1483    0.0000 </r>
       <r>    1.1550    0.0000 </r>
       <r>    2.4762    0.0000 </r>
       <r>    2.7071    0.0000 </r>
       <r>    3.0923    0.0000 </r>
       <r>    4.0131    0.0000 </r>
       <r>    4.9422    0.0000 </r>
       <r>    5.0799    0.0000 </r>
       <r>    6.1941    0.0000 </r>
       <r>    7.0260    0.0000 </r>
       <r>    7.7821    0.0000 </r>
      </set>
      <set comment="kpoint 32">
       <r>  -16.6821    1.0000 </r>
       <r>   -9.4486    1.0000 </r>
       <r>   -6.8172    1.0000 </r>
       <r>   -4.9739    1.0000 </r>
       <r>   -3.4221    1.0000 </r>
       <r>   -0.4268    0.0000 </r>
       <r>    1.4032    0.0000 </r>
       <r>    2.2663    0.0000 </r>
       <r>    2.8968    0.0000 </r>
       <r>    3.3590    0.0000 </r>
       <r>    4.2032    0.0000 </r>
       <r>    5.1091    0.0000 </r>
       <r>    5.3250    0.0000 </r>
       <r>    6.3345    0.0000 </r>
       <r>    7.0494    0.0000 </r>
       <r>    8.0070    0.0000 </r>
      </set>
      <set comment="kpoint 33">
       <r>  -16.4237    1.0000 </r>
       <r>   -9.5419    1.0000 </r>
       <r>   -7.2217    1.0000 </r>
       <r>   -5.2372    1.0000 </r>
       <r>   -3.3903    1.0000 </r>
       <r>   -0.6782    0.0000 </r>
       <r>    1.5644    0.0000 </r>
       <r>    1.8656    0.0000 </r>
       <r>    3.1893    0.0000 </r>
       <r>    3.6422    0.0000 </r>
       <r>    4.4653    0.0000 </r>
       <r>    5.3860    0.0000 </r>
       <r>    5.6066    0.0000 </r>
       <r>    6.2361    0.0000 </r>
       <r>    7.5443    0.0000 </r>
       <r>    8.2317    0.0000 </r>
      </set>
      <set comment="kpoint 34">
       <r>  -16.1299    1.0000 </r>
       <r>   -9.8131    1.0000 </r>
       <r>   -7.4087    1.0000 </r>
       <r>   -5.4683    1.0000 </r>
       <r>   -3.4205    1.0000 </r>
       <r>   -0.8709    0.0000 </r>
       <r>    1.4153    0.0000 </r>
       <r>    1.6742    0.0000 </r>
       <r>    3.5291    0.0000 </r>
       <r>    3.9242    0.0000 </r>
       <r>    4.6715    0.0000 </r>
       <r>    5.7058    0.0000 </r>
       <r>    5.9410    0.0000 </r>
       <r>    6.2427    0.0000 </r>
       <r>    8.2230    0.0000 </r>
       <r>    8.4579    0.0000 </r>
      </set>
      <set comment="kpoint 35">
       <r>  -15.8040    1.0000 </r>
       <r>  -10.2458    1.0000 </r>
       <r>   -7.3887    1.0000 </r>
       <r>   -5.6620    1.0000 </r>
       <r>   -3.5390    1.0000 </r>
       <r>   -0.9797    0.0000 </r>
       <r>    1.0311    0.0000 </r>
       <r>    1.7026    0.0000 </r>
       <r>    3.8834    0.0000 </r>
       <r>    4.1176    0.0000 </r>
       <r>    4.8100    0.0000 </r>
       <r>    5.9958    0.0000 </r>
       <r>    6.4068    0.0000 </r>
       <r>    6.5165    0.0000 </r>
       <r>    8.5319    0.0000 </r>
       <r>    9.0445    0.0000 </r>
      </set>
      <set comment="kpoint 36">
       <r>  -15.4516    1.0000 </r>
       <r>  -10.7615    1.0000 </r>
       <r>   -7.2385    1.0000 </r>
       <r>   -5.8126    1.0000 </r>
       <r>   -3.7505    1.0000 </r>
       <r>   -1.0011    0.0000 </r>
       <r>    0.7014    0.0000 </r>
       <r>    1.7157    0.0000 </r>
       <r>    3.9189    0.0000 </r>
       <r>    4.4069    0.0000 </r>
       <r>    5.0891    0.0000 </r>
       <r>    6.3334    0.0000 </r>
       <r>    6.8838    0.0000 </r>
       <r>    6.9945    0.0000 </r>
       <r>    8.6205    0.0000 </r>
       <r>    9.0790    0.0000 </r>
      </set>
      <set comment="kpoint 37">
       <r>  -15.0835    1.0000 </r>
       <r>  -11.2915    1.0000 </r>
       <r>   -7.0305    1.0000 </r>
       <r>   -5.9112    1.0000 </r>
       <r>   -4.0302    1.0000 </r>
       <r>   -0.9583    0.0000 </r>
       <r>    0.4404    0.0000 </r>
       <r>    1.7308    0.0000 </r>
       <r>    3.6741    0.0000 </r>
       <r>    4.8725    0.0000 </r>
       <r>    5.5040    0.0000 </r>
       <r>    6.7090    0.0000 </r>
       <r>    7.3504    0.0000 </r>
       <r>    7.4694    0.0000 </r>
       <r>    8.6191    0.0000 </r>
       <r>    8.7188    0.0000 </r>
      </set>
      <set comment="kpoint 38">
       <r>  -14.7233    1.0000 </r>
       <r>  -11.7816    1.0000 </r>
       <r>   -6.8274    1.0000 </r>
       <r>   -5.9434    1.0000 </r>
       <r>   -4.3323    1.0000 </r>
       <r>   -0.8880    0.0000 </r>
       <r>    0.2513    0.0000 </r>
       <r>    1.7576    0.0000 </r>
       <r>    3.4095    0.0000 </r>
       <r>    5.3907    0.0000 </r>
       <r>    5.9821    0.0000 </r>
       <r>    7.0563    0.0000 </r>
       <r>    7.6393    0.0000 </r>
       <r>    7.8775    0.0000 </r>
       <r>    8.0862    0.0000 </r>
       <r>    8.8341    0.0000 </r>
      </set>
      <set comment="kpoint 39">
       <r>  -14.4254    1.0000 </r>
       <r>  -12.1619    1.0000 </r>
       <r>   -6.6897    1.0000 </r>
       <r>   -5.9077    1.0000 </r>
       <r>   -4.5896    1.0000 </r>
       <r>   -0.8268    0.0000 </r>
       <r>    0.1356    0.0000 </r>
       <r>    1.7897    0.0000 </r>
       <r>    3.2107    0.0000 </r>
       <r>    5.9460    0.0000 </r>
       <r>    6.4697    0.0000 </r>
       <r>    7.1185    0.0000 </r>
       <r>    7.4169    0.0000 </r>
       <r>    7.8338    0.0000 </r>
       <r>    8.3857    0.0000 </r>
       <r>    8.4581    0.0000 </r>
      </set>
      <set comment="kpoint 40">
       <r>  -14.2992    1.0000 </r>
       <r>  -12.3161    1.0000 </r>
       <r>   -6.6448    1.0000 </r>
       <r>   -5.8720    1.0000 </r>
       <r>   -4.6991    1.0000 </r>
       <r>   -0.8026    0.0000 </r>
       <r>    0.0963    0.0000 </r>
       <r>    1.8052    0.0000 </r>
       <r>    3.1359    0.0000 </r>
       <r>    6.4654    0.0000 </r>
       <r>    6.5445    0.0000 </r>
       <r>    6.9290    0.0000 </r>
       <r>    7.2428    0.0000 </r>
       <r>    7.8262    0.0000 </r>
       <r>    8.2318    0.0000 </r>
       <r>    9.0115    0.0000 </r>
      </set>
      <set comment="kpoint 41">
       <r>  -16.9231    1.0000 </r>
       <r>   -9.4723    1.0000 </r>
       <r>   -6.1690    1.0000 </r>
       <r>   -4.7498    1.0000 </r>
       <r>   -3.4930    1.0000 </r>
       <r>    0.1874    0.0000 </r>
       <r>    0.8388    0.0000 </r>
       <r>    2.5335    0.0000 </r>
       <r>    2.8250    0.0000 </r>
       <r>    2.9575    0.0000 </r>
       <r>    3.8973    0.0000 </r>
       <r>    4.9044    0.0000 </r>
       <r>    5.0545    0.0000 </r>
       <r>    6.1857    0.0000 </r>
       <r>    7.2362    0.0000 </r>
       <r>    7.6757    0.0000 </r>
      </set>
      <set comment="kpoint 42">
       <r>  -16.7220    1.0000 </r>
       <r>   -9.4402    1.0000 </r>
       <r>   -6.6551    1.0000 </r>
       <r>   -5.1154    1.0000 </r>
       <r>   -3.4283    1.0000 </r>
       <r>    0.0444    0.0000 </r>
       <r>    1.0108    0.0000 </r>
       <r>    2.5983    0.0000 </r>
       <r>    2.8864    0.0000 </r>
       <r>    3.1482    0.0000 </r>
       <r>    3.8983    0.0000 </r>
       <r>    5.0122    0.0000 </r>
       <r>    5.2748    0.0000 </r>
       <r>    6.4338    0.0000 </r>
       <r>    7.2639    0.0000 </r>
       <r>    7.8628    0.0000 </r>
      </set>
      <set comment="kpoint 43">
       <r>  -16.4827    1.0000 </r>
       <r>   -9.4891    1.0000 </r>
       <r>   -7.0600    1.0000 </r>
       <r>   -5.4484    1.0000 </r>
       <r>   -3.3838    1.0000 </r>
       <r>   -0.1782    0.0000 </r>
       <r>    1.2062    0.0000 </r>
       <r>    2.2795    0.0000 </r>
       <r>    3.1213    0.0000 </r>
       <r>    3.4216    0.0000 </r>
       <r>    4.0731    0.0000 </r>
       <r>    5.2285    0.0000 </r>
       <r>    5.5255    0.0000 </r>
       <r>    6.4027    0.0000 </r>
       <r>    7.6869    0.0000 </r>
       <r>    8.0681    0.0000 </r>
      </set>
      <set comment="kpoint 44">
       <r>  -16.2069    1.0000 </r>
       <r>   -9.6846    1.0000 </r>
       <r>   -7.3031    1.0000 </r>
       <r>   -5.7367    1.0000 </r>
       <r>   -3.3839    1.0000 </r>
       <r>   -0.3882    0.0000 </r>
       <r>    1.3251    0.0000 </r>
       <r>    1.8666    0.0000 </r>
       <r>    3.4321    0.0000 </r>
       <r>    3.7449    0.0000 </r>
       <r>    4.3662    0.0000 </r>
       <r>    5.5147    0.0000 </r>
       <r>    5.7567    0.0000 </r>
       <r>    6.2691    0.0000 </r>
       <r>    8.1929    0.0000 </r>
       <r>    8.4358    0.0000 </r>
      </set>
      <set comment="kpoint 45">
       <r>  -15.8971    1.0000 </r>
       <r>  -10.0458    1.0000 </r>
       <r>   -7.3549    1.0000 </r>
       <r>   -5.9739    1.0000 </r>
       <r>   -3.4558    1.0000 </r>
       <r>   -0.5403    0.0000 </r>
       <r>    1.3067    0.0000 </r>
       <r>    1.5349    0.0000 </r>
       <r>    3.7771    0.0000 </r>
       <r>    4.0560    0.0000 </r>
       <r>    4.6883    0.0000 </r>
       <r>    5.8314    0.0000 </r>
       <r>    5.8938    0.0000 </r>
       <r>    6.4073    0.0000 </r>
       <r>    8.3304    0.0000 </r>
       <r>    9.1574    0.0000 </r>
      </set>
      <set comment="kpoint 46">
       <r>  -15.5576    1.0000 </r>
       <r>  -10.5194    1.0000 </r>
       <r>   -7.2665    1.0000 </r>
       <r>   -6.1511    1.0000 </r>
       <r>   -3.6164    1.0000 </r>
       <r>   -0.6097    0.0000 </r>
       <r>    1.0158    0.0000 </r>
       <r>    1.4876    0.0000 </r>
       <r>    4.0240    0.0000 </r>
       <r>    4.3221    0.0000 </r>
       <r>    4.9845    0.0000 </r>
       <r>    6.0904    0.0000 </r>
       <r>    6.2776    0.0000 </r>
       <r>    6.7649    0.0000 </r>
       <r>    8.3974    0.0000 </r>
       <r>    9.2838    0.0000 </r>
      </set>
      <set comment="kpoint 47">
       <r>  -15.1957    1.0000 </r>
       <r>  -11.0373    1.0000 </r>
       <r>   -7.1186    1.0000 </r>
       <r>   -6.2493    1.0000 </r>
       <r>   -3.8595    1.0000 </r>
       <r>   -0.5945    0.0000 </r>
       <r>    0.7010    0.0000 </r>
       <r>    1.5145    0.0000 </r>
       <r>    3.9097    0.0000 </r>
       <r>    4.7312    0.0000 </r>
       <r>    5.3580    0.0000 </r>
       <r>    6.5020    0.0000 </r>
       <r>    6.7480    0.0000 </r>
       <r>    7.2042    0.0000 </r>
       <r>    8.4424    0.0000 </r>
       <r>    8.9710    0.0000 </r>
      </set>
      <set comment="kpoint 48">
       <r>  -14.8267    1.0000 </r>
       <r>  -11.5451    1.0000 </r>
       <r>   -6.9941    1.0000 </r>
       <r>   -6.2339    1.0000 </r>
       <r>   -4.1537    1.0000 </r>
       <r>   -0.5128    0.0000 </r>
       <r>    0.4267    0.0000 </r>
       <r>    1.5651    0.0000 </r>
       <r>    3.6482    0.0000 </r>
       <r>    5.2223    0.0000 </r>
       <r>    5.8147    0.0000 </r>
       <r>    6.9280    0.0000 </r>
       <r>    7.1909    0.0000 </r>
       <r>    7.6950    0.0000 </r>
       <r>    8.3772    0.0000 </r>
       <r>    8.5882    0.0000 </r>
      </set>
      <set comment="kpoint 49">
       <r>  -14.4857    1.0000 </r>
       <r>  -11.9871    1.0000 </r>
       <r>   -6.9402    1.0000 </r>
       <r>   -6.1055    1.0000 </r>
       <r>   -4.4469    1.0000 </r>
       <r>   -0.3895    0.0000 </r>
       <r>    0.1943    0.0000 </r>
       <r>    1.6290    0.0000 </r>
       <r>    3.3981    0.0000 </r>
       <r>    5.7594    0.0000 </r>
       <r>    6.3145    0.0000 </r>
       <r>    7.2287    0.0000 </r>
       <r>    7.4498    0.0000 </r>
       <r>    7.7754    0.0000 </r>
       <r>    8.2727    0.0000 </r>
       <r>    8.5528    0.0000 </r>
      </set>
      <set comment="kpoint 50">
       <r>  -14.2543    1.0000 </r>
       <r>  -12.2711    1.0000 </r>
       <r>   -6.9296    1.0000 </r>
       <r>   -5.9690    1.0000 </r>
       <r>   -4.6520    1.0000 </r>
       <r>   -0.2555    0.0000 </r>
       <r>    0.0127    0.0000 </r>
       <r>    1.6783    0.0000 </r>
       <r>    3.2451    0.0000 </r>
       <r>    6.3224    0.0000 </r>
       <r>    6.7699    0.0000 </r>
       <r>    6.9906    0.0000 </r>
       <r>    7.3351    0.0000 </r>
       <r>    7.7680    0.0000 </r>
       <r>    8.1020    0.0000 </r>
       <r>    8.8445    0.0000 </r>
      </set>
      <set comment="kpoint 51">
       <r>  -16.5024    1.0000 </r>
       <r>   -9.4729    1.0000 </r>
       <r>   -6.9840    1.0000 </r>
       <r>   -5.5451    1.0000 </r>
       <r>   -3.3824    1.0000 </r>
       <r>    0.1202    0.0000 </r>
       <r>    0.9596    0.0000 </r>
       <r>    2.6059    0.0000 </r>
       <r>    3.1015    0.0000 </r>
       <r>    3.1368    0.0000 </r>
       <r>    3.9318    0.0000 </r>
       <r>    5.1915    0.0000 </r>
       <r>    5.5038    0.0000 </r>
       <r>    6.4910    0.0000 </r>
       <r>    7.7641    0.0000 </r>
       <r>    7.9650    0.0000 </r>
      </set>
      <set comment="kpoint 52">
       <r>  -16.2455    1.0000 </r>
       <r>   -9.6202    1.0000 </r>
       <r>   -7.2027    1.0000 </r>
       <r>   -5.9318    1.0000 </r>
       <r>   -3.3680    1.0000 </r>
       <r>    0.0342    0.0000 </r>
       <r>    0.9864    0.0000 </r>
       <r>    2.3761    0.0000 </r>
       <r>    3.2510    0.0000 </r>
       <r>    3.4435    0.0000 </r>
       <r>    4.1502    0.0000 </r>
       <r>    5.4429    0.0000 </r>
       <r>    5.7268    0.0000 </r>
       <r>    6.3669    0.0000 </r>
       <r>    8.0465    0.0000 </r>
       <r>    8.4869    0.0000 </r>
      </set>
      <set comment="kpoint 53">
       <r>  -15.9533    1.0000 </r>
       <r>   -9.9136    1.0000 </r>
       <r>   -7.2761    1.0000 </r>
       <r>   -6.2523    1.0000 </r>
       <r>   -3.4086    1.0000 </r>
       <r>   -0.1059    0.0000 </r>
       <r>    0.9853    0.0000 </r>
       <r>    2.0596    0.0000 </r>
       <r>    3.5781    0.0000 </r>
       <r>    3.8130    0.0000 </r>
       <r>    4.4714    0.0000 </r>
       <r>    5.6970    0.0000 </r>
       <r>    5.8211    0.0000 </r>
       <r>    6.3954    0.0000 </r>
       <r>    8.0741    0.0000 </r>
       <r>    9.2463    0.0000 </r>
      </set>
      <set comment="kpoint 54">
       <r>  -15.6289    1.0000 </r>
       <r>  -10.3289    1.0000 </r>
       <r>   -7.2336    1.0000 </r>
       <r>   -6.4854    1.0000 </r>
       <r>   -3.5246    1.0000 </r>
       <r>   -0.2206    0.0000 </r>
       <r>    0.9244    0.0000 </r>
       <r>    1.7929    0.0000 </r>
       <r>    3.9084    0.0000 </r>
       <r>    4.2230    0.0000 </r>
       <r>    4.8538    0.0000 </r>
       <r>    5.6583    0.0000 </r>
       <r>    6.1188    0.0000 </r>
       <r>    6.6957    0.0000 </r>
       <r>    8.0579    0.0000 </r>
       <r>    9.5297    0.0000 </r>
      </set>
      <set comment="kpoint 55">
       <r>  -15.2776    1.0000 </r>
       <r>  -10.8126    1.0000 </r>
       <r>   -7.1712    1.0000 </r>
       <r>   -6.5794    1.0000 </r>
       <r>   -3.7229    1.0000 </r>
       <r>   -0.2804    0.0000 </r>
       <r>    0.8155    0.0000 </r>
       <r>    1.6223    0.0000 </r>
       <r>    4.0380    0.0000 </r>
       <r>    4.6405    0.0000 </r>
       <r>    5.2479    0.0000 </r>
       <r>    5.8489    0.0000 </r>
       <r>    6.4868    0.0000 </r>
       <r>    7.1026    0.0000 </r>
       <r>    8.0496    0.0000 </r>
       <r>    9.4022    0.0000 </r>
      </set>
      <set comment="kpoint 56">
       <r>  -14.9095    1.0000 </r>
       <r>  -11.3138    1.0000 </r>
       <r>   -7.1897    1.0000 </r>
       <r>   -6.4768    1.0000 </r>
       <r>   -3.9885    1.0000 </r>
       <r>   -0.2871    0.0000 </r>
       <r>    0.6840    0.0000 </r>
       <r>    1.5517    0.0000 </r>
       <r>    3.8887    0.0000 </r>
       <r>    5.1019    0.0000 </r>
       <r>    5.6761    0.0000 </r>
       <r>    6.3303    0.0000 </r>
       <r>    6.8521    0.0000 </r>
       <r>    7.5657    0.0000 </r>
       <r>    8.1228    0.0000 </r>
       <r>    8.8955    0.0000 </r>
      </set>
      <set comment="kpoint 57">
       <r>  -14.5464    1.0000 </r>
       <r>  -11.7855    1.0000 </r>
       <r>   -7.2538    1.0000 </r>
       <r>   -6.2538    1.0000 </r>
       <r>   -4.2854    1.0000 </r>
       <r>   -0.2618    0.0000 </r>
       <r>    0.5613    0.0000 </r>
       <r>    1.5549    0.0000 </r>
       <r>    3.6417    0.0000 </r>
       <r>    5.6138    0.0000 </r>
       <r>    6.1565    0.0000 </r>
       <r>    6.7905    0.0000 </r>
       <r>    7.2051    0.0000 </r>
       <r>    8.0107    0.0000 </r>
       <r>    8.2369    0.0000 </r>
       <r>    8.4412    0.0000 </r>
      </set>
      <set comment="kpoint 58">
       <r>  -14.2416    1.0000 </r>
       <r>  -12.1602    1.0000 </r>
       <r>   -7.3046    1.0000 </r>
       <r>   -6.0260    1.0000 </r>
       <r>   -4.5498    1.0000 </r>
       <r>   -0.2305    0.0000 </r>
       <r>    0.4743    0.0000 </r>
       <r>    1.5907    0.0000 </r>
       <r>    3.4378    0.0000 </r>
       <r>    6.1588    0.0000 </r>
       <r>    6.6456    0.0000 </r>
       <r>    6.9715    0.0000 </r>
       <r>    7.5349    0.0000 </r>
       <r>    7.5826    0.0000 </r>
       <r>    8.3280    0.0000 </r>
       <r>    8.6752    0.0000 </r>
      </set>
      <set comment="kpoint 59">
       <r>  -14.1101    1.0000 </r>
       <r>  -12.3158    1.0000 </r>
       <r>   -7.3229    1.0000 </r>
       <r>   -5.9200    1.0000 </r>
       <r>   -4.6676    1.0000 </r>
       <r>   -0.2166    0.0000 </r>
       <r>    0.4423    0.0000 </r>
       <r>    1.6109    0.0000 </r>
       <r>    3.3588    0.0000 </r>
       <r>    6.5859    0.0000 </r>
       <r>    6.8640    0.0000 </r>
       <r>    7.0016    0.0000 </r>
       <r>    7.1280    0.0000 </r>
       <r>    7.7659    0.0000 </r>
       <r>    8.0442    0.0000 </r>
       <r>    9.1793    0.0000 </r>
      </set>
      <set comment="kpoint 60">
       <r>  -15.9721    1.0000 </r>
       <r>   -9.8673    1.0000 </r>
       <r>   -7.2256    1.0000 </r>
       <r>   -6.3746    1.0000 </r>
       <r>   -3.3935    1.0000 </r>
       <r>    0.1438    0.0000 </r>
       <r>    0.7628    0.0000 </r>
       <r>    2.4923    0.0000 </r>
       <r>    3.1935    0.0000 </r>
       <r>    3.7500    0.0000 </r>
       <r>    4.4056    0.0000 </r>
       <r>    5.7177    0.0000 </r>
       <r>    5.7841    0.0000 </r>
       <r>    6.4071    0.0000 </r>
       <r>    7.9597    0.0000 </r>
       <r>    9.2838    0.0000 </r>
      </set>
      <set comment="kpoint 61">
       <r>  -15.6648    1.0000 </r>
       <r>  -10.2222    1.0000 </r>
       <r>   -7.1535    1.0000 </r>
       <r>   -6.7350    1.0000 </r>
       <r>   -3.4785    1.0000 </r>
       <r>    0.1296    0.0000 </r>
       <r>    0.6051    0.0000 </r>
       <r>    2.3975    0.0000 </r>
       <r>    3.4663    0.0000 </r>
       <r>    4.1236    0.0000 </r>
       <r>    4.7454    0.0000 </r>
       <r>    5.6193    0.0000 </r>
       <r>    6.0321    0.0000 </r>
       <r>    6.6712    0.0000 </r>
       <r>    7.8307    0.0000 </r>
       <r>    9.6282    0.0000 </r>
      </set>
      <set comment="kpoint 62">
       <r>  -15.3275    1.0000 </r>
       <r>  -10.6529    1.0000 </r>
       <r>   -7.1801    1.0000 </r>
       <r>   -6.8364    1.0000 </r>
       <r>   -3.6349    1.0000 </r>
       <r>   -0.0046    0.0000 </r>
       <r>    0.5876    0.0000 </r>
       <r>    2.2040    0.0000 </r>
       <r>    3.8516    0.0000 </r>
       <r>    4.5527    0.0000 </r>
       <r>    5.1406    0.0000 </r>
       <r>    5.4687    0.0000 </r>
       <r>    6.3597    0.0000 </r>
       <r>    7.0495    0.0000 </r>
       <r>    7.7441    0.0000 </r>
       <r>    9.7655    0.0000 </r>
      </set>
      <set comment="kpoint 63">
       <r>  -14.9669    1.0000 </r>
       <r>  -11.1220    1.0000 </r>
       <r>   -7.3844    1.0000 </r>
       <r>   -6.6279    1.0000 </r>
       <r>   -3.8608    1.0000 </r>
       <r>   -0.1715    0.0000 </r>
       <r>    0.6738    0.0000 </r>
       <r>    2.0163    0.0000 </r>
       <r>    4.0125    0.0000 </r>
       <r>    5.0238    0.0000 </r>
       <r>    5.5645    0.0000 </r>
       <r>    5.6192    0.0000 </r>
       <r>    6.6636    0.0000 </r>
       <r>    7.4856    0.0000 </r>
       <r>    7.7882    0.0000 </r>
       <r>    9.4016    0.0000 </r>
      </set>
      <set comment="kpoint 64">
       <r>  -14.5966    1.0000 </r>
       <r>  -11.5920    1.0000 </r>
       <r>   -7.5563    1.0000 </r>
       <r>   -6.3508    1.0000 </r>
       <r>   -4.1367    1.0000 </r>
       <r>   -0.3108    0.0000 </r>
       <r>    0.8149    0.0000 </r>
       <r>    1.8532    0.0000 </r>
       <r>    3.8931    0.0000 </r>
       <r>    5.5149    0.0000 </r>
       <r>    6.0053    0.0000 </r>
       <r>    6.0761    0.0000 </r>
       <r>    6.9427    0.0000 </r>
       <r>    7.9271    0.0000 </r>
       <r>    8.0642    0.0000 </r>
       <r>    8.7332    0.0000 </r>
      </set>
      <set comment="kpoint 65">
       <r>  -14.2486    1.0000 </r>
       <r>  -12.0145    1.0000 </r>
       <r>   -7.6713    1.0000 </r>
       <r>   -6.0698    1.0000 </r>
       <r>   -4.4212    1.0000 </r>
       <r>   -0.4055    0.0000 </r>
       <r>    0.9747    0.0000 </r>
       <r>    1.7164    0.0000 </r>
       <r>    3.7028    0.0000 </r>
       <r>    6.0214    0.0000 </r>
       <r>    6.3491    0.0000 </r>
       <r>    6.5965    0.0000 </r>
       <r>    7.3330    0.0000 </r>
       <r>    7.9662    0.0000 </r>
       <r>    8.4295    0.0000 </r>
       <r>    8.5691    0.0000 </r>
      </set>
      <set comment="kpoint 66">
       <r>  -14.0053    1.0000 </r>
       <r>  -12.2974    1.0000 </r>
       <r>   -7.7286    1.0000 </r>
       <r>   -5.8643    1.0000 </r>
       <r>   -4.6309    1.0000 </r>
       <r>   -0.4529    0.0000 </r>
       <r>    1.0975    0.0000 </r>
       <r>    1.6202    0.0000 </r>
       <r>    3.5778    0.0000 </r>
       <r>    6.3326    0.0000 </r>
       <r>    6.7167    0.0000 </r>
       <r>    7.0549    0.0000 </r>
       <r>    7.3578    0.0000 </r>
       <r>    7.7697    0.0000 </r>
       <r>    8.1681    0.0000 </r>
       <r>    8.9789    0.0000 </r>
      </set>
      <set comment="kpoint 67">
       <r>  -15.3443    1.0000 </r>
       <r>  -10.5942    1.0000 </r>
       <r>   -7.1645    1.0000 </r>
       <r>   -6.9476    1.0000 </r>
       <r>   -3.6044    1.0000 </r>
       <r>    0.2169    0.0000 </r>
       <r>    0.3575    0.0000 </r>
       <r>    2.6596    0.0000 </r>
       <r>    3.5075    0.0000 </r>
       <r>    4.5078    0.0000 </r>
       <r>    5.0951    0.0000 </r>
       <r>    5.4316    0.0000 </r>
       <r>    6.3032    0.0000 </r>
       <r>    7.0352    0.0000 </r>
       <r>    7.6285    0.0000 </r>
       <r>    9.8813    0.0000 </r>
      </set>
      <set comment="kpoint 68">
       <r>  -14.9962    1.0000 </r>
       <r>  -11.0103    1.0000 </r>
       <r>   -7.5090    1.0000 </r>
       <r>   -6.6960    1.0000 </r>
       <r>   -3.7907    1.0000 </r>
       <r>   -0.1043    0.0000 </r>
       <r>    0.5702    0.0000 </r>
       <r>    2.6235    0.0000 </r>
       <r>    3.8344    0.0000 </r>
       <r>    4.9381    0.0000 </r>
       <r>    5.3137    0.0000 </r>
       <r>    5.4831    0.0000 </r>
       <r>    6.5229    0.0000 </r>
       <r>    7.4553    0.0000 </r>
       <r>    7.6075    0.0000 </r>
       <r>    9.9230    0.0000 </r>
      </set>
      <set comment="kpoint 69">
       <r>  -14.6292    1.0000 </r>
       <r>  -11.4481    1.0000 </r>
       <r>   -7.7756    1.0000 </r>
       <r>   -6.4058    1.0000 </r>
       <r>   -4.0310    1.0000 </r>
       <r>   -0.3700    0.0000 </r>
       <r>    0.8176    0.0000 </r>
       <r>    2.4483    0.0000 </r>
       <r>    4.0501    0.0000 </r>
       <r>    5.4105    0.0000 </r>
       <r>    5.4844    0.0000 </r>
       <r>    5.8631    0.0000 </r>
       <r>    6.6946    0.0000 </r>
       <r>    7.8149    0.0000 </r>
       <r>    7.9410    0.0000 </r>
       <r>    9.2614    0.0000 </r>
      </set>
      <set comment="kpoint 70">
       <r>  -14.2615    1.0000 </r>
       <r>  -11.8766    1.0000 </r>
       <r>   -7.9626    1.0000 </r>
       <r>   -6.1026    1.0000 </r>
       <r>   -4.3040    1.0000 </r>
       <r>   -0.5617    0.0000 </r>
       <r>    1.0934    0.0000 </r>
       <r>    2.2262    0.0000 </r>
       <r>    4.0104    0.0000 </r>
       <r>    5.7866    0.0000 </r>
       <r>    5.9969    0.0000 </r>
       <r>    6.2507    0.0000 </r>
       <r>    6.9984    0.0000 </r>
       <r>    8.1808    0.0000 </r>
       <r>    8.4268    0.0000 </r>
       <r>    8.6070    0.0000 </r>
      </set>
      <set comment="kpoint 71">
       <r>  -13.9418    1.0000 </r>
       <r>  -12.2370    1.0000 </r>
       <r>   -8.0730    1.0000 </r>
       <r>   -5.8317    1.0000 </r>
       <r>   -4.5602    1.0000 </r>
       <r>   -0.6762    0.0000 </r>
       <r>    1.3878    0.0000 </r>
       <r>    1.9711    0.0000 </r>
       <r>    3.9140    0.0000 </r>
       <r>    5.9254    0.0000 </r>
       <r>    6.5703    0.0000 </r>
       <r>    6.8131    0.0000 </r>
       <r>    7.5042    0.0000 </r>
       <r>    7.8467    0.0000 </r>
       <r>    8.3811    0.0000 </r>
       <r>    8.8062    0.0000 </r>
      </set>
      <set comment="kpoint 72">
       <r>  -13.7963    1.0000 </r>
       <r>  -12.3968    1.0000 </r>
       <r>   -8.1095    1.0000 </r>
       <r>   -5.7055    1.0000 </r>
       <r>   -4.6824    1.0000 </r>
       <r>   -0.7143    0.0000 </r>
       <r>    1.6641    0.0000 </r>
       <r>    1.7093    0.0000 </r>
       <r>    3.8725    0.0000 </r>
       <r>    5.9486    0.0000 </r>
       <r>    7.0833    0.0000 </r>
       <r>    7.1914    0.0000 </r>
       <r>    7.3010    0.0000 </r>
       <r>    7.9700    0.0000 </r>
       <r>    8.1086    0.0000 </r>
       <r>    8.3964    0.0000 </r>
      </set>
      <set comment="kpoint 73">
       <r>  -14.6404    1.0000 </r>
       <r>  -11.3941    1.0000 </r>
       <r>   -7.8560    1.0000 </r>
       <r>   -6.4238    1.0000 </r>
       <r>   -3.9926    1.0000 </r>
       <r>   -0.3942    0.0000 </r>
       <r>    0.8007    0.0000 </r>
       <r>    2.7965    0.0000 </r>
       <r>    4.0395    0.0000 </r>
       <r>    5.1550    0.0000 </r>
       <r>    5.4714    0.0000 </r>
       <r>    5.7848    0.0000 </r>
       <r>    6.5980    0.0000 </r>
       <r>    7.7725    0.0000 </r>
       <r>    7.9110    0.0000 </r>
       <r>    9.7419    0.0000 </r>
      </set>
      <set comment="kpoint 74">
       <r>  -14.2704    1.0000 </r>
       <r>  -11.7914    1.0000 </r>
       <r>   -8.1255    1.0000 </r>
       <r>   -6.1204    1.0000 </r>
       <r>   -4.2338    1.0000 </r>
       <r>   -0.6534    0.0000 </r>
       <r>    1.0918    0.0000 </r>
       <r>    2.6849    0.0000 </r>
       <r>    4.2936    0.0000 </r>
       <r>    5.3372    0.0000 </r>
       <r>    5.9171    0.0000 </r>
       <r>    5.9776    0.0000 </r>
       <r>    6.8423    0.0000 </r>
       <r>    8.1321    0.0000 </r>
       <r>    8.4057    0.0000 </r>
       <r>    9.1002    0.0000 </r>
      </set>
      <set comment="kpoint 75">
       <r>  -13.9107    1.0000 </r>
       <r>  -12.1733    1.0000 </r>
       <r>   -8.3059    1.0000 </r>
       <r>   -5.8187    1.0000 </r>
       <r>   -4.4931    1.0000 </r>
       <r>   -0.8360    0.0000 </r>
       <r>    1.4064    0.0000 </r>
       <r>    2.4460    0.0000 </r>
       <r>    4.3477    0.0000 </r>
       <r>    5.5839    0.0000 </r>
       <r>    6.2501    0.0000 </r>
[...]
       </set>
       <set comment="band 13">
        <r>  0.0014  0.0287  0.0442 </r>
        <r>  0.0014  0.0287  0.0442 </r>
       </set>
       <set comment="band 14">
        <r>  0.0060  0.0161  0.0143 </r>
        <r>  0.0060  0.0161  0.0143 </r>
       </set>
       <set comment="band 15">
        <r>  0.0019  0.0342  0.0566 </r>
        <r>  0.0019  0.0342  0.0566 </r>
       </set>
       <set comment="band 16">
        <r>  0.0002  0.0159  0.0314 </r>
        <r>  0.0002  0.0159  0.0314 </r>
       </set>
      </set>
      <set comment="kpoint 72">
       <set comment="band 1">
        <r>  0.2687  0.0440  0.0073 </r>
        <r>  0.2687  0.0440  0.0073 </r>
       </set>
       <set comment="band 2">
        <r>  0.2418  0.0677  0.0086 </r>
        <r>  0.2418  0.0677  0.0086 </r>
       </set>
       <set comment="band 3">
        <r>  0.0215  0.2064  0.0148 </r>
        <r>  0.0215  0.2064  0.0148 </r>
       </set>
       <set comment="band 4">
        <r>  0.0658  0.1947  0.0053 </r>
        <r>  0.0658  0.1947  0.0053 </r>
       </set>
       <set comment="band 5">
        <r>  0.0566  0.2083  0.0042 </r>
        <r>  0.0566  0.2083  0.0042 </r>
       </set>
       <set comment="band 6">
        <r>  0.0012  0.1829  0.0326 </r>
        <r>  0.0012  0.1829  0.0326 </r>
       </set>
       <set comment="band 7">
        <r>  0.0161  0.1794  0.0408 </r>
        <r>  0.0161  0.1794  0.0408 </r>
       </set>
       <set comment="band 8">
        <r>  0.0355  0.2026  0.0507 </r>
        <r>  0.0355  0.2026  0.0507 </r>
       </set>
       <set comment="band 9">
        <r>  0.0013  0.0322  0.1314 </r>
        <r>  0.0013  0.0322  0.1314 </r>
       </set>
       <set comment="band 10">
        <r>  0.0054  0.0596  0.0973 </r>
        <r>  0.0054  0.0596  0.0973 </r>
       </set>
       <set comment="band 11">
        <r>  0.0079  0.0080  0.0206 </r>
        <r>  0.0079  0.0080  0.0206 </r>
       </set>
       <set comment="band 12">
        <r>  0.0001  0.1041  0.0495 </r>
        <r>  0.0001  0.1041  0.0495 </r>
       </set>
       <set comment="band 13">
        <r>  0.0061  0.0439  0.0065 </r>
        <r>  0.0061  0.0439  0.0065 </r>
       </set>
       <set comment="band 14">
        <r>  0.0007  0.0065  0.0323 </r>
        <r>  0.0007  0.0065  0.0323 </r>
       </set>
       <set comment="band 15">
        <r>  0.0009  0.0370  0.0415 </r>
        <r>  0.0009  0.0370  0.0415 </r>
       </set>
       <set comment="band 16">
        <r>  0.0027  0.0597  0.1451 </r>
        <r>  0.0027  0.0597  0.1451 </r>
       </set>
      </set>
      <set comment="kpoint 73">
       <set comment="band 1">
        <r>  0.2574  0.0423  0.0051 </r>
        <r>  0.2574  0.0423  0.0051 </r>
       </set>
       <set comment="band 2">
        <r>  0.2666  0.0624  0.0112 </r>
        <r>  0.2666  0.0624  0.0112 </r>
       </set>
       <set comment="band 3">
        <r>  0.0111  0.2143  0.0164 </r>
        <r>  0.0111  0.2143  0.0164 </r>
       </set>
       <set comment="band 4">
        <r>  0.0558  0.1840  0.0058 </r>
        <r>  0.0558  0.1840  0.0058 </r>
       </set>
       <set comment="band 5">
        <r>  0.0529  0.2312  0.0028 </r>
        <r>  0.0529  0.2312  0.0028 </r>
       </set>
       <set comment="band 6">
        <r>  0.0036  0.1892  0.0326 </r>
        <r>  0.0036  0.1892  0.0326 </r>
       </set>
       <set comment="band 7">
        <r>  0.0231  0.1622  0.0387 </r>
        <r>  0.0231  0.1622  0.0387 </r>
       </set>
       <set comment="band 8">
        <r>  0.0412  0.2550  0.0317 </r>
        <r>  0.0412  0.2550  0.0317 </r>
       </set>
       <set comment="band 9">
        <r>  0.0013  0.0625  0.1490 </r>
        <r>  0.0013  0.0625  0.1490 </r>
       </set>
       <set comment="band 10">
        <r>  0.0025  0.0254  0.1485 </r>
        <r>  0.0025  0.0254  0.1485 </r>
       </set>
       <set comment="band 11">
        <r>  0.0106  0.0191  0.0112 </r>
        <r>  0.0106  0.0191  0.0112 </r>
       </set>
       <set comment="band 12">
        <r>  0.0000  0.0397  0.0272 </r>
        <r>  0.0000  0.0397  0.0272 </r>
       </set>
       <set comment="band 13">
        <r>  0.0001  0.0228  0.0478 </r>
        <r>  0.0001  0.0228  0.0478 </r>
       </set>
       <set comment="band 14">
        <r>  0.0010  0.0053  0.0396 </r>
        <r>  0.0010  0.0053  0.0396 </r>
       </set>
       <set comment="band 15">
        <r>  0.0076  0.0070  0.0141 </r>
        <r>  0.0076  0.0070  0.0141 </r>
       </set>
       <set comment="band 16">
        <r>  0.0040  0.0367  0.0237 </r>
        <r>  0.0040  0.0366  0.0236 </r>
       </set>
      </set>
      <set comment="kpoint 74">
       <set comment="band 1">
        <r>  0.2592  0.0446  0.0059 </r>
        <r>  0.2592  0.0446  0.0059 </r>
       </set>
       <set comment="band 2">
        <r>  0.2630  0.0619  0.0105 </r>
        <r>  0.2630  0.0619  0.0105 </r>
       </set>
       <set comment="band 3">
        <r>  0.0103  0.2113  0.0154 </r>
        <r>  0.0103  0.2113  0.0154 </r>
       </set>
       <set comment="band 4">
        <r>  0.0610  0.1862  0.0054 </r>
        <r>  0.0610  0.1862  0.0054 </r>
       </set>
       <set comment="band 5">
        <r>  0.0570  0.2241  0.0033 </r>
        <r>  0.0570  0.2241  0.0033 </r>
       </set>
       <set comment="band 6">
        <r>  0.0025  0.1825  0.0324 </r>
        <r>  0.0025  0.1825  0.0324 </r>
       </set>
       <set comment="band 7">
        <r>  0.0208  0.1650  0.0403 </r>
        <r>  0.0208  0.1650  0.0403 </r>
       </set>
       <set comment="band 8">
        <r>  0.0346  0.2386  0.0356 </r>
        <r>  0.0346  0.2386  0.0356 </r>
       </set>
       <set comment="band 9">
        <r>  0.0013  0.0607  0.1503 </r>
        <r>  0.0013  0.0607  0.1503 </r>
       </set>
       <set comment="band 10">
        <r>  0.0088  0.0545  0.1434 </r>
        <r>  0.0088  0.0545  0.1434 </r>
       </set>
       <set comment="band 11">
        <r>  0.0029  0.0335  0.0383 </r>
        <r>  0.0029  0.0335  0.0383 </r>
       </set>
       <set comment="band 12">
        <r>  0.0054  0.0350  0.0258 </r>
        <r>  0.0054  0.0350  0.0258 </r>
       </set>
       <set comment="band 13">
        <r>  0.0004  0.0056  0.0312 </r>
        <r>  0.0004  0.0056  0.0312 </r>
       </set>
       <set comment="band 14">
        <r>  0.0012  0.0139  0.0268 </r>
        <r>  0.0012  0.0139  0.0268 </r>
       </set>
       <set comment="band 15">
        <r>  0.0071  0.0062  0.0162 </r>
        <r>  0.0071  0.0062  0.0162 </r>
       </set>
       <set comment="band 16">
        <r>  0.0049  0.0321  0.0159 </r>
        <r>  0.0049  0.0321  0.0159 </r>
       </set>
      </set>
      <set comment="kpoint 75">
       <set comment="band 1">
        <r>  0.2623  0.0462  0.0067 </r>
        <r>  0.2623  0.0462  0.0067 </r>
       </set>
       <set comment="band 2">
        <r>  0.2584  0.0616  0.0097 </r>
        <r>  0.2584  0.0616  0.0097 </r>
       </set>
       <set comment="band 3">
        <r>  0.0104  0.2091  0.0146 </r>
        <r>  0.0104  0.2091  0.0146 </r>
       </set>
       <set comment="band 4">
        <r>  0.0645  0.1903  0.0052 </r>
        <r>  0.0645  0.1903  0.0052 </r>
       </set>
       <set comment="band 5">
        <r>  0.0596  0.2163  0.0037 </r>
        <r>  0.0596  0.2163  0.0037 </r>
       </set>
       <set comment="band 6">
        <r>  0.0015  0.1785  0.0321 </r>
        <r>  0.0015  0.1785  0.0321 </r>
       </set>
       <set comment="band 7">
        <r>  0.0197  0.1711  0.0414 </r>
        <r>  0.0197  0.1711  0.0414 </r>
       </set>
       <set comment="band 8">
        <r>  0.0300  0.2199  0.0399 </r>
        <r>  0.0300  0.2199  0.0399 </r>
       </set>
       <set comment="band 9">
        <r>  0.0021  0.0498  0.1489 </r>
        <r>  0.0021  0.0498  0.1489 </r>
       </set>
       <set comment="band 10">
        <r>  0.0075  0.0603  0.1123 </r>
        <r>  0.0075  0.0603  0.1123 </r>
       </set>
       <set comment="band 11">
        <r>  0.0032  0.0868  0.0894 </r>
        <r>  0.0032  0.0868  0.0894 </r>
       </set>
       <set comment="band 12">
        <r>  0.0074  0.0128  0.0128 </r>
        <r>  0.0074  0.0128  0.0128 </r>
       </set>
       <set comment="band 13">
        <r>  0.0007  0.0046  0.0230 </r>
        <r>  0.0007  0.0046  0.0230 </r>
       </set>
       <set comment="band 14">
        <r>  0.0053  0.0173  0.0214 </r>
        <r>  0.0053  0.0173  0.0214 </r>
       </set>
       <set comment="band 15">
        <r>  0.0019  0.0656  0.0496 </r>
        <r>  0.0019  0.0656  0.0496 </r>
       </set>
       <set comment="band 16">
        <r>  0.0051  0.0159  0.0302 </r>
        <r>  0.0051  0.0159  0.0302 </r>
       </set>
      </set>
      <set comment="kpoint 76">
       <set comment="band 1">
        <r>  0.2664  0.0464  0.0075 </r>
        <r>  0.2664  0.0464  0.0075 </r>
       </set>
       <set comment="band 2">
        <r>  0.2533  0.0620  0.0090 </r>
        <r>  0.2533  0.0620  0.0090 </r>
       </set>
       <set comment="band 3">
        <r>  0.0106  0.2079  0.0142 </r>
        <r>  0.0106  0.2079  0.0142 </r>
       </set>
       <set comment="band 4">
        <r>  0.0668  0.1948  0.0050 </r>
        <r>  0.0668  0.1948  0.0050 </r>
       </set>
       <set comment="band 5">
        <r>  0.0602  0.2099  0.0041 </r>
        <r>  0.0602  0.2099  0.0041 </r>
       </set>
       <set comment="band 6">
        <r>  0.0010  0.1767  0.0319 </r>
        <r>  0.0010  0.1767  0.0319 </r>
       </set>
       <set comment="band 7">
        <r>  0.0182  0.1774  0.0416 </r>
        <r>  0.0182  0.1774  0.0416 </r>
       </set>
       <set comment="band 8">
        <r>  0.0286  0.2077  0.0421 </r>
        <r>  0.0286  0.2077  0.0421 </r>
       </set>
       <set comment="band 9">
        <r>  0.0030  0.0456  0.1480 </r>
        <r>  0.0030  0.0456  0.1480 </r>
       </set>
       <set comment="band 10">
        <r>  0.0053  0.0535  0.0967 </r>
        <r>  0.0053  0.0535  0.0967 </r>
       </set>
       <set comment="band 11">
        <r>  0.0046  0.1294  0.0908 </r>
        <r>  0.0046  0.1294  0.0908 </r>
       </set>
       <set comment="band 12">
        <r>  0.0070  0.0113  0.0169 </r>
        <r>  0.0070  0.0113  0.0169 </r>
       </set>
       <set comment="band 13">
        <r>  0.0065  0.0184  0.0115 </r>
        <r>  0.0065  0.0184  0.0115 </r>
       </set>
       <set comment="band 14">
        <r>  0.0021  0.0441  0.0773 </r>
        <r>  0.0021  0.0441  0.0773 </r>
       </set>
       <set comment="band 15">
        <r>  0.0008  0.0424  0.0726 </r>
        <r>  0.0008  0.0424  0.0726 </r>
       </set>
       <set comment="band 16">
        <r>  0.0007  0.0127  0.0253 </r>
        <r>  0.0007  0.0127  0.0253 </r>
       </set>
      </set>
      <set comment="kpoint 77">
       <set comment="band 1">
        <r>  0.2611  0.0468  0.0067 </r>
        <r>  0.2611  0.0468  0.0067 </r>
       </set>
       <set comment="band 2">
        <r>  0.2634  0.0596  0.0099 </r>
        <r>  0.2634  0.0596  0.0099 </r>
       </set>
       <set comment="band 3">
        <r>  0.0062  0.2100  0.0145 </r>
        <r>  0.0062  0.2100  0.0145 </r>
       </set>
       <set comment="band 4">
        <r>  0.0646  0.1897  0.0051 </r>
        <r>  0.0646  0.1897  0.0051 </r>
       </set>
       <set comment="band 5">
        <r>  0.0606  0.2179  0.0036 </r>
        <r>  0.0606  0.2179  0.0036 </r>
       </set>
       <set comment="band 6">
        <r>  0.0015  0.1765  0.0319 </r>
        <r>  0.0015  0.1765  0.0319 </r>
       </set>
       <set comment="band 7">
        <r>  0.0192  0.1682  0.0414 </r>
        <r>  0.0192  0.1682  0.0414 </r>
       </set>
       <set comment="band 8">
        <r>  0.0289  0.2276  0.0344 </r>
        <r>  0.0289  0.2276  0.0344 </r>
       </set>
       <set comment="band 9">
        <r>  0.0014  0.0599  0.1631 </r>
        <r>  0.0014  0.0599  0.1631 </r>
       </set>
       <set comment="band 10">
        <r>  0.0122  0.0727  0.1354 </r>
        <r>  0.0122  0.0727  0.1354 </r>
       </set>
       <set comment="band 11">
        <r>  0.0014  0.0583  0.0658 </r>
        <r>  0.0014  0.0583  0.0658 </r>
       </set>
       <set comment="band 12">
        <r>  0.0072  0.0118  0.0136 </r>
        <r>  0.0072  0.0118  0.0136 </r>
       </set>
       <set comment="band 13">
        <r>  0.0004  0.0029  0.0179 </r>
        <r>  0.0004  0.0029  0.0179 </r>
       </set>
       <set comment="band 14">
        <r>  0.0000  0.0629  0.0512 </r>
        <r>  0.0000  0.0629  0.0512 </r>
       </set>
       <set comment="band 15">
        <r>  0.0091  0.0433  0.0295 </r>
        <r>  0.0091  0.0433  0.0295 </r>
       </set>
       <set comment="band 16">
        <r>  0.0063  0.0043  0.0218 </r>
        <r>  0.0063  0.0043  0.0218 </r>
       </set>
      </set>
      <set comment="kpoint 78">
       <set comment="band 1">
        <r>  0.2637  0.0485  0.0075 </r>
        <r>  0.2637  0.0485  0.0075 </r>
       </set>
       <set comment="band 2">
        <r>  0.2621  0.0578  0.0093 </r>
        <r>  0.2621  0.0578  0.0093 </r>
       </set>
       <set comment="band 3">
        <r>  0.0040  0.2092  0.0139 </r>
        <r>  0.0040  0.2092  0.0139 </r>
       </set>
       <set comment="band 4">
        <r>  0.0666  0.1947  0.0048 </r>
        <r>  0.0666  0.1947  0.0048 </r>
       </set>
       <set comment="band 5">
        <r>  0.0629  0.2115  0.0040 </r>
        <r>  0.0629  0.2115  0.0040 </r>
       </set>
       <set comment="band 6">
        <r>  0.0007  0.1726  0.0316 </r>
        <r>  0.0007  0.1726  0.0316 </r>
       </set>
       <set comment="band 7">
        <r>  0.0186  0.1751  0.0418 </r>
        <r>  0.0186  0.1751  0.0418 </r>
       </set>
       <set comment="band 8">
        <r>  0.0250  0.2101  0.0379 </r>
        <r>  0.0250  0.2101  0.0379 </r>
       </set>
       <set comment="band 9">
        <r>  0.0015  0.0513  0.1609 </r>
        <r>  0.0015  0.0513  0.1609 </r>
       </set>
       <set comment="band 10">
        <r>  0.0093  0.0705  0.1033 </r>
        <r>  0.0093  0.0705  0.1033 </r>
       </set>
       <set comment="band 11">
        <r>  0.0064  0.0935  0.1002 </r>
        <r>  0.0064  0.0935  0.1002 </r>
       </set>
       <set comment="band 12">
        <r>  0.0067  0.0116  0.0161 </r>
        <r>  0.0067  0.0116  0.0161 </r>
       </set>
       <set comment="band 13">
        <r>  0.0002  0.0456  0.0531 </r>
        <r>  0.0002  0.0456  0.0531 </r>
       </set>
       <set comment="band 14">
        <r>  0.0047  0.0668  0.0743 </r>
        <r>  0.0047  0.0668  0.0743 </r>
       </set>
       <set comment="band 15">
        <r>  0.0046  0.0137  0.0234 </r>
        <r>  0.0046  0.0137  0.0234 </r>
       </set>
       <set comment="band 16">
        <r>  0.0039  0.0224  0.0109 </r>
        <r>  0.0039  0.0224  0.0109 </r>
       </set>
      </set>
      <set comment="kpoint 79">
       <set comment="band 1">
        <r>  0.2662  0.0489  0.0079 </r>
        <r>  0.2662  0.0489  0.0079 </r>
       </set>
       <set comment="band 2">
        <r>  0.2600  0.0573  0.0089 </r>
        <r>  0.2600  0.0573  0.0089 </r>
       </set>
       <set comment="band 3">
        <r>  0.0033  0.2089  0.0137 </r>
        <r>  0.0033  0.2089  0.0137 </r>
       </set>
       <set comment="band 4">
        <r>  0.0675  0.1981  0.0047 </r>
        <r>  0.0675  0.1981  0.0047 </r>
       </set>
       <set comment="band 5">
        <r>  0.0634  0.2077  0.0042 </r>
        <r>  0.0634  0.2077  0.0042 </r>
       </set>
       <set comment="band 6">
        <r>  0.0004  0.1714  0.0315 </r>
        <r>  0.0004  0.1714  0.0315 </r>
       </set>
       <set comment="band 7">
        <r>  0.0180  0.1804  0.0416 </r>
        <r>  0.0180  0.1804  0.0416 </r>
       </set>
       <set comment="band 8">
        <r>  0.0241  0.2012  0.0397 </r>
        <r>  0.0241  0.2012  0.0397 </r>
       </set>
       <set comment="band 9">
        <r>  0.0017  0.0488  0.1590 </r>
        <r>  0.0017  0.0488  0.1590 </r>
       </set>
       <set comment="band 10">
        <r>  0.0082  0.0659  0.0938 </r>
        <r>  0.0082  0.0659  0.0938 </r>
       </set>
       <set comment="band 11">
        <r>  0.0081  0.1487  0.0990 </r>
        <r>  0.0081  0.1487  0.0990 </r>
       </set>
       <set comment="band 12">
        <r>  0.0042  0.0655  0.1341 </r>
        <r>  0.0042  0.0655  0.1341 </r>
       </set>
       <set comment="band 13">
        <r>  0.0072  0.0065  0.0264 </r>
        <r>  0.0072  0.0065  0.0264 </r>
       </set>
       <set comment="band 14">
        <r>  0.0046  0.0204  0.0095 </r>
        <r>  0.0046  0.0204  0.0095 </r>
       </set>
       <set comment="band 15">
        <r>  0.0011  0.0063  0.0161 </r>
        <r>  0.0011  0.0063  0.0161 </r>
       </set>
       <set comment="band 16">
        <r>  0.0001  0.0023  0.0123 </r>
        <r>  0.0001  0.0023  0.0123 </r>
       </set>
      </set>
      <set comment="kpoint 80">
       <set comment="band 1">
        <r>  0.2647  0.0509  0.0081 </r>
        <r>  0.2647  0.0509  0.0081 </r>
       </set>
       <set comment="band 2">
        <r>  0.2640  0.0545  0.0088 </r>
        <r>  0.2640  0.0545  0.0088 </r>
       </set>
       <set comment="band 3">
        <r>  0.0006  0.2092  0.0135 </r>
        <r>  0.0006  0.2092  0.0135 </r>
       </set>
       <set comment="band 4">
        <r>  0.0669  0.2000  0.0045 </r>
        <r>  0.0669  0.2000  0.0045 </r>
       </set>
       <set comment="band 5">
        <r>  0.0653  0.2063  0.0042 </r>
        <r>  0.0653  0.2063  0.0042 </r>
       </set>
       <set comment="band 6">
        <r>  0.0001  0.1694  0.0314 </r>
        <r>  0.0001  0.1694  0.0314 </r>
       </set>
       <set comment="band 7">
        <r>  0.0190  0.1833  0.0414 </r>
        <r>  0.0190  0.1833  0.0414 </r>
       </set>
       <set comment="band 8">
        <r>  0.0214  0.1966  0.0396 </r>
        <r>  0.0214  0.1966  0.0396 </r>
       </set>
       <set comment="band 9">
        <r>  0.0001  0.0369  0.1488 </r>
        <r>  0.0001  0.0369  0.1488 </r>
       </set>
       <set comment="band 10">
        <r>  0.0133  0.1179  0.1190 </r>
        <r>  0.0133  0.1179  0.1190 </r>
       </set>
       <set comment="band 11">
        <r>  0.0060  0.0886  0.1023 </r>
        <r>  0.0060  0.0886  0.1023 </r>
       </set>
       <set comment="band 12">
        <r>  0.0043  0.0885  0.1229 </r>
        <r>  0.0043  0.0885  0.1229 </r>
       </set>
       <set comment="band 13">
        <r>  0.0068  0.0106  0.0194 </r>
        <r>  0.0068  0.0106  0.0194 </r>
       </set>
       <set comment="band 14">
        <r>  0.0081  0.0099  0.0195 </r>
        <r>  0.0081  0.0099  0.0195 </r>
       </set>
       <set comment="band 15">
        <r>  0.0000  0.0010  0.0191 </r>
        <r>  0.0000  0.0010  0.0191 </r>
       </set>
       <set comment="band 16">
        <r>  0.0010  0.0301  0.0045 </r>
        <r>  0.0010  0.0301  0.0045 </r>
       </set>
      </set>
     </set>
    </set>
   </array>
  </projected>
 </calculation>
 <structure name="finalpos" >
  <crystal>
   <varray name="basis" >
    <v>       3.28234349       0.00000000       0.00000000 </v>
    <v>      -1.64117175       2.84259285       0.00000000 </v>
    <v>       0.00000000       0.00000000      16.00000000 </v>
   </varray>
   <i name="volume">    149.28585836 </i>
   <varray name="rec_basis" >
    <v>       0.30466038       0.17589575       0.00000000 </v>
    <v>       0.00000000       0.35179150       0.00000000 </v>
    <v>       0.00000000       0.00000000       0.06250000 </v>
   </varray>
  </crystal>
  <varray name="positions" >
   <v>       0.66666667       0.33333333       0.46118284 </v>
   <v>       0.33333333       0.66666667       0.53881716 </v>
  </varray>
 </structure>
</modeling>
