unknown system                          
   1.00000000000000     
     3.606893    0.000000    0.000000
    -1.803446    3.123661    0.000000
     0.000000    0.000000   16.000000
  As_GW/a9e2ff09
               2
Direct
  0.666667  0.333333  0.456343
  0.333333  0.666667  0.543657
 
   36   36  160
 0.73064E-05 0.79642E-05 0.80109E-05 0.80904E-05 0.77830E-05 0.84076E-05 0.79624E-05 0.68828E-05 0.73425E-05 0.87870E-06
 0.78234E-05 0.92259E-05 0.10752E-04 0.58244E-05 0.80653E-05 0.14687E-04 0.95702E-05 0.78130E-05 0.73713E-05 0.78130E-05
 0.95702E-05 0.14687E-04 0.80653E-05 0.58244E-05 0.10752E-04 0.92259E-05 0.78234E-05 0.87870E-06 0.73425E-05 0.68828E-05
 0.79624E-05 0.84076E-05 0.77830E-05 0.80904E-05 0.80109E-05 0.79642E-05 0.78232E-05 0.74899E-05 0.80940E-05 0.90702E-05
 0.98051E-05 0.94872E-05 0.94086E-05 0.10060E-04 0.85638E-05 0.14985E-04 0.76170E-05 0.63304E-05 0.57421E-05 0.11108E-04
 0.87691E-05 0.23176E-05 0.77145E-05 0.12014E-04 0.13742E-04 0.14049E-04 0.11393E-04 0.48844E-05 0.94523E-05 0.10189E-04
 0.49579E-05 0.74005E-05 0.80347E-05 0.14508E-04 0.84848E-05 0.93787E-05 0.90167E-05 0.91806E-05 0.99101E-05 0.93432E-05
 0.85349E-05 0.78071E-05 0.78605E-05 0.83854E-05 0.79525E-05 0.80921E-05 0.77983E-05 0.86811E-05 0.82798E-05 0.72704E-05
 0.78360E-05 0.95686E-06 0.80260E-05 0.10147E-04 0.10167E-04 0.55658E-05 0.80213E-05 0.15654E-04 0.13969E-04 0.86344E-05
 0.40178E-05 0.28754E-05 0.44419E-05 0.11402E-04 0.75809E-05 0.83196E-05 0.12768E-04 0.87125E-05 0.80781E-05 0.22008E-05
 0.72421E-05 0.72133E-05 0.76134E-05 0.84032E-05 0.76495E-05 0.85424E-05 0.85361E-05 0.88263E-05 0.95476E-05 0.74720E-05
 0.93989E-05 0.84912E-05 0.10616E-04 0.88927E-05 0.10514E-04 0.99397E-05 0.98640E-05 0.15170E-04 0.89330E-05 0.55791E-05
 0.74905E-05 0.11407E-04 0.93789E-05 0.51455E-05 0.53466E-06 0.20854E-05 0.16754E-04 0.22401E-04 0.22697E-04 0.10994E-04
 0.11147E-04 0.52537E-05 0.35017E-05 0.93949E-05 0.10298E-04 0.13523E-04 0.10471E-04 0.85198E-05 0.99723E-05 0.81494E-05
 0.10790E-04 0.86564E-05 0.98492E-05 0.77451E-05 0.95587E-05 0.81704E-05 0.97244E-05 0.73835E-05 0.91225E-05 0.73823E-05
 0.94243E-05 0.58428E-05 0.94783E-05 -.33489E-06 0.10294E-04 0.95866E-05 0.12839E-04 0.28206E-05 0.15021E-04 0.71047E-05
 0.11673E-04 0.35779E-04 0.29376E-04 0.13416E-04 0.97051E-05 0.18825E-04 0.23039E-04 0.23998E-04 0.19895E-04 0.40405E-05
 0.90236E-05 0.41620E-05 0.81722E-05 0.76911E-05 0.87048E-05 0.76961E-05 0.82924E-05 0.75568E-05 0.95756E-05 0.82754E-05
 0.96849E-05 0.80690E-05 0.98079E-05 0.90727E-05 0.10435E-04 0.89779E-05 0.99775E-05 0.10180E-04 0.94521E-05 0.16101E-04
 0.88350E-05 0.65343E-05 0.73323E-05 0.14361E-04 0.90180E-05 -.47063E-05 0.35898E-04 0.91416E-05 -.26183E-04 -.31962E-04
 -.25722E-04 -.31773E-04 -.25981E-04 -.14904E-04 0.92653E-05 0.25760E-04 0.11157E-04 0.11080E-04 0.13090E-04 0.85591E-05
 0.10824E-04 0.82505E-05 0.10749E-04 0.83294E-05 0.95300E-05 0.77625E-05 0.81901E-05 0.93219E-05 0.86580E-05 0.88287E-05
 0.78763E-05 0.84726E-05 0.72840E-05 0.66540E-05 0.70662E-05 0.11199E-05 0.79590E-05 0.13142E-04 0.94270E-05 0.89827E-05
 0.41869E-05 0.24480E-04 0.27896E-04 -.24605E-04 -.12186E-04 0.29291E-04 0.63536E-04 0.76554E-04 0.58851E-04 0.19289E-04
 -.15363E-04 -.16347E-04 0.22996E-04 0.11205E-04 0.39834E-05 0.11111E-04 0.78919E-05 0.93189E-05 0.71568E-05 0.82874E-05
 0.79915E-05 0.89300E-05 0.10364E-04 0.64377E-05 0.10601E-04 0.79159E-05 0.11099E-04 0.79767E-05 0.10363E-04 0.92494E-05
 0.94364E-05 0.15582E-04 0.86384E-05 0.61623E-05 0.68089E-05 0.16725E-04 0.35159E-05 0.13721E-04 0.13493E-04 -.31863E-04
 0.28638E-04 0.76514E-04 0.92750E-04 0.76900E-04 0.90902E-04 0.98507E-04 0.84912E-04 0.19877E-04 -.24468E-04 0.17112E-04
 0.23958E-04 0.26857E-05 0.14820E-04 0.63553E-05 0.12948E-04 0.64961E-05 0.10544E-04 0.57568E-05 0.63396E-05 0.97077E-05
 0.69834E-05 0.94098E-05 0.66997E-05 0.91779E-05 0.58356E-05 0.69585E-05 0.52928E-05 0.12218E-05 0.61619E-05 0.14264E-04
 0.79542E-05 0.95597E-05 0.22896E-05 0.32355E-04 0.65313E-05 -.21671E-04 0.61231E-04 0.94369E-04 0.71328E-04 0.41748E-04
 0.22460E-04 0.27196E-04 0.66499E-04 0.97480E-04 0.58116E-04 -.30497E-04 0.78920E-05 0.21480E-04 0.27527E-05 0.12816E-04
 0.53936E-05 0.10017E-04 0.63896E-05 0.96287E-05 0.16332E-04 -.61000E-06 0.16260E-04 0.11735E-05 0.16894E-04 0.19246E-05
 0.16801E-04 0.36091E-05 0.15673E-04 0.96932E-05 0.14198E-04 -.90628E-06 0.11950E-04 0.10161E-04 0.10845E-04 0.37170E-05
 0.17710E-04 -.30920E-04 0.73800E-04 0.76911E-04 0.38266E-04 -.33428E-04 -.31071E-04 -.41920E-04 -.78577E-05 0.21251E-04
 0.95109E-04 0.67832E-04 -.16046E-04 0.51390E-05 0.26886E-04 -.30969E-05 0.21391E-04 -.47359E-06 0.17504E-04 -.10861E-05
 0.65940E-05 0.89873E-05 0.69471E-05 0.87051E-05 0.72887E-05 0.87871E-05 0.65020E-05 0.63868E-05 0.59355E-05 -.26283E-07
 0.67485E-05 0.12980E-04 0.90981E-05 0.57464E-05 0.70994E-05 0.20528E-04 0.21473E-04 -.23373E-04 0.58058E-04 0.90693E-04
 0.23353E-04 -.29287E-04 -.64561E-04 -.71566E-04 -.65697E-04 -.34206E-04 0.19488E-04 0.80884E-04 0.57890E-04 -.26720E-04
 0.21539E-04 0.11109E-04 0.60187E-05 0.10070E-04 0.69992E-05 0.94050E-05 0.40413E-05 0.11374E-04 0.48115E-05 0.12221E-04
 0.61776E-05 0.12996E-04 0.81849E-05 0.14828E-04 0.80760E-05 0.19732E-04 0.65663E-05 0.55588E-05 0.49106E-05 0.14043E-04
 0.96358E-05 -.40825E-05 0.25340E-04 -.17078E-04 0.19672E-04 0.96527E-04 0.26044E-04 -.44208E-04 -.71167E-04 -.61814E-04
 -.69990E-04 -.69806E-04 -.40620E-04 0.41890E-04 0.91292E-04 0.28542E-04 -.21303E-04 0.32222E-04 0.63155E-06 0.16037E-04
 0.33774E-05 0.12444E-04 0.93992E-05 0.72359E-05 0.89646E-05 0.73861E-05 0.97109E-05 0.74080E-05 0.78465E-05 0.46808E-05
 0.76043E-05 -.21512E-05 0.89745E-05 0.11448E-04 0.12362E-04 0.62764E-06 0.11750E-04 0.13003E-04 0.18478E-04 0.11383E-04
 -.15613E-04 0.85816E-04 0.67597E-04 -.59292E-05 -.65763E-04 -.70261E-04 -.67617E-04 -.63453E-04 -.65821E-04 -.21959E-04
 0.66149E-04 0.82784E-04 -.16943E-04 0.93410E-05 0.16767E-04 0.33973E-05 0.11566E-04 0.64517E-05 0.14351E-04 0.24399E-05
 0.13942E-04 0.43372E-05 0.13123E-04 0.71112E-05 0.17737E-04 0.11679E-04 0.17083E-04 0.17088E-04 0.13044E-04 0.33186E-06
 0.78015E-05 0.12038E-04 0.10013E-04 -.10127E-05 0.52974E-05 0.23060E-04 -.16260E-04 0.18510E-04 0.97420E-04 0.19296E-04
 -.33654E-04 -.69845E-04 -.63087E-04 -.75526E-04 -.64269E-04 -.34993E-04 0.34720E-04 0.93461E-04 0.28043E-04 -.22154E-04
 0.34301E-04 -.18159E-05 0.16696E-04 0.15211E-05 0.66619E-05 0.10313E-04 0.67683E-05 0.93252E-05 0.11842E-04 0.91443E-05
 0.25557E-05 0.14384E-05 0.18891E-05 -.32049E-05 0.69252E-05 0.16224E-04 0.11699E-04 0.28892E-05 0.68631E-05 0.20475E-04
 0.71502E-05 0.13362E-04 0.23211E-04 -.24181E-04 0.59846E-04 0.98117E-04 0.19783E-04 -.40777E-04 -.65814E-04 -.64579E-04
 -.64735E-04 -.45122E-04 0.22059E-04 0.88824E-04 0.57220E-04 -.25855E-04 0.19859E-04 0.11093E-04 0.63279E-05 0.10997E-04
 -.17669E-05 0.18630E-04 -.94973E-06 0.23056E-04 -.75732E-05 0.13025E-04 0.82536E-05 0.33656E-04 0.14899E-04 0.35624E-04
 0.28448E-05 0.71865E-05 -.48039E-05 0.23968E-04 0.26176E-05 0.44024E-05 0.43685E-05 0.97502E-05 0.99404E-05 0.18427E-04
 -.34013E-04 0.68797E-04 0.80260E-04 0.44276E-04 -.23736E-04 -.32939E-04 -.46970E-04 -.15211E-05 0.24292E-04 0.96835E-04
 0.60328E-04 -.14042E-04 0.41472E-05 0.28905E-04 -.52025E-05 0.21197E-04 0.57743E-05 0.11651E-04 0.10324E-04 0.28733E-05
 0.61014E-05 0.38417E-04 0.23873E-04 0.13808E-04 0.37384E-05 0.60517E-05 0.18906E-04 0.34321E-04 0.16035E-04 0.56650E-06
 0.47578E-05 0.24618E-04 0.47299E-05 0.17960E-04 0.23288E-05 0.27112E-04 0.83412E-05 -.13764E-04 0.57453E-04 0.92689E-04
 0.65154E-04 0.35025E-04 0.20787E-04 0.26608E-04 0.68535E-04 0.93064E-04 0.59513E-04 -.23203E-04 0.41336E-05 0.25036E-04
 0.79653E-06 0.15330E-04 0.52259E-05 0.14460E-04 0.58969E-05 0.61297E-05 0.34968E-04 0.13006E-04 -.26965E-04 -.25795E-04
 -.25261E-04 -.12879E-04 -.27189E-04 -.19676E-04 0.74435E-05 0.34174E-04 0.93711E-05 -.41163E-05 0.11577E-04 0.60937E-05
 0.11616E-04 0.21838E-05 0.20729E-04 0.45601E-05 -.28172E-04 0.29624E-04 0.81877E-04 0.93929E-04 0.86877E-04 0.94951E-04
 0.90779E-04 0.82582E-04 0.26931E-04 -.28098E-04 0.12605E-04 0.26445E-04 0.13789E-06 0.16495E-04 0.40628E-05 0.17191E-04
 0.85972E-06 0.18605E-04 0.24292E-04 -.24152E-04 -.15722E-04 0.28465E-04 0.58926E-04 0.61655E-04 0.55979E-04 0.28165E-04
 -.17569E-04 -.21478E-04 0.21306E-04 0.29703E-04 0.28161E-05 0.17511E-04 0.70228E-05 0.17511E-04 0.28161E-05 0.29703E-04
 0.21306E-04 -.21478E-04 -.17569E-04 0.28165E-04 0.55979E-04 0.61655E-04 0.58926E-04 0.28465E-04 -.15722E-04 -.24152E-04
 0.24292E-04 0.18605E-04 0.85972E-06 0.17191E-04 0.52259E-05 0.16495E-04 0.13789E-06 0.26445E-04 0.12605E-04 -.28098E-04
 0.26931E-04 0.82582E-04 0.90779E-04 0.94951E-04 0.86877E-04 0.93929E-04 0.81877E-04 0.29624E-04 -.28172E-04 0.45601E-05
 0.20729E-04 0.21838E-05 0.11616E-04 0.60937E-05 0.11577E-04 -.41163E-05 0.93711E-05 0.34174E-04 0.74435E-05 -.19676E-04
 -.27189E-04 -.12879E-04 -.25261E-04 -.25795E-04 -.26965E-04 0.13006E-04 0.34968E-04 0.61297E-05 0.58969E-05 0.14460E-04
 0.57743E-05 0.15330E-04 0.79653E-06 0.25036E-04 0.41336E-05 -.23203E-04 0.59513E-04 0.93064E-04 0.68535E-04 0.26608E-04
 0.20787E-04 0.35025E-04 0.65154E-04 0.92689E-04 0.57453E-04 -.13764E-04 0.83412E-05 0.27112E-04 0.23288E-05 0.17960E-04
 0.47299E-05 0.24618E-04 0.47578E-05 0.56650E-06 0.16035E-04 0.34321E-04 0.18906E-04 0.60517E-05 0.37384E-05 0.13808E-04
 0.23873E-04 0.38417E-04 0.61014E-05 0.28733E-05 0.10324E-04 0.11651E-04 -.17669E-05 0.21197E-04 -.52025E-05 0.28905E-04
 0.41472E-05 -.14042E-04 0.60328E-04 0.96835E-04 0.24292E-04 -.15211E-05 -.46970E-04 -.32939E-04 -.23736E-04 0.44276E-04
 0.80260E-04 0.68797E-04 -.34013E-04 0.18427E-04 0.99404E-05 0.97502E-05 0.43685E-05 0.44024E-05 0.26176E-05 0.23968E-04
 -.48039E-05 0.71865E-05 0.28448E-05 0.35624E-04 0.14899E-04 0.33656E-04 0.82536E-05 0.13025E-04 -.75732E-05 0.23056E-04
 -.94973E-06 0.18630E-04 0.66619E-05 0.10997E-04 0.63279E-05 0.11093E-04 0.19859E-04 -.25855E-04 0.57220E-04 0.88824E-04
 0.22059E-04 -.45122E-04 -.64735E-04 -.64579E-04 -.65814E-04 -.40777E-04 0.19783E-04 0.98117E-04 0.59846E-04 -.24181E-04
 0.23211E-04 0.13362E-04 0.71502E-05 0.20475E-04 0.68631E-05 0.28892E-05 0.11699E-04 0.16224E-04 0.69252E-05 -.32049E-05
 0.18891E-05 0.14384E-05 0.25557E-05 0.91443E-05 0.11842E-04 0.93252E-05 0.67683E-05 0.10313E-04 0.14351E-04 0.15211E-05
 0.16696E-04 -.18159E-05 0.34301E-04 -.22154E-04 0.28043E-04 0.93461E-04 0.34720E-04 -.34993E-04 -.64269E-04 -.75526E-04
 -.63087E-04 -.69845E-04 -.33654E-04 0.19296E-04 0.97420E-04 0.18510E-04 -.16260E-04 0.23060E-04 0.52974E-05 -.10127E-05
 0.10013E-04 0.12038E-04 0.78015E-05 0.33186E-06 0.13044E-04 0.17088E-04 0.17083E-04 0.11679E-04 0.17737E-04 0.71112E-05
 0.13123E-04 0.43372E-05 0.13942E-04 0.24399E-05 0.93992E-05 0.64517E-05 0.11566E-04 0.33973E-05 0.16767E-04 0.93410E-05
 -.16943E-04 0.82784E-04 0.66149E-04 -.21959E-04 -.65821E-04 -.63453E-04 -.67617E-04 -.70261E-04 -.65763E-04 -.59292E-05
 0.67597E-04 0.85816E-04 -.15613E-04 0.11383E-04 0.18478E-04 0.13003E-04 0.11750E-04 0.62764E-06 0.12362E-04 0.11448E-04
 0.89745E-05 -.21512E-05 0.76043E-05 0.46808E-05 0.78465E-05 0.74080E-05 0.97109E-05 0.73861E-05 0.89646E-05 0.72359E-05
 0.40413E-05 0.12444E-04 0.33774E-05 0.16037E-04 0.63155E-06 0.32222E-04 -.21303E-04 0.28542E-04 0.91292E-04 0.41890E-04
 -.40620E-04 -.69806E-04 -.69990E-04 -.61814E-04 -.71167E-04 -.44208E-04 0.26044E-04 0.96527E-04 0.19672E-04 -.17078E-04
 0.25340E-04 -.40825E-05 0.96358E-05 0.14043E-04 0.49106E-05 0.55588E-05 0.65663E-05 0.19732E-04 0.80760E-05 0.14828E-04
 0.81849E-05 0.12996E-04 0.61776E-05 0.12221E-04 0.48115E-05 0.11374E-04 0.65940E-05 0.94050E-05 0.69992E-05 0.10070E-04
 0.60187E-05 0.11109E-04 0.21539E-04 -.26720E-04 0.57890E-04 0.80884E-04 0.19488E-04 -.34206E-04 -.65697E-04 -.71566E-04
 -.64561E-04 -.29287E-04 0.23353E-04 0.90693E-04 0.58058E-04 -.23373E-04 0.21473E-04 0.20528E-04 0.70994E-05 0.57464E-05
 0.90981E-05 0.12980E-04 0.67485E-05 -.26283E-07 0.59355E-05 0.63868E-05 0.65020E-05 0.87871E-05 0.72887E-05 0.87051E-05
 0.69471E-05 0.89873E-05 0.16332E-04 -.10861E-05 0.17504E-04 -.47359E-06 0.21391E-04 -.30969E-05 0.26886E-04 0.51390E-05
 -.16046E-04 0.67832E-04 0.95109E-04 0.21251E-04 -.78577E-05 -.41920E-04 -.31071E-04 -.33428E-04 0.38266E-04 0.76911E-04
 0.73800E-04 -.30920E-04 0.17710E-04 0.37170E-05 0.10845E-04 0.10161E-04 0.11950E-04 -.90628E-06 0.14198E-04 0.96932E-05
 0.15673E-04 0.36091E-05 0.16801E-04 0.19246E-05 0.16894E-04 0.11735E-05 0.16260E-04 -.61000E-06 0.63396E-05 0.96287E-05
 0.63896E-05 0.10017E-04 0.53936E-05 0.12816E-04 0.27527E-05 0.21480E-04 0.78920E-05 -.30497E-04 0.58116E-04 0.97480E-04
 0.66499E-04 0.27196E-04 0.22460E-04 0.41748E-04 0.71328E-04 0.94369E-04 0.61231E-04 -.21671E-04 0.65313E-05 0.32355E-04
 0.22896E-05 0.95597E-05 0.79542E-05 0.14264E-04 0.61619E-05 0.12218E-05 0.52928E-05 0.69585E-05 0.58356E-05 0.91779E-05
 0.66997E-05 0.94098E-05 0.69834E-05 0.97077E-05 0.10364E-04 0.57568E-05 0.10544E-04 0.64961E-05 0.12948E-04 0.63553E-05
 0.14820E-04 0.26857E-05 0.23958E-04 0.17112E-04 -.24468E-04 0.19877E-04 0.84912E-04 0.98507E-04 0.90902E-04 0.76900E-04
 0.92750E-04 0.76514E-04 0.28638E-04 -.31863E-04 0.13493E-04 0.13721E-04 0.35159E-05 0.16725E-04 0.68089E-05 0.61623E-05
 0.86384E-05 0.15582E-04 0.94364E-05 0.92494E-05 0.10363E-04 0.79767E-05 0.11099E-04 0.79159E-05 0.10601E-04 0.64377E-05
 0.81901E-05 0.89300E-05 0.79915E-05 0.82874E-05 0.71568E-05 0.93189E-05 0.78919E-05 0.11111E-04 0.39834E-05 0.11205E-04
 0.22996E-04 -.16347E-04 -.15363E-04 0.19289E-04 0.58851E-04 0.76554E-04 0.63536E-04 0.29291E-04 -.12186E-04 -.24605E-04
 0.27896E-04 0.24480E-04 0.41869E-05 0.89827E-05 0.94270E-05 0.13142E-04 0.79590E-05 0.11199E-05 0.70662E-05 0.66540E-05
 0.72840E-05 0.84726E-05 0.78763E-05 0.88287E-05 0.86580E-05 0.93219E-05 0.96849E-05 0.77625E-05 0.95300E-05 0.83294E-05
 0.10749E-04 0.82505E-05 0.10824E-04 0.85591E-05 0.13090E-04 0.11080E-04 0.11157E-04 0.25760E-04 0.92653E-05 -.14904E-04
 -.25981E-04 -.31773E-04 -.25722E-04 -.31962E-04 -.26183E-04 0.91416E-05 0.35898E-04 -.47063E-05 0.90180E-05 0.14361E-04
 0.73323E-05 0.65343E-05 0.88350E-05 0.16101E-04 0.94521E-05 0.10180E-04 0.99775E-05 0.89779E-05 0.10435E-04 0.90727E-05
 0.98079E-05 0.80690E-05 0.95587E-05 0.82754E-05 0.95756E-05 0.75568E-05 0.82924E-05 0.76961E-05 0.87048E-05 0.76911E-05
 0.81722E-05 0.41620E-05 0.90236E-05 0.40405E-05 0.19895E-04 0.23998E-04 0.23039E-04 0.18825E-04 0.97051E-05 0.13416E-04
 0.29376E-04 0.35779E-04 0.11673E-04 0.71047E-05 0.15021E-04 0.28206E-05 0.12839E-04 0.95866E-05 0.10294E-04 -.33489E-06
 0.94783E-05 0.58428E-05 0.94243E-05 0.73823E-05 0.91225E-05 0.73835E-05 0.97244E-05 0.81704E-05 0.95476E-05 0.77451E-05
 0.98492E-05 0.86564E-05 0.10790E-04 0.81494E-05 0.99723E-05 0.85198E-05 0.10471E-04 0.13523E-04 0.10298E-04 0.93949E-05
 0.35017E-05 0.52537E-05 0.11147E-04 0.10994E-04 0.22697E-04 0.22401E-04 0.16754E-04 0.20854E-05 0.53466E-06 0.51455E-05
 0.93789E-05 0.11407E-04 0.74905E-05 0.55791E-05 0.89330E-05 0.15170E-04 0.98640E-05 0.99397E-05 0.10514E-04 0.88927E-05
 0.10616E-04 0.84912E-05 0.93989E-05 0.74720E-05 0.78605E-05 0.88263E-05 0.85361E-05 0.85424E-05 0.76495E-05 0.84032E-05
 0.76134E-05 0.72133E-05 0.72421E-05 0.22008E-05 0.80781E-05 0.87125E-05 0.12768E-04 0.83196E-05 0.75809E-05 0.11402E-04
 0.44419E-05 0.28754E-05 0.40178E-05 0.86344E-05 0.13969E-04 0.15654E-04 0.80213E-05 0.55658E-05 0.10167E-04 0.10147E-04
 0.80260E-05 0.95686E-06 0.78360E-05 0.72704E-05 0.82798E-05 0.86811E-05 0.77983E-05 0.80921E-05 0.79525E-05 0.83854E-05
 0.78232E-05 0.78071E-05 0.85349E-05 0.93432E-05 0.99101E-05 0.91806E-05 0.90167E-05 0.93787E-05 0.84848E-05 0.14508E-04
 0.80347E-05 0.74005E-05 0.49579E-05 0.10189E-04 0.94523E-05 0.48844E-05 0.11393E-04 0.14049E-04 0.13742E-04 0.12014E-04
 0.77145E-05 0.23176E-05 0.87691E-05 0.11108E-04 0.57421E-05 0.63304E-05 0.76170E-05 0.14985E-04 0.85638E-05 0.10060E-04
 0.94086E-05 0.94872E-05 0.98051E-05 0.90702E-05 0.80940E-05 0.74899E-05 0.72990E-05 0.69999E-05 0.78520E-05 0.65821E-05
 0.75693E-05 0.79499E-05 0.90192E-05 0.63256E-05 0.92430E-05 0.20191E-05 0.85499E-05 0.12894E-04 0.61962E-05 0.60652E-06
 0.93816E-05 0.16421E-04 0.11714E-04 0.12375E-04 0.13335E-04 0.13188E-04 0.11798E-04 0.18478E-04 0.98011E-05 -.52751E-06
 0.63397E-05 0.14563E-04 0.83468E-05 0.12085E-06 0.87873E-05 0.54909E-05 0.86370E-05 0.78122E-05 0.72283E-05 0.64073E-05
 0.79883E-05 0.71290E-05 0.70086E-05 0.74717E-05 0.69181E-05 0.88739E-05 0.82652E-05 0.82071E-05 0.70463E-05 0.95043E-05
 0.62405E-05 0.13037E-04 0.66449E-05 0.29307E-05 0.89929E-05 0.14898E-04 0.67081E-05 0.10895E-05 0.70081E-05 0.56091E-05
 0.38988E-05 0.33642E-05 0.43009E-05 -.23099E-05 0.67246E-05 0.17892E-04 0.10470E-04 0.89444E-06 0.67308E-05 0.14987E-04
 0.56091E-05 0.94985E-05 0.64635E-05 0.78502E-05 0.84259E-05 0.93653E-05 0.72524E-05 0.77048E-05 0.75641E-05 0.74826E-05
 0.77365E-05 0.67568E-05 0.72379E-05 0.81334E-05 0.87583E-05 0.66512E-05 0.88802E-05 0.25517E-05 0.83668E-05 0.12759E-04
 0.72837E-05 0.21303E-05 0.10047E-04 0.16434E-04 0.75715E-05 0.12637E-04 0.17655E-04 0.20013E-04 0.18332E-04 0.23601E-04
 0.11240E-04 -.17085E-05 0.52029E-05 0.16917E-04 0.95094E-05 0.47061E-06 0.92828E-05 0.53998E-05 0.83085E-05 0.77740E-05
 0.70832E-05 0.67220E-05 0.81448E-05 0.77972E-05 0.87595E-05 0.67809E-05 0.85267E-05 0.78087E-05 0.96021E-05 0.68377E-05
 0.81163E-05 0.78140E-05 0.72700E-05 0.11181E-04 0.78279E-05 0.23098E-05 0.10309E-04 0.13902E-04 0.95352E-05 -.26579E-05
 0.17353E-04 0.14903E-04 0.47374E-05 -.46579E-05 -.22291E-05 -.77286E-05 0.94510E-05 0.22702E-04 0.15482E-04 -.16366E-05
 0.83513E-05 0.15923E-04 0.72401E-05 0.91887E-05 0.77181E-05 0.67087E-05 0.94944E-05 0.82400E-05 0.86500E-05 0.68926E-05
 0.89085E-05 0.69942E-05 0.91829E-05 0.62115E-05 0.81702E-05 0.73180E-05 0.94186E-05 0.59303E-05 0.92842E-05 0.20912E-05
 0.85973E-05 0.12068E-04 0.76404E-05 0.42588E-05 0.66317E-05 0.24858E-04 0.13891E-04 -.14686E-04 -.29598E-05 0.11625E-04
 0.20356E-04 0.19635E-04 0.25889E-05 -.15747E-04 0.28002E-05 0.21687E-04 0.12384E-04 -.16076E-05 0.12340E-04 0.44361E-05
 0.10048E-04 0.65791E-05 0.82176E-05 0.54620E-05 0.91876E-05 0.68662E-05 0.74211E-05 0.83749E-05 0.76181E-05 0.95043E-05
 0.86633E-05 0.80380E-05 0.66993E-05 0.85340E-05 0.59378E-05 0.11779E-04 0.68774E-05 0.34814E-05 0.98683E-05 0.13477E-04
 0.98078E-05 0.10769E-04 -.17548E-04 0.12549E-04 0.52083E-04 0.59361E-04 0.54713E-04 0.47313E-04 0.55412E-04 0.52646E-04
 0.13856E-04 -.13164E-04 0.83779E-05 0.21649E-04 0.48654E-05 0.12339E-04 0.66869E-05 0.86040E-05 0.78682E-05 0.94520E-05
 0.69587E-05 0.81208E-05 0.77612E-05 0.78433E-05 0.85468E-05 0.73086E-05 0.76910E-05 0.81443E-05 0.89822E-05 0.64602E-05
 0.91277E-05 0.24857E-05 0.91290E-05 0.11041E-04 0.96442E-05 0.63974E-06 0.16346E-04 0.10690E-04 -.23574E-05 0.53242E-04
 0.44337E-04 0.72658E-05 -.24118E-04 -.22709E-04 -.21083E-04 0.46388E-05 0.47332E-04 0.51691E-04 0.24308E-06 -.43716E-05
 0.16076E-04 0.44521E-05 0.10211E-04 0.79537E-05 0.74926E-05 0.62416E-05 0.78570E-05 0.74597E-05 0.86147E-05 0.64184E-05
 0.93146E-05 0.77597E-05 0.10955E-04 0.61121E-05 0.88047E-05 0.59849E-05 0.82311E-05 0.90603E-05 0.99178E-05 0.11766E-05
 0.13605E-04 0.84051E-05 0.18483E-04 -.10369E-04 0.98207E-05 0.55761E-04 0.62377E-05 -.43760E-04 -.49175E-04 -.49029E-04
 -.41770E-04 -.47182E-04 -.44137E-04 0.24343E-05 0.55666E-04 0.16967E-04 -.11145E-05 0.16761E-04 0.67002E-05 0.88240E-05
 0.92401E-05 0.84171E-05 0.80993E-05 0.62542E-05 0.78658E-05 0.69338E-05 0.86756E-05 0.68270E-05 0.80767E-05 0.80581E-05
 0.96827E-05 0.64353E-05 0.97894E-05 0.25506E-05 0.99910E-05 0.10403E-04 0.10460E-04 0.59954E-06 0.17472E-04 0.32113E-05
 0.19548E-04 0.53826E-04 -.25585E-04 -.49093E-04 -.18470E-04 0.32565E-04 0.37920E-04 0.20600E-04 -.15347E-04 -.45992E-04
 -.22875E-04 0.47319E-04 0.15818E-04 -.33168E-05 0.16031E-04 0.61780E-05 0.97379E-05 0.58094E-05 0.87855E-05 0.66512E-05
 0.12537E-04 0.17074E-05 0.13178E-04 0.31334E-05 0.15557E-04 0.17132E-05 0.13293E-04 0.11235E-05 0.12456E-04 0.39198E-05
 0.14465E-04 -.29342E-05 0.18592E-04 0.39168E-05 0.21293E-04 -.11417E-04 0.16086E-04 0.45020E-04 -.25943E-04 -.48097E-04
 0.29348E-04 0.70799E-04 0.11655E-03 0.11155E-03 0.87440E-04 0.13240E-04 -.37435E-04 -.32141E-04 0.58813E-04 0.76746E-05
 0.71689E-05 0.88420E-05 0.12489E-04 0.58593E-05 0.12463E-04 0.24502E-05 0.75572E-05 0.70970E-05 0.77788E-05 0.69576E-05
 0.73321E-05 0.90055E-05 0.97790E-05 0.78417E-05 0.94392E-05 0.37107E-05 0.87409E-05 0.10944E-04 0.82848E-05 0.35996E-05
 0.11588E-04 0.14381E-04 0.31366E-05 0.54573E-04 -.22242E-04 -.42678E-04 0.37489E-04 0.11778E-03 0.14529E-03 0.14513E-03
 0.14627E-03 0.11488E-03 0.39094E-04 -.49062E-04 -.22743E-04 0.53332E-04 0.32922E-06 0.95586E-05 0.99146E-05 0.67887E-05
 0.91441E-05 0.76409E-05 0.34499E-05 0.11858E-04 0.22170E-05 0.13786E-04 0.42211E-05 0.13365E-04 0.10042E-05 0.13384E-04
 -.98862E-06 0.16369E-04 -.42631E-06 0.11807E-04 0.22800E-05 0.20994E-04 -.11084E-05 0.17240E-04 -.16008E-04 0.50205E-04
 0.40748E-05 -.48118E-04 0.19578E-04 0.10859E-03 0.14531E-03 0.17020E-03 0.14983E-03 0.15293E-03 0.10298E-03 0.36769E-04
 -.58027E-04 0.16672E-04 0.39701E-04 -.24411E-05 0.12254E-04 0.11829E-04 0.53796E-05 0.11887E-04 0.54755E-05 0.95505E-05
 0.57772E-05 0.82908E-05 0.48024E-05 0.10913E-04 0.92817E-05 0.11095E-04 0.91328E-05 0.69088E-05 0.64628E-05 0.11894E-04
 0.37502E-05 0.75855E-05 0.53645E-05 0.20275E-04 0.34982E-05 0.14881E-04 0.47215E-04 -.44127E-04 -.14716E-04 0.89434E-04
 0.14622E-03 0.14948E-03 0.15966E-03 0.16180E-03 0.14620E-03 0.75887E-04 -.15290E-04 -.46396E-04 0.47344E-04 0.15111E-04
 0.25588E-06 0.13994E-04 0.47630E-05 0.11454E-04 0.13009E-04 0.23882E-05 0.12623E-04 0.26023E-05 0.16384E-04 0.17864E-06
 0.11130E-04 -.15929E-05 0.10726E-04 0.12719E-05 0.13066E-04 -.24388E-05 0.17783E-04 0.27205E-05 0.16793E-04 -.67378E-05
 0.21238E-04 -.14594E-04 0.52785E-04 0.29127E-05 -.45920E-04 0.11729E-04 0.11597E-03 0.15334E-03 0.16215E-03 0.14555E-03
 0.15788E-03 0.11043E-03 0.33215E-04 -.57595E-04 0.17299E-04 0.38719E-04 -.53093E-06 0.11518E-04 0.11404E-04 0.42350E-05
 0.91435E-05 0.71429E-05 0.85918E-05 0.64846E-05 0.29662E-05 0.93104E-05 0.15029E-04 0.14987E-04 0.16285E-04 0.96180E-05
 0.10162E-04 0.77406E-05 0.43216E-05 0.45566E-05 0.97965E-05 0.11890E-04 0.13358E-04 0.91842E-05 0.56718E-06 0.57544E-04
 -.20755E-04 -.34725E-04 0.40359E-04 0.10309E-03 0.14643E-03 0.15708E-03 0.14542E-03 0.10480E-03 0.38184E-04 -.44236E-04
 -.20865E-04 0.56461E-04 0.25114E-06 0.77564E-05 0.11006E-04 0.75026E-05 0.37129E-05 0.13794E-04 0.16297E-05 0.11063E-04
 0.10962E-04 0.21694E-04 -.46020E-05 0.50203E-05 -.11314E-04 0.12191E-04 -.68566E-06 0.19319E-04 0.45681E-05 0.17576E-04
 -.27377E-05 0.14401E-04 -.53856E-05 0.23497E-04 -.61609E-05 0.20000E-04 0.47317E-04 -.30713E-04 -.50147E-04 0.40030E-04
 0.73805E-04 0.11224E-03 0.10223E-03 0.97980E-04 0.16879E-04 -.31140E-04 -.38350E-04 0.61686E-04 0.65503E-05 0.93883E-05
 0.84121E-05 0.12334E-04 0.95563E-05 0.90408E-05 0.42329E-05 0.15732E-04 0.78268E-05 -.15493E-04 -.46395E-05 0.88443E-05
 0.17103E-04 0.72935E-05 0.12275E-05 -.40090E-05 0.86610E-06 0.10077E-04 0.10319E-04 0.98324E-05 0.13663E-04 0.53751E-05
 0.16419E-04 -.13063E-06 0.17291E-04 0.64323E-04 -.22339E-04 -.57214E-04 -.16094E-04 0.32933E-04 0.36037E-04 0.19174E-04
 -.19790E-04 -.50057E-04 -.25484E-04 0.57346E-04 0.16434E-04 -.23395E-05 0.16514E-04 0.66632E-05 0.11549E-04 0.58137E-05
 0.96752E-05 0.15714E-04 -.15604E-04 0.11554E-04 0.48069E-04 0.56223E-04 0.48736E-04 0.54110E-04 0.49729E-04 0.39194E-04
 0.11427E-04 -.22874E-05 0.57344E-05 0.99652E-05 0.10299E-05 0.13077E-04 0.37983E-05 0.18220E-04 -.40112E-05 0.68738E-05
 0.55248E-04 0.18088E-04 -.46630E-04 -.57593E-04 -.45107E-04 -.34042E-04 -.51653E-04 -.38998E-04 0.47512E-05 0.60609E-04
 0.11666E-04 -.66687E-06 0.17950E-04 0.48825E-05 0.13231E-04 0.32004E-05 0.16101E-04 0.59502E-06 -.61761E-05 0.48336E-04
 0.40860E-04 0.10149E-05 -.25726E-04 -.37343E-04 -.22665E-04 0.11030E-04 0.43848E-04 0.37085E-04 -.45481E-06 0.55234E-05
 0.17355E-04 0.43295E-05 0.11817E-04 0.55413E-05 0.18556E-04 0.87081E-05 0.11205E-05 0.39353E-04 0.47975E-04 0.15293E-04
 -.21557E-04 -.38255E-04 -.24767E-04 0.32181E-05 0.45109E-04 0.52578E-04 -.47442E-05 0.24895E-05 0.17975E-04 0.41236E-05
 0.11850E-04 0.34454E-05 0.16484E-04 -.33594E-05 0.94406E-05 0.54949E-04 0.15510E-05 -.41617E-04 -.52506E-04 -.38058E-04
 -.46545E-04 -.58197E-04 -.48174E-04 0.11839E-04 0.50533E-04 0.53471E-05 -.54843E-05 0.16559E-04 0.36999E-05 0.11964E-04
 0.26079E-05 0.92577E-05 0.80013E-05 -.53232E-06 0.13492E-04 0.39617E-04 0.53258E-04 0.57962E-04 0.52379E-04 0.59411E-04
 0.51841E-04 0.12683E-04 -.13531E-04 0.17780E-04 0.11687E-04 0.60139E-05 0.87143E-05 0.60733E-05 0.14161E-04 -.34226E-05
 0.13549E-04 0.52098E-04 -.29248E-04 -.52237E-04 -.25674E-04 0.12398E-04 0.25811E-04 0.22837E-04 -.22366E-04 -.58647E-04
 -.26597E-04 0.57336E-04 0.14455E-04 -.19593E-05 0.14460E-04 0.56683E-05 0.12905E-04 0.12379E-04 0.11016E-04 0.10701E-04
 0.13627E-05 -.18950E-05 0.92654E-06 0.66697E-05 0.17470E-04 0.96965E-05 -.44812E-05 -.14158E-04 0.92114E-05 0.18001E-04
 0.49961E-05 0.10128E-04 0.47561E-05 0.98645E-05 0.82865E-05 0.60364E-05 0.55439E-05 0.54902E-04 -.40206E-04 -.37401E-04
 0.84524E-05 0.79463E-04 0.85333E-04 0.93730E-04 0.59688E-04 0.26707E-04 -.53351E-04 -.34584E-04 0.42671E-04 0.16487E-04
 -.62462E-05 0.19992E-04 -.40748E-05 0.11301E-04 -.43247E-06 0.18464E-04 0.77457E-05 0.17792E-04 0.19265E-05 0.12664E-04
 -.93756E-05 0.44197E-05 -.18506E-05 0.22043E-04 0.14873E-04 0.11360E-04 0.43441E-05 0.12634E-04 0.86174E-05 0.64760E-05
 0.96013E-05 0.65246E-05 -.90151E-06 0.51598E-04 -.24502E-04 -.48286E-04 0.26400E-04 0.87050E-04 0.12114E-03 0.12995E-03
 0.12222E-03 0.85313E-04 0.28378E-04 -.40922E-04 -.24361E-04 0.51823E-04 -.11147E-05 0.81374E-05 0.11796E-04 0.12791E-04
 0.96899E-05 0.40211E-05 0.54645E-05 0.10769E-04 0.11613E-04 0.96407E-05 0.17629E-04 0.16123E-04 0.16457E-04 0.10963E-04
 0.41874E-05 0.79471E-05 0.97067E-05 0.75928E-05 0.11199E-04 0.46077E-05 0.88548E-05 0.11168E-04 -.29277E-05 0.36889E-04
 0.11831E-04 -.59519E-04 0.21480E-04 0.91032E-04 0.13039E-03 0.11956E-03 0.13166E-03 0.12728E-03 0.95141E-04 0.44494E-05
 -.51054E-04 0.72078E-06 0.47573E-04 -.14519E-04 0.18428E-04 -.77817E-05 0.14492E-04 0.56643E-05 0.17314E-04 -.71171E-06
 0.13402E-04 0.57405E-05 0.10271E-04 0.93637E-06 0.10356E-04 0.24938E-05 0.16532E-04 0.56616E-05 0.12299E-04 0.41846E-05
 0.52041E-05 0.10417E-04 0.35189E-05 0.12883E-04 -.40802E-06 0.13658E-04 0.43045E-04 -.48081E-04 -.21325E-04 0.61870E-04
 0.12198E-03 0.13141E-03 0.12920E-03 0.12206E-03 0.12199E-03 0.72345E-04 -.20358E-04 -.46657E-04 0.42960E-04 0.14058E-04
 0.21158E-05 0.20325E-04 0.39870E-05 0.52386E-05 0.36222E-05 0.14386E-04 0.80822E-05 0.71674E-05 0.10389E-04 0.11474E-04
 0.95278E-05 0.11251E-04 0.49681E-05 0.89493E-05 0.67158E-05 0.10106E-04 0.48512E-05 0.96831E-05 0.55238E-05 0.89029E-05
 0.12026E-04 -.41441E-05 0.38423E-04 0.11848E-04 -.58302E-04 0.24776E-04 0.86123E-04 0.12728E-03 0.12237E-03 0.13820E-03
 0.12114E-03 0.90107E-04 0.11794E-04 -.50679E-04 0.28825E-05 0.45598E-04 -.14294E-04 0.12597E-04 -.95988E-06 0.19140E-04
 0.29874E-05 0.87361E-05 0.21117E-05 0.17525E-04 0.14384E-05 0.12343E-04 0.21226E-05 0.11133E-04 0.57053E-05 0.12705E-04
 0.42916E-05 0.10853E-04 0.77048E-05 0.71559E-05 0.80367E-05 0.57444E-05 0.88934E-05 0.83568E-05 -.15344E-06 0.50258E-04
 -.24334E-04 -.49782E-04 0.29000E-04 0.95011E-04 0.12212E-03 0.12064E-03 0.12106E-03 0.97843E-04 0.27965E-04 -.45174E-04
 -.23406E-04 0.52213E-04 0.26243E-05 0.14924E-04 0.99747E-05 0.37444E-06 0.64818E-05 0.11532E-04 0.86854E-05 0.28940E-05
 0.10067E-04 0.76391E-05 0.91596E-05 0.81135E-05 0.60721E-05 0.63207E-05 0.79459E-05 0.76105E-05 0.11438E-04 0.39151E-05
 0.10400E-04 0.60129E-05 0.96583E-05 0.91724E-05 0.49963E-05 0.80571E-05 0.53898E-04 -.33186E-04 -.41208E-04 0.73135E-05
 0.70297E-04 0.92206E-04 0.95705E-04 0.58378E-04 0.18818E-04 -.48002E-04 -.28028E-04 0.43052E-04 0.14471E-04 -.11993E-04
 0.18380E-04 0.53891E-05 0.15464E-04 -.41632E-05 0.12340E-04 0.69169E-05 0.11048E-04 0.27649E-05 0.11029E-04 0.19691E-05
 0.13191E-04 0.41140E-05 0.11547E-04 0.34976E-05 0.83412E-05 0.69761E-05 0.86455E-05 0.55851E-05 0.91424E-05 0.52453E-05
 0.14810E-04 -.34740E-05 0.14894E-04 0.45381E-04 -.24390E-04 -.49357E-04 -.21235E-04 0.11789E-04 0.26262E-04 0.21020E-04
 -.23576E-04 -.51079E-04 -.26524E-04 0.51276E-04 0.18443E-04 0.43528E-05 0.16041E-04 -.19087E-05 0.90951E-05 0.11027E-04
 0.93270E-05 0.94153E-06 0.98092E-05 0.60091E-05 0.91016E-05 0.72306E-05 0.67022E-05 0.58196E-05 0.84026E-05 0.72628E-05
 0.88301E-05 0.71288E-05 0.81402E-05 0.84462E-05 0.84262E-05 0.86507E-05 0.57814E-05 0.15576E-04 -.18713E-05 0.14972E-04
 0.51918E-04 0.13004E-05 -.46569E-04 -.51431E-04 -.46546E-04 -.51571E-04 -.52732E-04 -.44647E-04 0.34151E-05 0.52080E-04
 0.91070E-05 -.12249E-04 0.16834E-04 0.94389E-05 0.12736E-04 -.23402E-06 0.95566E-05 0.11035E-04 0.80183E-05 0.66042E-05
 0.80889E-05 0.56384E-05 0.10115E-04 0.76617E-05 0.87315E-05 0.68793E-05 0.81825E-05 0.79579E-05 0.83198E-05 0.67952E-05
 0.78777E-05 0.77558E-05 0.97337E-05 0.41136E-05 0.14875E-04 -.35862E-05 -.14505E-06 0.47303E-04 0.43200E-04 0.20755E-05
 -.24575E-04 -.27704E-04 -.27085E-04 0.29130E-05 0.40128E-04 0.50544E-04 -.32344E-05 0.10999E-04 0.14849E-04 -.15697E-05
 0.93091E-05 0.12954E-04 0.97319E-05 0.17133E-05 0.97676E-05 0.65176E-05 0.90212E-05 0.79270E-05 0.69017E-05 0.66008E-05
 0.83458E-05 0.80035E-05 0.77929E-05 0.84299E-05 0.75199E-05 0.94563E-05 0.80336E-05 0.87578E-05 0.67621E-05 0.11312E-04
 0.41865E-05 0.18749E-04 0.73546E-05 -.12030E-04 0.12509E-04 0.47639E-04 0.50676E-04 0.43393E-04 0.48941E-04 0.54581E-04
 0.48075E-04 0.10073E-04 -.17891E-04 0.70860E-05 0.84958E-05 0.13872E-04 0.98913E-05 0.24087E-05 0.80589E-05 0.14286E-04
 0.69795E-05 0.93929E-05 0.71115E-05 0.78040E-05 0.88412E-05 0.93470E-05 0.75521E-05 0.82436E-05 0.86977E-05 0.72889E-05