   2   2   1   0
  0.9013366E+02  0.3606893E-09  0.3606893E-09  0.1600000E-08  0.5000000E-15
  1.000000000000000E-004
  CAR 
 unknown system                          
     10.01903461    -17.73634346 6001     -2.97047329      1.00000000
    -17.736  0.0000E+00  0.0000E+00
    -17.732  0.0000E+00  0.0000E+00
    -17.727  0.0000E+00  0.0000E+00
    -17.722  0.0000E+00  0.0000E+00
    -17.718  0.0000E+00  0.0000E+00
    -17.713  0.0000E+00  0.0000E+00
    -17.709  0.0000E+00  0.0000E+00
    -17.704  0.0000E+00  0.0000E+00
    -17.699  0.0000E+00  0.0000E+00
    -17.695  0.0000E+00  0.0000E+00
    -17.690  0.0000E+00  0.0000E+00
    -17.685  0.0000E+00  0.0000E+00
    -17.681  0.0000E+00  0.0000E+00
    -17.676  0.0000E+00  0.0000E+00
    -17.672  0.0000E+00  0.0000E+00
    -17.667  0.0000E+00  0.0000E+00
    -17.662  0.0000E+00  0.0000E+00
    -17.658  0.0000E+00  0.0000E+00
    -17.653  0.0000E+00  0.0000E+00
    -17.648  0.0000E+00  0.0000E+00
    -17.644  0.0000E+00  0.0000E+00
    -17.639  0.0000E+00  0.0000E+00
    -17.635  0.0000E+00  0.0000E+00
    -17.630  0.0000E+00  0.0000E+00
    -17.625  0.0000E+00  0.0000E+00
    -17.621  0.0000E+00  0.0000E+00
    -17.616  0.0000E+00  0.0000E+00
    -17.611  0.0000E+00  0.0000E+00
    -17.607  0.0000E+00  0.0000E+00
    -17.602  0.0000E+00  0.0000E+00
    -17.598  0.0000E+00  0.0000E+00
    -17.593  0.0000E+00  0.0000E+00
    -17.588  0.0000E+00  0.0000E+00
    -17.584  0.0000E+00  0.0000E+00
    -17.579  0.0000E+00  0.0000E+00
    -17.574  0.0000E+00  0.0000E+00
    -17.570  0.0000E+00  0.0000E+00
    -17.565  0.0000E+00  0.0000E+00
    -17.561  0.0000E+00  0.0000E+00
    -17.556  0.0000E+00  0.0000E+00
    -17.551  0.0000E+00  0.0000E+00
    -17.547  0.0000E+00  0.0000E+00
    -17.542  0.0000E+00  0.0000E+00
    -17.537  0.0000E+00  0.0000E+00
    -17.533  0.0000E+00  0.0000E+00
    -17.528  0.0000E+00  0.0000E+00
    -17.524  0.0000E+00  0.0000E+00
    -17.519  0.0000E+00  0.0000E+00
    -17.514  0.0000E+00  0.0000E+00
    -17.510  0.0000E+00  0.0000E+00
    -17.505  0.0000E+00  0.0000E+00
    -17.500  0.0000E+00  0.0000E+00
    -17.496  0.0000E+00  0.0000E+00
    -17.491  0.0000E+00  0.0000E+00
    -17.487  0.0000E+00  0.0000E+00
    -17.482  0.0000E+00  0.0000E+00
    -17.477  0.0000E+00  0.0000E+00
    -17.473  0.0000E+00  0.0000E+00
    -17.468  0.0000E+00  0.0000E+00
    -17.463  0.0000E+00  0.0000E+00
    -17.459  0.0000E+00  0.0000E+00
    -17.454  0.0000E+00  0.0000E+00
    -17.450  0.0000E+00  0.0000E+00
    -17.445  0.0000E+00  0.0000E+00
    -17.440  0.0000E+00  0.0000E+00
    -17.436  0.0000E+00  0.0000E+00
    -17.431  0.0000E+00  0.0000E+00
    -17.426  0.0000E+00  0.0000E+00
    -17.422  0.0000E+00  0.0000E+00
    -17.417  0.0000E+00  0.0000E+00
    -17.413  0.0000E+00  0.0000E+00
    -17.408  0.0000E+00  0.0000E+00
    -17.403  0.0000E+00  0.0000E+00
    -17.399  0.0000E+00  0.0000E+00
    -17.394  0.0000E+00  0.0000E+00
    -17.389  0.0000E+00  0.0000E+00
    -17.385  0.0000E+00  0.0000E+00
    -17.380  0.0000E+00  0.0000E+00
    -17.376  0.0000E+00  0.0000E+00
    -17.371  0.0000E+00  0.0000E+00
    -17.366  0.0000E+00  0.0000E+00
    -17.362  0.0000E+00  0.0000E+00
    -17.357  0.0000E+00  0.0000E+00
    -17.352  0.0000E+00  0.0000E+00
    -17.348  0.0000E+00  0.0000E+00
    -17.343  0.0000E+00  0.0000E+00
    -17.339  0.0000E+00  0.0000E+00
    -17.334  0.0000E+00  0.0000E+00
    -17.329  0.0000E+00  0.0000E+00
    -17.325  0.0000E+00  0.0000E+00
    -17.320  0.0000E+00  0.0000E+00
    -17.315  0.0000E+00  0.0000E+00
    -17.311  0.0000E+00  0.0000E+00
    -17.306  0.0000E+00  0.0000E+00
    -17.302  0.0000E+00  0.0000E+00
    -17.297  0.0000E+00  0.0000E+00
    -17.292  0.0000E+00  0.0000E+00
    -17.288  0.0000E+00  0.0000E+00
    -17.283  0.0000E+00  0.0000E+00
    -17.278  0.0000E+00  0.0000E+00
    -17.274  0.0000E+00  0.0000E+00
    -17.269  0.0000E+00  0.0000E+00
    -17.265  0.0000E+00  0.0000E+00
    -17.260  0.0000E+00  0.0000E+00
    -17.255  0.0000E+00  0.0000E+00
    -17.251  0.0000E+00  0.0000E+00
    -17.246  0.0000E+00  0.0000E+00
    -17.241  0.0000E+00  0.0000E+00
    -17.237  0.0000E+00  0.0000E+00
    -17.232  0.0000E+00  0.0000E+00
    -17.227  0.0000E+00  0.0000E+00
    -17.223  0.0000E+00  0.0000E+00
    -17.218  0.0000E+00  0.0000E+00
    -17.214  0.0000E+00  0.0000E+00
    -17.209  0.0000E+00  0.0000E+00
    -17.204  0.0000E+00  0.0000E+00
    -17.200  0.0000E+00  0.0000E+00
    -17.195  0.0000E+00  0.0000E+00
    -17.190  0.0000E+00  0.0000E+00
    -17.186  0.0000E+00  0.0000E+00
    -17.181  0.0000E+00  0.0000E+00
    -17.177  0.0000E+00  0.0000E+00
    -17.172  0.0000E+00  0.0000E+00
    -17.167  0.0000E+00  0.0000E+00
    -17.163  0.0000E+00  0.0000E+00
    -17.158  0.0000E+00  0.0000E+00
    -17.153  0.0000E+00  0.0000E+00
    -17.149  0.0000E+00  0.0000E+00
    -17.144  0.0000E+00  0.0000E+00
    -17.140  0.0000E+00  0.0000E+00
    -17.135  0.0000E+00  0.0000E+00
    -17.130  0.0000E+00  0.0000E+00
    -17.126  0.0000E+00  0.0000E+00
    -17.121  0.0000E+00  0.0000E+00
    -17.116  0.0000E+00  0.0000E+00
    -17.112  0.0000E+00  0.0000E+00
    -17.107  0.0000E+00  0.0000E+00
    -17.103  0.0000E+00  0.0000E+00
    -17.098  0.0000E+00  0.0000E+00
    -17.093  0.0000E+00  0.0000E+00
    -17.089  0.0000E+00  0.0000E+00
    -17.084  0.0000E+00  0.0000E+00
    -17.079  0.0000E+00  0.0000E+00
    -17.075  0.0000E+00  0.0000E+00
    -17.070  0.0000E+00  0.0000E+00
    -17.066  0.0000E+00  0.0000E+00
    -17.061  0.0000E+00  0.0000E+00
    -17.056  0.0000E+00  0.0000E+00
    -17.052  0.0000E+00  0.0000E+00
    -17.047  0.0000E+00  0.0000E+00
    -17.042  0.0000E+00  0.0000E+00
    -17.038  0.0000E+00  0.0000E+00
    -17.033  0.0000E+00  0.0000E+00
    -17.029  0.0000E+00  0.0000E+00
    -17.024  0.0000E+00  0.0000E+00
    -17.019  0.0000E+00  0.0000E+00
    -17.015  0.0000E+00  0.0000E+00
    -17.010  0.0000E+00  0.0000E+00
    -17.005  0.0000E+00  0.0000E+00
    -17.001  0.0000E+00  0.0000E+00
    -16.996  0.0000E+00  0.0000E+00
    -16.992  0.0000E+00  0.0000E+00
    -16.987  0.0000E+00  0.0000E+00
    -16.982  0.0000E+00  0.0000E+00
    -16.978  0.0000E+00  0.0000E+00
    -16.973  0.0000E+00  0.0000E+00
    -16.968  0.0000E+00  0.0000E+00
    -16.964  0.0000E+00  0.0000E+00
    -16.959  0.0000E+00  0.0000E+00
    -16.955  0.0000E+00  0.0000E+00
    -16.950  0.0000E+00  0.0000E+00
    -16.945  0.0000E+00  0.0000E+00
    -16.941  0.0000E+00  0.0000E+00
    -16.936  0.0000E+00  0.0000E+00
    -16.931  0.0000E+00  0.0000E+00
    -16.927  0.0000E+00  0.0000E+00
    -16.922  0.0000E+00  0.0000E+00
    -16.918  0.0000E+00  0.0000E+00
    -16.913  0.0000E+00  0.0000E+00
    -16.908  0.0000E+00  0.0000E+00
    -16.904  0.0000E+00  0.0000E+00
    -16.899  0.0000E+00  0.0000E+00
    -16.894  0.0000E+00  0.0000E+00
    -16.890  0.0000E+00  0.0000E+00
    -16.885  0.0000E+00  0.0000E+00
    -16.881  0.0000E+00  0.0000E+00
    -16.876  0.0000E+00  0.0000E+00
    -16.871  0.0000E+00  0.0000E+00
    -16.867  0.0000E+00  0.0000E+00
    -16.862  0.0000E+00  0.0000E+00
    -16.857  0.0000E+00  0.0000E+00
    -16.853  0.0000E+00  0.0000E+00
    -16.848  0.0000E+00  0.0000E+00
    -16.844  0.0000E+00  0.0000E+00
    -16.839  0.0000E+00  0.0000E+00
    -16.834  0.0000E+00  0.0000E+00
    -16.830  0.0000E+00  0.0000E+00
    -16.825  0.0000E+00  0.0000E+00
    -16.820  0.0000E+00  0.0000E+00
    -16.816  0.0000E+00  0.0000E+00
    -16.811  0.0000E+00  0.0000E+00
    -16.807  0.0000E+00  0.0000E+00
    -16.802  0.0000E+00  0.0000E+00
    -16.797  0.0000E+00  0.0000E+00
    -16.793  0.0000E+00  0.0000E+00
    -16.788  0.0000E+00  0.0000E+00
    -16.783  0.0000E+00  0.0000E+00
    -16.779  0.0000E+00  0.0000E+00
    -16.774  0.0000E+00  0.0000E+00
    -16.770  0.0000E+00  0.0000E+00
    -16.765  0.0000E+00  0.0000E+00
    -16.760  0.0000E+00  0.0000E+00
    -16.756  0.0000E+00  0.0000E+00
    -16.751  0.0000E+00  0.0000E+00
    -16.746  0.0000E+00  0.0000E+00
    -16.742  0.0000E+00  0.0000E+00
    -16.737  0.0000E+00  0.0000E+00
    -16.733  0.0000E+00  0.0000E+00
    -16.728  0.0000E+00  0.0000E+00
    -16.723  0.0000E+00  0.0000E+00
    -16.719  0.0000E+00  0.0000E+00
    -16.714  0.0000E+00  0.0000E+00
    -16.709  0.0000E+00  0.0000E+00
    -16.705  0.0000E+00  0.0000E+00
    -16.700  0.0000E+00  0.0000E+00
    -16.696  0.0000E+00  0.0000E+00
    -16.691  0.0000E+00  0.0000E+00
    -16.686  0.0000E+00  0.0000E+00
    -16.682  0.0000E+00  0.0000E+00
    -16.677  0.0000E+00  0.0000E+00
    -16.672  0.0000E+00  0.0000E+00
    -16.668  0.0000E+00  0.0000E+00
    -16.663  0.0000E+00  0.0000E+00
    -16.659  0.0000E+00  0.0000E+00
    -16.654  0.0000E+00  0.0000E+00
    -16.649  0.0000E+00  0.0000E+00
    -16.645  0.0000E+00  0.0000E+00
    -16.640  0.0000E+00  0.0000E+00
    -16.635  0.0000E+00  0.0000E+00
    -16.631  0.0000E+00  0.0000E+00
    -16.626  0.0000E+00  0.0000E+00
    -16.622  0.0000E+00  0.0000E+00
    -16.617  0.0000E+00  0.0000E+00
    -16.612  0.0000E+00  0.0000E+00
    -16.608  0.0000E+00  0.0000E+00
    -16.603  0.0000E+00  0.0000E+00
    -16.598  0.0000E+00  0.0000E+00
    -16.594  0.0000E+00  0.0000E+00
    -16.589  0.0000E+00  0.0000E+00
    -16.584  0.0000E+00  0.0000E+00
    -16.580  0.0000E+00  0.0000E+00
    -16.575  0.0000E+00  0.0000E+00
    -16.571  0.0000E+00  0.0000E+00
    -16.566  0.0000E+00  0.0000E+00
    -16.561  0.0000E+00  0.0000E+00
    -16.557  0.0000E+00  0.0000E+00
    -16.552  0.0000E+00  0.0000E+00
    -16.547  0.0000E+00  0.0000E+00
    -16.543  0.0000E+00  0.0000E+00
    -16.538  0.0000E+00  0.0000E+00
    -16.534  0.3200E-15  0.1480E-17
    -16.529  0.5472E-13  0.2546E-15
    -16.524  0.7420E-11  0.3458E-13
    -16.520  0.6618E-09  0.3096E-11
    -16.515  0.3890E-07  0.1831E-09
    -16.510  0.1509E-05  0.7165E-08
    -16.506  0.3872E-04  0.1863E-06
    -16.501  0.6580E-03  0.3230E-05
    -16.497  0.7428E-02  0.3759E-04
    -16.492  0.5591E-01  0.2962E-03
    -16.487  0.2820E+00  0.1601E-02
    -16.483  0.9605E+00  0.6044E-02
    -16.478  0.2238E+01  0.1640E-01
    -16.473  0.3646E+01  0.3326E-01
    -16.469  0.4321E+01  0.5325E-01
    -16.464  0.4012E+01  0.7181E-01
    -16.460  0.3265E+01  0.8691E-01
    -16.455  0.2608E+01  0.9898E-01
    -16.450  0.2208E+01  0.1092E+00
    -16.446  0.2008E+01  0.1185E+00
    -16.441  0.1800E+01  0.1268E+00
    -16.436  0.1580E+01  0.1341E+00
    -16.432  0.1568E+01  0.1414E+00
    -16.427  0.1625E+01  0.1489E+00
    -16.423  0.1421E+01  0.1555E+00
    -16.418  0.1134E+01  0.1607E+00
    -16.413  0.1187E+01  0.1662E+00
    -16.409  0.1464E+01  0.1730E+00
    -16.404  0.1444E+01  0.1796E+00
    -16.399  0.1043E+01  0.1845E+00
    -16.395  0.7525E+00  0.1879E+00
    -16.390  0.9369E+00  0.1923E+00
    -16.386  0.1359E+01  0.1986E+00
    -16.381  0.1457E+01  0.2053E+00
    -16.376  0.1062E+01  0.2102E+00
    -16.372  0.5921E+00  0.2130E+00
    -16.367  0.5034E+00  0.2153E+00
    -16.362  0.8751E+00  0.2193E+00
    -16.358  0.1359E+01  0.2256E+00
    -16.353  0.1442E+01  0.2323E+00
    -16.349  0.1018E+01  0.2370E+00
    -16.344  0.5006E+00  0.2393E+00
    -16.339  0.2856E+00  0.2406E+00
    -16.335  0.4897E+00  0.2429E+00
    -16.330  0.1003E+01  0.2475E+00
    -16.325  0.1436E+01  0.2542E+00
    -16.321  0.1364E+01  0.2605E+00
    -16.316  0.8593E+00  0.2645E+00
    -16.312  0.3677E+00  0.2662E+00
    -16.307  0.1637E+00  0.2669E+00
    -16.302  0.2832E+00  0.2682E+00
    -16.298  0.7126E+00  0.2715E+00
    -16.293  0.1258E+01  0.2774E+00
    -16.288  0.1474E+01  0.2842E+00
    -16.284  0.1143E+01  0.2895E+00
    -16.279  0.5866E+00  0.2922E+00
    -16.275  0.2047E+00  0.2931E+00
    -16.270  0.8561E-01  0.2935E+00
    -16.265  0.1934E+00  0.2944E+00
    -16.261  0.5625E+00  0.2970E+00
    -16.256  0.1117E+01  0.3022E+00
    -16.251  0.1470E+01  0.3090E+00
    -16.247  0.1280E+01  0.3149E+00
    -16.242  0.7371E+00  0.3183E+00
    -16.238  0.2813E+00  0.3196E+00
    -16.233  0.7606E-01  0.3200E+00
    -16.228  0.4942E-01  0.3202E+00
    -16.224  0.1762E+00  0.3210E+00
    -16.219  0.5372E+00  0.3235E+00
    -16.214  0.1090E+01  0.3285E+00
    -16.210  0.1464E+01  0.3353E+00
    -16.205  0.1301E+01  0.3413E+00
    -16.201  0.7650E+00  0.3449E+00
    -16.196  0.2975E+00  0.3462E+00
    -16.191  0.7728E-01  0.3466E+00
    -16.187  0.2094E-01  0.3467E+00
    -16.182  0.5325E-01  0.3469E+00
    -16.177  0.2228E+00  0.3480E+00
    -16.173  0.6326E+00  0.3509E+00
    -16.168  0.1189E+01  0.3564E+00
    -16.164  0.1478E+01  0.3632E+00
    -16.159  0.1216E+01  0.3689E+00
    -16.154  0.6617E+00  0.3719E+00
    -16.150  0.2382E+00  0.3730E+00
    -16.145  0.5684E-01  0.3733E+00
    -16.140  0.1117E-01  0.3733E+00
    -16.136  0.1966E-01  0.3734E+00
    -16.131  0.1021E+00  0.3739E+00
    -16.127  0.3670E+00  0.3756E+00
    -16.122  0.8729E+00  0.3796E+00
    -16.117  0.1373E+01  0.3860E+00
    -16.113  0.1429E+01  0.3926E+00
    -16.108  0.9845E+00  0.3972E+00
    -16.103  0.4485E+00  0.3992E+00
    -16.099  0.1351E+00  0.3999E+00
    -16.094  0.2697E-01  0.4000E+00
    -16.090  0.4597E-02  0.4000E+00
    -16.085  0.1031E-01  0.4001E+00
    -16.080  0.6221E-01  0.4003E+00
    -16.076  0.2553E+00  0.4015E+00
    -16.071  0.6927E+00  0.4047E+00
    -16.066  0.1243E+01  0.4105E+00
    -16.062  0.1476E+01  0.4173E+00
    -16.057  0.1160E+01  0.4227E+00
    -16.053  0.6027E+00  0.4255E+00
    -16.048  0.2072E+00  0.4264E+00
    -16.043  0.4707E-01  0.4266E+00
    -16.039  0.7123E-02  0.4267E+00
    -16.034  0.1616E-02  0.4267E+00
    -16.029  0.8897E-02  0.4267E+00
    -16.025  0.5640E-01  0.4270E+00
    -16.020  0.2373E+00  0.4281E+00
    -16.016  0.6601E+00  0.4311E+00
    -16.011  0.1214E+01  0.4367E+00
    -16.006  0.1478E+01  0.4436E+00
    -16.002  0.1190E+01  0.4491E+00
    -15.997  0.6341E+00  0.4520E+00
    -15.992  0.2234E+00  0.4531E+00
    -15.988  0.5204E-01  0.4533E+00
    -15.983  0.8009E-02  0.4533E+00
    -15.979  0.9256E-03  0.4533E+00
    -15.974  0.1577E-02  0.4533E+00
    -15.969  0.1348E-01  0.4534E+00
    -15.965  0.7878E-01  0.4538E+00
    -15.960  0.3040E+00  0.4552E+00
    -15.955  0.7757E+00  0.4588E+00
    -15.951  0.1309E+01  0.4648E+00
    -15.946  0.1462E+01  0.4716E+00
    -15.941  0.1080E+01  0.4766E+00
    -15.937  0.5278E+00  0.4790E+00
    -15.932  0.1706E+00  0.4798E+00
    -15.928  0.3643E-01  0.4800E+00
    -15.923  0.5139E-02  0.4800E+00
    -15.918  0.5034E-03  0.4800E+00
    -15.914  0.4516E-03  0.4800E+00
    -15.909  0.4632E-02  0.4800E+00
    -15.904  0.3349E-01  0.4802E+00
    -15.900  0.1600E+00  0.4809E+00
    -15.895  0.5048E+00  0.4833E+00
    -15.891  0.1053E+01  0.4881E+00
    -15.886  0.1454E+01  0.4949E+00
    -15.881  0.1328E+01  0.5010E+00
    -15.877  0.8029E+00  0.5047E+00
    -15.872  0.3210E+00  0.5062E+00
    -15.867  0.8482E-01  0.5066E+00
    -15.863  0.1481E-01  0.5067E+00
    -15.858  0.1707E-02  0.5067E+00
    -15.854  0.1423E-03  0.5067E+00
    -15.849  0.2388E-03  0.5067E+00
    -15.844  0.2799E-02  0.5067E+00
    -15.840  0.2223E-01  0.5068E+00
    -15.835  0.1166E+00  0.5073E+00
    -15.830  0.4039E+00  0.5092E+00
    -15.826  0.9252E+00  0.5135E+00
    -15.821  0.1402E+01  0.5200E+00
    -15.817  0.1406E+01  0.5265E+00
    -15.812  0.9325E+00  0.5308E+00
    -15.807  0.4092E+00  0.5327E+00
    -15.803  0.1187E+00  0.5332E+00
    -15.798  0.2276E-01  0.5333E+00
    -15.793  0.2880E-02  0.5333E+00
    -15.789  0.2410E-03  0.5333E+00
    -15.784  0.2915E-04  0.5333E+00
    -15.780  0.2830E-03  0.5333E+00
    -15.775  0.3301E-02  0.5333E+00
    -15.770  0.2544E-01  0.5335E+00
    -15.766  0.1294E+00  0.5341E+00
    -15.761  0.4351E+00  0.5361E+00
    -15.756  0.9671E+00  0.5406E+00
    -15.752  0.1422E+01  0.5471E+00
    -15.747  0.1383E+01  0.5535E+00
    -15.743  0.8905E+00  0.5576E+00
    -15.738  0.3792E+00  0.5594E+00
    -15.733  0.1067E+00  0.5599E+00
    -15.729  0.1985E-01  0.5600E+00
    -15.724  0.2437E-02  0.5600E+00
    -15.719  0.1974E-03  0.5600E+00
    -15.715  0.1274E-04  0.5600E+00
    -15.710  0.5119E-04  0.5600E+00
    -15.706  0.7670E-03  0.5600E+00
    -15.701  0.7631E-02  0.5600E+00
    -15.696  0.5009E-01  0.5603E+00
    -15.692  0.2171E+00  0.5613E+00
    -15.687  0.6220E+00  0.5642E+00
    -15.682  0.1179E+01  0.5696E+00
    -15.678  0.1477E+01  0.5764E+00
    -15.673  0.1225E+01  0.5821E+00
    -15.669  0.6725E+00  0.5852E+00
    -15.664  0.2441E+00  0.5863E+00
    -15.659  0.5856E-01  0.5866E+00
    -15.655  0.9278E-02  0.5867E+00
    -15.650  0.9700E-03  0.5867E+00
    -15.645  0.6687E-04  0.5867E+00
    -15.641  0.3875E-05  0.5867E+00
    -15.636  0.2181E-04  0.5867E+00
    -15.632  0.3692E-03  0.5867E+00
    -15.627  0.4136E-02  0.5867E+00
    -15.622  0.3056E-01  0.5868E+00
    -15.618  0.1491E+00  0.5875E+00
    -15.613  0.4806E+00  0.5897E+00
    -15.608  0.1025E+01  0.5945E+00
    -15.604  0.1445E+01  0.6012E+00
    -15.599  0.1348E+01  0.6074E+00
    -15.595  0.8323E+00  0.6113E+00
    -15.590  0.3399E+00  0.6128E+00
    -15.585  0.9176E-01  0.6132E+00
    -15.581  0.1636E-01  0.6133E+00
    -15.576  0.1926E-02  0.6133E+00
    -15.571  0.1495E-03  0.6133E+00
    -15.567  0.7672E-05  0.6133E+00
    -15.562  0.1282E-05  0.6133E+00
    -15.558  0.2583E-04  0.6133E+00
    -15.553  0.4287E-03  0.6133E+00
    -15.548  0.4689E-02  0.6134E+00
    -15.544  0.3384E-01  0.6135E+00
    -15.539  0.1612E+00  0.6143E+00
    -15.534  0.5075E+00  0.6166E+00
    -15.530  0.1057E+01  0.6215E+00
    -15.525  0.1455E+01  0.6282E+00
    -15.521  0.1326E+01  0.6344E+00
    -15.516  0.7996E+00  0.6381E+00
    -15.511  0.3189E+00  0.6395E+00
    -15.507  0.8408E-01  0.6399E+00
    -15.502  0.1464E-01  0.6400E+00
    -15.497  0.1683E-02  0.6400E+00
    -15.493  0.1276E-03  0.6400E+00
    -15.488  0.6371E-05  0.6400E+00
    -15.484  0.3388E-06  0.6400E+00
    -15.479  0.4172E-05  0.6400E+00
    -15.474  0.8818E-04  0.6400E+00
    -15.470  0.1229E-02  0.6400E+00
    -15.465  0.1129E-01  0.6401E+00
    -15.460  0.6845E-01  0.6404E+00
    -15.456  0.2741E+00  0.6416E+00
    -15.451  0.7257E+00  0.6450E+00
    -15.447  0.1271E+01  0.6509E+00
    -15.442  0.1472E+01  0.6577E+00
    -15.437  0.1128E+01  0.6629E+00
    -15.433  0.5721E+00  0.6656E+00
    -15.428  0.1918E+00  0.6664E+00
    -15.423  0.4252E-01  0.6666E+00
    -15.419  0.6222E-02  0.6667E+00
    -15.414  0.6008E-03  0.6667E+00
    -15.410  0.3823E-04  0.6667E+00
    -15.405  0.1603E-05  0.6667E+00
    -15.400  0.1052E-06  0.6667E+00
    -15.396  0.2139E-05  0.6667E+00
    -15.391  0.4924E-04  0.6667E+00
    -15.386  0.7465E-03  0.6667E+00
    -15.382  0.7460E-02  0.6667E+00
    -15.377  0.4919E-01  0.6669E+00
    -15.373  0.2142E+00  0.6679E+00
    -15.368  0.6164E+00  0.6708E+00
    -15.363  0.1173E+01  0.6762E+00
    -15.359  0.1477E+01  0.6830E+00
    -15.354  0.1231E+01  0.6887E+00
    -15.349  0.6784E+00  0.6919E+00
    -15.345  0.2473E+00  0.6930E+00
    -15.340  0.5960E-01  0.6933E+00
    -15.336  0.9485E-02  0.6933E+00
    -15.331  0.9961E-03  0.6933E+00
    -15.326  0.6896E-04  0.6933E+00
    -15.322  0.3144E-05  0.6933E+00
    -15.317  0.9691E-07  0.6933E+00
    -15.312  0.1294E-06  0.6933E+00
    -15.308  0.4109E-05  0.6933E+00
    -15.303  0.8709E-04  0.6933E+00
    -15.298  0.1216E-02  0.6933E+00
    -15.294  0.1119E-01  0.6934E+00
    -15.289  0.6798E-01  0.6937E+00
    -15.285  0.2727E+00  0.6950E+00
    -15.280  0.7233E+00  0.6983E+00
    -15.275  0.1269E+01  0.7042E+00
    -15.271  0.1472E+01  0.7110E+00
    -15.266  0.1130E+01  0.7162E+00
    -15.261  0.5743E+00  0.7189E+00
    -15.257  0.1929E+00  0.7198E+00
    -15.252  0.4284E-01  0.7200E+00
    -15.248  0.6280E-02  0.7200E+00
    -15.243  0.6075E-03  0.7200E+00
    -15.238  0.3873E-04  0.7200E+00
    -15.234  0.1626E-05  0.7200E+00
    -15.229  0.4542E-07  0.7200E+00
    -15.224  0.3177E-07  0.7200E+00
    -15.220  0.1168E-05  0.7200E+00
    -15.215  0.2898E-04  0.7200E+00
    -15.211  0.4734E-03  0.7200E+00
    -15.206  0.5097E-02  0.7200E+00
    -15.201  0.3620E-01  0.7202E+00
    -15.197  0.1697E+00  0.7210E+00
    -15.192  0.5260E+00  0.7234E+00
    -15.187  0.1078E+01  0.7284E+00
    -15.183  0.1461E+01  0.7352E+00
    -15.178  0.1311E+01  0.7412E+00
    -15.174  0.7778E+00  0.7448E+00
    -15.169  0.3053E+00  0.7462E+00
    -15.164  0.7924E-01  0.7466E+00
    -15.160  0.1358E-01  0.7467E+00
    -15.155  0.1537E-02  0.7467E+00
    -15.150  0.1146E-03  0.7467E+00
    -15.146  0.5631E-05  0.7467E+00
    -15.141  0.1821E-06  0.7467E+00
    -15.137  0.4598E-08  0.7467E+00
    -15.132  0.4068E-07  0.7467E+00
    -15.127  0.1488E-05  0.7467E+00
    -15.123  0.3583E-04  0.7467E+00
    -15.118  0.5682E-03  0.7467E+00
    -15.113  0.5939E-02  0.7467E+00
    -15.109  0.4095E-01  0.7469E+00
    -15.104  0.1865E+00  0.7477E+00
    -15.100  0.5611E+00  0.7503E+00
    -15.095  0.1116E+01  0.7555E+00
    -15.090  0.1470E+01  0.7623E+00
    -15.086  0.1280E+01  0.7682E+00
    -15.081  0.7379E+00  0.7716E+00
    -15.076  0.2813E+00  0.7729E+00
    -15.072  0.7087E-01  0.7733E+00
    -15.067  0.1180E-01  0.7733E+00
    -15.063  0.1296E-02  0.7733E+00
    -15.058  0.9381E-04  0.7733E+00
    -15.053  0.4474E-05  0.7733E+00
    -15.049  0.1404E-06  0.7733E+00
    -15.044  0.3000E-08  0.7733E+00
    -15.039  0.6989E-08  0.7733E+00
    -15.035  0.3077E-06  0.7733E+00
    -15.030  0.8954E-05  0.7733E+00
    -15.026  0.1715E-03  0.7733E+00
    -15.021  0.2164E-02  0.7733E+00
    -15.016  0.1801E-01  0.7734E+00
    -15.012  0.9891E-01  0.7739E+00
    -15.007  0.3589E+00  0.7755E+00
    -15.002  0.8609E+00  0.7795E+00
    -14.998  0.1366E+01  0.7858E+00
    -14.993  0.1434E+01  0.7925E+00
    -14.989  0.9963E+00  0.7971E+00
    -14.984  0.4579E+00  0.7992E+00
    -14.979  0.1391E+00  0.7999E+00
    -14.975  0.2793E-01  0.8000E+00
    -14.970  0.3703E-02  0.8000E+00
    -14.965  0.3238E-03  0.8000E+00
    -14.961  0.1865E-04  0.8000E+00
    -14.956  0.7074E-06  0.8000E+00
    -14.952  0.1764E-07  0.8000E+00
    -14.947  0.4208E-09  0.8000E+00
    -14.942  0.8673E-08  0.8000E+00
    -14.938  0.3750E-06  0.8000E+00
    -14.933  0.1066E-04  0.8000E+00
    -14.928  0.1996E-03  0.8000E+00
    -14.924  0.2461E-02  0.8000E+00
    -14.919  0.2001E-01  0.8001E+00
    -14.915  0.1074E+00  0.8006E+00
    -14.910  0.3808E+00  0.8024E+00
    -14.905  0.8928E+00  0.8065E+00
    -14.901  0.1385E+01  0.8129E+00
    -14.896  0.1421E+01  0.8195E+00
    -14.891  0.9647E+00  0.8239E+00
    -14.887  0.4333E+00  0.8259E+00
    -14.882  0.1287E+00  0.8265E+00
    -14.878  0.2525E-01  0.8267E+00
    -14.873  0.3270E-02  0.8267E+00
    -14.868  0.2794E-03  0.8267E+00
    -14.864  0.1573E-04  0.8267E+00
    -14.859  0.5828E-06  0.8267E+00
    -14.854  0.1420E-07  0.8267E+00
    -14.850  0.2489E-09  0.8267E+00
    -14.845  0.1683E-08  0.8267E+00
    -14.841  0.8613E-07  0.8267E+00
    -14.836  0.2901E-05  0.8267E+00
    -14.831  0.6428E-04  0.8267E+00
    -14.827  0.9380E-03  0.8267E+00
    -14.822  0.9022E-02  0.8267E+00
    -14.817  0.5727E-01  0.8270E+00
    -14.813  0.2401E+00  0.8281E+00
    -14.808  0.6652E+00  0.8312E+00
    -14.804  0.1219E+01  0.8368E+00
    -14.799  0.1478E+01  0.8436E+00
    -14.794  0.1185E+01  0.8491E+00
    -14.790  0.6292E+00  0.8520E+00
    -14.785  0.2209E+00  0.8531E+00
    -14.780  0.5124E-01  0.8533E+00
    -14.776  0.7850E-02  0.8533E+00
    -14.771  0.7935E-03  0.8533E+00
    -14.767  0.5288E-04  0.8533E+00
    -14.762  0.2320E-05  0.8533E+00
    -14.757  0.6697E-07  0.8533E+00
    -14.753  0.1271E-08  0.8533E+00
    -14.748  0.6323E-10  0.8533E+00
    -14.743  0.3438E-08  0.8533E+00
    -14.739  0.1637E-06  0.8533E+00
    -14.734  0.5127E-05  0.8533E+00
    -14.730  0.1056E-03  0.8533E+00
    -14.725  0.1433E-02  0.8533E+00
    -14.720  0.1282E-01  0.8534E+00
    -14.716  0.7572E-01  0.8538E+00
    -14.711  0.2953E+00  0.8551E+00
    -14.706  0.7614E+00  0.8586E+00
    -14.702  0.1298E+01  0.8646E+00
    -14.697  0.1465E+01  0.8714E+00
    -14.693  0.1094E+01  0.8765E+00
    -14.688  0.5402E+00  0.8790E+00
    -14.683  0.1764E+00  0.8798E+00
    -14.679  0.3808E-01  0.8800E+00
    -14.674  0.5427E-02  0.8800E+00
    -14.669  0.5103E-03  0.8800E+00
    -14.665  0.3162E-04  0.8800E+00
    -14.660  0.1290E-05  0.8800E+00
    -14.655  0.3461E-07  0.8800E+00
    -14.651  0.6104E-09  0.8800E+00
    -14.646  0.2542E-10  0.8800E+00
    -14.642  0.1454E-08  0.8800E+00
    -14.637  0.7558E-07  0.8800E+00
    -14.632  0.2583E-05  0.8800E+00
    -14.628  0.5809E-04  0.8800E+00
    -14.623  0.8601E-03  0.8800E+00
    -14.618  0.8394E-02  0.8800E+00
    -14.614  0.5406E-01  0.8803E+00
    -14.609  0.2299E+00  0.8814E+00
    -14.605  0.6464E+00  0.8843E+00
    -14.600  0.1202E+01  0.8899E+00
    -14.595  0.1478E+01  0.8967E+00
    -14.591  0.1203E+01  0.9023E+00
    -14.586  0.6478E+00  0.9053E+00
    -14.581  0.2307E+00  0.9064E+00
    -14.577  0.5430E-01  0.9066E+00
    -14.572  0.8441E-02  0.9067E+00
    -14.568  0.8658E-03  0.9067E+00
    -14.563  0.5854E-04  0.9067E+00
    -14.558  0.2606E-05  0.9067E+00
    -14.554  0.7635E-07  0.9067E+00
    -14.549  0.1470E-08  0.9067E+00
    -14.544  0.1998E-10  0.9067E+00
    -14.540  0.1398E-09  0.9067E+00
    -14.535  0.9141E-08  0.9067E+00
    -14.531  0.3931E-06  0.9067E+00
    -14.526  0.1112E-04  0.9067E+00
    -14.521  0.2069E-03  0.9067E+00
    -14.517  0.2537E-02  0.9067E+00
    -14.512  0.2052E-01  0.9068E+00
    -14.507  0.1095E+00  0.9073E+00
    -14.503  0.3862E+00  0.9091E+00
    -14.498  0.9005E+00  0.9132E+00
    -14.494  0.1389E+01  0.9197E+00
    -14.489  0.1417E+01  0.9262E+00
    -14.484  0.9571E+00  0.9306E+00
    -14.480  0.4275E+00  0.9326E+00
    -14.475  0.1263E+00  0.9332E+00
    -14.470  0.2464E-01  0.9333E+00
    -14.466  0.3174E-02  0.9333E+00
    -14.461  0.2697E-03  0.9333E+00
    -14.457  0.1510E-04  0.9333E+00
    -14.452  0.5563E-06  0.9333E+00
    -14.447  0.1348E-07  0.9333E+00
    -14.443  0.2146E-09  0.9333E+00
    -14.438  0.5313E-11  0.9333E+00
    -14.433  0.2859E-09  0.9333E+00
    -14.429  0.1746E-07  0.9333E+00
    -14.424  0.7010E-06  0.9333E+00
    -14.420  0.1850E-04  0.9333E+00
    -14.415  0.3215E-03  0.9333E+00
    -14.410  0.3682E-02  0.9334E+00
    -14.406  0.2780E-01  0.9335E+00
    -14.401  0.1386E+00  0.9341E+00
    -14.396  0.4567E+00  0.9362E+00
    -14.392  0.9949E+00  0.9408E+00
    -14.387  0.1434E+01  0.9475E+00
    -14.383  0.1367E+01  0.9538E+00
    -14.378  0.8624E+00  0.9578E+00
    -14.373  0.3599E+00  0.9594E+00
    -14.369  0.9930E-01  0.9599E+00
    -14.364  0.1810E-01  0.9600E+00
    -14.359  0.2177E-02  0.9600E+00
    -14.355  0.1727E-03  0.9600E+00
    -14.350  0.9028E-05  0.9600E+00
    -14.346  0.3105E-06  0.9600E+00
    -14.341  0.7023E-08  0.9600E+00
    -14.336  0.1043E-09  0.9600E+00
    -14.332  0.3173E-11  0.9600E+00
    -14.327  0.2070E-09  0.9600E+00
    -14.322  0.1305E-07  0.9600E+00
    -14.318  0.5403E-06  0.9600E+00
    -14.313  0.1471E-04  0.9600E+00
    -14.309  0.2638E-03  0.9600E+00
    -14.304  0.3115E-02  0.9600E+00
    -14.299  0.2426E-01  0.9601E+00
    -14.295  0.1248E+00  0.9607E+00
    -14.290  0.4239E+00  0.9627E+00
    -14.285  0.9523E+00  0.9671E+00
    -14.281  0.1415E+01  0.9736E+00
    -14.276  0.1391E+01  0.9801E+00
    -14.272  0.9053E+00  0.9842E+00
    -14.267  0.3896E+00  0.9860E+00
    -14.262  0.1109E+00  0.9866E+00
    -14.258  0.2084E-01  0.9867E+00
    -14.253  0.2586E-02  0.9867E+00
    -14.248  0.2116E-03  0.9867E+00
    -14.244  0.1141E-04  0.9867E+00
    -14.239  0.4048E-06  0.9867E+00
    -14.235  0.9446E-08  0.9867E+00
    -14.230  0.1448E-09  0.9867E+00
    -14.225  0.2082E-11  0.9867E+00
    -14.221  0.6688E-10  0.9867E+00
    -14.216  0.4695E-08  0.9867E+00
    -14.211  0.2165E-06  0.9867E+00
    -14.207  0.6565E-05  0.9867E+00
    -14.202  0.1310E-03  0.9867E+00
    -14.198  0.1721E-02  0.9867E+00
    -14.193  0.1492E-01  0.9867E+00
    -14.188  0.8531E-01  0.9871E+00
    -14.184  0.3223E+00  0.9886E+00
    -14.179  0.8050E+00  0.9924E+00
    -14.174  0.1330E+01  0.9985E+00
    -14.170  0.1454E+01  0.1005E+01
    -14.165  0.1051E+01  0.1010E+01
    -14.161  0.5030E+00  0.1012E+01
    -14.156  0.1591E+00  0.1013E+01
    -14.151  0.3327E-01  0.1013E+01
    -14.147  0.4593E-02  0.1013E+01
    -14.142  0.4183E-03  0.1013E+01
    -14.137  0.2510E-04  0.1013E+01
    -14.133  0.9915E-06  0.1013E+01
    -14.128  0.2576E-07  0.1013E+01
    -14.124  0.4398E-09  0.1013E+01
    -14.119  0.5028E-11  0.1013E+01
    -14.114  0.1237E-10  0.1013E+01
    -14.110  0.1013E-08  0.1013E+01
    -14.105  0.5464E-07  0.1013E+01
    -14.100  0.1936E-05  0.1013E+01
    -14.096  0.4514E-04  0.1013E+01
    -14.091  0.6929E-03  0.1013E+01
    -14.087  0.7011E-02  0.1013E+01
    -14.082  0.4683E-01  0.1014E+01
    -14.077  0.2068E+00  0.1015E+01
    -14.073  0.6073E+00  0.1017E+01
    -14.068  0.1205E+01  0.1023E+01
    -14.063  0.1710E+01  0.1031E+01
    -14.059  0.2035E+01  0.1040E+01
    -14.054  0.2529E+01  0.1052E+01
    -14.050  0.3269E+01  0.1067E+01
    -14.045  0.3716E+01  0.1084E+01
    -14.040  0.3523E+01  0.1101E+01
    -14.036  0.2977E+01  0.1114E+01
    -14.031  0.2495E+01  0.1126E+01
    -14.026  0.2153E+01  0.1136E+01
    -14.022  0.1866E+01  0.1144E+01
    -14.017  0.1731E+01  0.1152E+01
    -14.012  0.1723E+01  0.1160E+01
    -14.008  0.1556E+01  0.1168E+01
    -14.003  0.1289E+01  0.1174E+01
    -13.999  0.1295E+01  0.1180E+01
    -13.994  0.1508E+01  0.1187E+01
    -13.989  0.1449E+01  0.1193E+01
    -13.985  0.1065E+01  0.1198E+01
    -13.980  0.8524E+00  0.1202E+01
    -13.975  0.1116E+01  0.1207E+01
    -13.971  0.1565E+01  0.1215E+01
    -13.966  0.1790E+01  0.1223E+01
    -13.962  0.1847E+01  0.1231E+01
    -13.957  0.1965E+01  0.1240E+01
    -13.952  0.2082E+01  0.1250E+01
    -13.948  0.2080E+01  0.1260E+01
    -13.943  0.1885E+01  0.1268E+01
    -13.938  0.1393E+01  0.1275E+01
    -13.934  0.7660E+00  0.1278E+01
    -13.929  0.3673E+00  0.1280E+01
    -13.925  0.4024E+00  0.1282E+01
    -13.920  0.8337E+00  0.1286E+01