   2   2   1   0
  0.9013366E+02  0.3606893E-09  0.3606893E-09  0.1600000E-08  0.5000000E-15
  1.000000000000000E-004
  CAR 
 unknown system                          
      9.91048083    -17.73152717 6001     -2.97069489      1.00000000
    -17.732  0.0000E+00  0.0000E+00
    -17.727  0.0000E+00  0.0000E+00
    -17.722  0.0000E+00  0.0000E+00
    -17.718  0.0000E+00  0.0000E+00
    -17.713  0.0000E+00  0.0000E+00
    -17.708  0.0000E+00  0.0000E+00
    -17.704  0.0000E+00  0.0000E+00
    -17.699  0.0000E+00  0.0000E+00
    -17.695  0.0000E+00  0.0000E+00
    -17.690  0.0000E+00  0.0000E+00
    -17.685  0.0000E+00  0.0000E+00
    -17.681  0.0000E+00  0.0000E+00
    -17.676  0.0000E+00  0.0000E+00
    -17.672  0.0000E+00  0.0000E+00
    -17.667  0.0000E+00  0.0000E+00
    -17.662  0.0000E+00  0.0000E+00
    -17.658  0.0000E+00  0.0000E+00
    -17.653  0.0000E+00  0.0000E+00
    -17.649  0.0000E+00  0.0000E+00
    -17.644  0.0000E+00  0.0000E+00
    -17.639  0.0000E+00  0.0000E+00
    -17.635  0.0000E+00  0.0000E+00
    -17.630  0.0000E+00  0.0000E+00
    -17.626  0.0000E+00  0.0000E+00
    -17.621  0.0000E+00  0.0000E+00
    -17.616  0.0000E+00  0.0000E+00
    -17.612  0.0000E+00  0.0000E+00
    -17.607  0.0000E+00  0.0000E+00
    -17.603  0.0000E+00  0.0000E+00
    -17.598  0.0000E+00  0.0000E+00
    -17.593  0.0000E+00  0.0000E+00
    -17.589  0.0000E+00  0.0000E+00
    -17.584  0.0000E+00  0.0000E+00
    -17.579  0.0000E+00  0.0000E+00
    -17.575  0.0000E+00  0.0000E+00
    -17.570  0.0000E+00  0.0000E+00
    -17.566  0.0000E+00  0.0000E+00
    -17.561  0.0000E+00  0.0000E+00
    -17.556  0.0000E+00  0.0000E+00
    -17.552  0.0000E+00  0.0000E+00
    -17.547  0.0000E+00  0.0000E+00
    -17.543  0.0000E+00  0.0000E+00
    -17.538  0.0000E+00  0.0000E+00
    -17.533  0.0000E+00  0.0000E+00
    -17.529  0.0000E+00  0.0000E+00
    -17.524  0.0000E+00  0.0000E+00
    -17.520  0.0000E+00  0.0000E+00
    -17.515  0.0000E+00  0.0000E+00
    -17.510  0.0000E+00  0.0000E+00
    -17.506  0.0000E+00  0.0000E+00
    -17.501  0.0000E+00  0.0000E+00
    -17.497  0.0000E+00  0.0000E+00
    -17.492  0.0000E+00  0.0000E+00
    -17.487  0.0000E+00  0.0000E+00
    -17.483  0.0000E+00  0.0000E+00
    -17.478  0.0000E+00  0.0000E+00
    -17.474  0.0000E+00  0.0000E+00
    -17.469  0.0000E+00  0.0000E+00
    -17.464  0.0000E+00  0.0000E+00
    -17.460  0.0000E+00  0.0000E+00
    -17.455  0.0000E+00  0.0000E+00
    -17.451  0.0000E+00  0.0000E+00
    -17.446  0.0000E+00  0.0000E+00
    -17.441  0.0000E+00  0.0000E+00
    -17.437  0.0000E+00  0.0000E+00
    -17.432  0.0000E+00  0.0000E+00
    -17.427  0.0000E+00  0.0000E+00
    -17.423  0.0000E+00  0.0000E+00
    -17.418  0.0000E+00  0.0000E+00
    -17.414  0.0000E+00  0.0000E+00
    -17.409  0.0000E+00  0.0000E+00
    -17.404  0.0000E+00  0.0000E+00
    -17.400  0.0000E+00  0.0000E+00
    -17.395  0.0000E+00  0.0000E+00
    -17.391  0.0000E+00  0.0000E+00
    -17.386  0.0000E+00  0.0000E+00
    -17.381  0.0000E+00  0.0000E+00
    -17.377  0.0000E+00  0.0000E+00
    -17.372  0.0000E+00  0.0000E+00
    -17.368  0.0000E+00  0.0000E+00
    -17.363  0.0000E+00  0.0000E+00
    -17.358  0.0000E+00  0.0000E+00
    -17.354  0.0000E+00  0.0000E+00
    -17.349  0.0000E+00  0.0000E+00
    -17.345  0.0000E+00  0.0000E+00
    -17.340  0.0000E+00  0.0000E+00
    -17.335  0.0000E+00  0.0000E+00
    -17.331  0.0000E+00  0.0000E+00
    -17.326  0.0000E+00  0.0000E+00
    -17.322  0.0000E+00  0.0000E+00
    -17.317  0.0000E+00  0.0000E+00
    -17.312  0.0000E+00  0.0000E+00
    -17.308  0.0000E+00  0.0000E+00
    -17.303  0.0000E+00  0.0000E+00
    -17.298  0.0000E+00  0.0000E+00
    -17.294  0.0000E+00  0.0000E+00
    -17.289  0.0000E+00  0.0000E+00
    -17.285  0.0000E+00  0.0000E+00
    -17.280  0.0000E+00  0.0000E+00
    -17.275  0.0000E+00  0.0000E+00
    -17.271  0.0000E+00  0.0000E+00
    -17.266  0.0000E+00  0.0000E+00
    -17.262  0.0000E+00  0.0000E+00
    -17.257  0.0000E+00  0.0000E+00
    -17.252  0.0000E+00  0.0000E+00
    -17.248  0.0000E+00  0.0000E+00
    -17.243  0.0000E+00  0.0000E+00
    -17.239  0.0000E+00  0.0000E+00
    -17.234  0.0000E+00  0.0000E+00
    -17.229  0.0000E+00  0.0000E+00
    -17.225  0.0000E+00  0.0000E+00
    -17.220  0.0000E+00  0.0000E+00
    -17.216  0.0000E+00  0.0000E+00
    -17.211  0.0000E+00  0.0000E+00
    -17.206  0.0000E+00  0.0000E+00
    -17.202  0.0000E+00  0.0000E+00
    -17.197  0.0000E+00  0.0000E+00
    -17.193  0.0000E+00  0.0000E+00
    -17.188  0.0000E+00  0.0000E+00
    -17.183  0.0000E+00  0.0000E+00
    -17.179  0.0000E+00  0.0000E+00
    -17.174  0.0000E+00  0.0000E+00
    -17.169  0.0000E+00  0.0000E+00
    -17.165  0.0000E+00  0.0000E+00
    -17.160  0.0000E+00  0.0000E+00
    -17.156  0.0000E+00  0.0000E+00
    -17.151  0.0000E+00  0.0000E+00
    -17.146  0.0000E+00  0.0000E+00
    -17.142  0.0000E+00  0.0000E+00
    -17.137  0.0000E+00  0.0000E+00
    -17.133  0.0000E+00  0.0000E+00
    -17.128  0.0000E+00  0.0000E+00
    -17.123  0.0000E+00  0.0000E+00
    -17.119  0.0000E+00  0.0000E+00
    -17.114  0.0000E+00  0.0000E+00
    -17.110  0.0000E+00  0.0000E+00
    -17.105  0.0000E+00  0.0000E+00
    -17.100  0.0000E+00  0.0000E+00
    -17.096  0.0000E+00  0.0000E+00
    -17.091  0.0000E+00  0.0000E+00
    -17.087  0.0000E+00  0.0000E+00
    -17.082  0.0000E+00  0.0000E+00
    -17.077  0.0000E+00  0.0000E+00
    -17.073  0.0000E+00  0.0000E+00
    -17.068  0.0000E+00  0.0000E+00
    -17.064  0.0000E+00  0.0000E+00
    -17.059  0.0000E+00  0.0000E+00
    -17.054  0.0000E+00  0.0000E+00
    -17.050  0.0000E+00  0.0000E+00
    -17.045  0.0000E+00  0.0000E+00
    -17.040  0.0000E+00  0.0000E+00
    -17.036  0.0000E+00  0.0000E+00
    -17.031  0.0000E+00  0.0000E+00
    -17.027  0.0000E+00  0.0000E+00
    -17.022  0.0000E+00  0.0000E+00
    -17.017  0.0000E+00  0.0000E+00
    -17.013  0.0000E+00  0.0000E+00
    -17.008  0.0000E+00  0.0000E+00
    -17.004  0.0000E+00  0.0000E+00
    -16.999  0.0000E+00  0.0000E+00
    -16.994  0.0000E+00  0.0000E+00
    -16.990  0.0000E+00  0.0000E+00
    -16.985  0.0000E+00  0.0000E+00
    -16.981  0.0000E+00  0.0000E+00
    -16.976  0.0000E+00  0.0000E+00
    -16.971  0.0000E+00  0.0000E+00
    -16.967  0.0000E+00  0.0000E+00
    -16.962  0.0000E+00  0.0000E+00
    -16.958  0.0000E+00  0.0000E+00
    -16.953  0.0000E+00  0.0000E+00
    -16.948  0.0000E+00  0.0000E+00
    -16.944  0.0000E+00  0.0000E+00
    -16.939  0.0000E+00  0.0000E+00
    -16.935  0.0000E+00  0.0000E+00
    -16.930  0.0000E+00  0.0000E+00
    -16.925  0.0000E+00  0.0000E+00
    -16.921  0.0000E+00  0.0000E+00
    -16.916  0.0000E+00  0.0000E+00
    -16.911  0.0000E+00  0.0000E+00
    -16.907  0.0000E+00  0.0000E+00
    -16.902  0.0000E+00  0.0000E+00
    -16.898  0.0000E+00  0.0000E+00
    -16.893  0.0000E+00  0.0000E+00
    -16.888  0.0000E+00  0.0000E+00
    -16.884  0.0000E+00  0.0000E+00
    -16.879  0.0000E+00  0.0000E+00
    -16.875  0.0000E+00  0.0000E+00
    -16.870  0.0000E+00  0.0000E+00
    -16.865  0.0000E+00  0.0000E+00
    -16.861  0.0000E+00  0.0000E+00
    -16.856  0.0000E+00  0.0000E+00
    -16.852  0.0000E+00  0.0000E+00
    -16.847  0.0000E+00  0.0000E+00
    -16.842  0.0000E+00  0.0000E+00
    -16.838  0.0000E+00  0.0000E+00
    -16.833  0.0000E+00  0.0000E+00
    -16.829  0.0000E+00  0.0000E+00
    -16.824  0.0000E+00  0.0000E+00
    -16.819  0.0000E+00  0.0000E+00
    -16.815  0.0000E+00  0.0000E+00
    -16.810  0.0000E+00  0.0000E+00
    -16.806  0.0000E+00  0.0000E+00
    -16.801  0.0000E+00  0.0000E+00
    -16.796  0.0000E+00  0.0000E+00
    -16.792  0.0000E+00  0.0000E+00
    -16.787  0.0000E+00  0.0000E+00
    -16.782  0.0000E+00  0.0000E+00
    -16.778  0.0000E+00  0.0000E+00
    -16.773  0.0000E+00  0.0000E+00
    -16.769  0.0000E+00  0.0000E+00
    -16.764  0.0000E+00  0.0000E+00
    -16.759  0.0000E+00  0.0000E+00
    -16.755  0.0000E+00  0.0000E+00
    -16.750  0.0000E+00  0.0000E+00
    -16.746  0.0000E+00  0.0000E+00
    -16.741  0.0000E+00  0.0000E+00
    -16.736  0.0000E+00  0.0000E+00
    -16.732  0.0000E+00  0.0000E+00
    -16.727  0.0000E+00  0.0000E+00
    -16.723  0.0000E+00  0.0000E+00
    -16.718  0.0000E+00  0.0000E+00
    -16.713  0.0000E+00  0.0000E+00
    -16.709  0.0000E+00  0.0000E+00
    -16.704  0.0000E+00  0.0000E+00
    -16.700  0.0000E+00  0.0000E+00
    -16.695  0.0000E+00  0.0000E+00
    -16.690  0.0000E+00  0.0000E+00
    -16.686  0.0000E+00  0.0000E+00
    -16.681  0.0000E+00  0.0000E+00
    -16.677  0.0000E+00  0.0000E+00
    -16.672  0.0000E+00  0.0000E+00
    -16.667  0.0000E+00  0.0000E+00
    -16.663  0.0000E+00  0.0000E+00
    -16.658  0.0000E+00  0.0000E+00
    -16.653  0.0000E+00  0.0000E+00
    -16.649  0.0000E+00  0.0000E+00
    -16.644  0.0000E+00  0.0000E+00
    -16.640  0.0000E+00  0.0000E+00
    -16.635  0.0000E+00  0.0000E+00
    -16.630  0.0000E+00  0.0000E+00
    -16.626  0.0000E+00  0.0000E+00
    -16.621  0.0000E+00  0.0000E+00
    -16.617  0.0000E+00  0.0000E+00
    -16.612  0.0000E+00  0.0000E+00
    -16.607  0.0000E+00  0.0000E+00
    -16.603  0.0000E+00  0.0000E+00
    -16.598  0.0000E+00  0.0000E+00
    -16.594  0.0000E+00  0.0000E+00
    -16.589  0.0000E+00  0.0000E+00
    -16.584  0.0000E+00  0.0000E+00
    -16.580  0.0000E+00  0.0000E+00
    -16.575  0.0000E+00  0.0000E+00
    -16.571  0.0000E+00  0.0000E+00
    -16.566  0.0000E+00  0.0000E+00
    -16.561  0.0000E+00  0.0000E+00
    -16.557  0.0000E+00  0.0000E+00
    -16.552  0.0000E+00  0.0000E+00
    -16.548  0.0000E+00  0.0000E+00
    -16.543  0.0000E+00  0.0000E+00
    -16.538  0.0000E+00  0.0000E+00
    -16.534  0.3565E-16  0.1642E-18
    -16.529  0.6916E-14  0.3203E-16
    -16.524  0.8812E-12  0.4092E-14
    -16.520  0.7405E-10  0.3452E-12
    -16.515  0.4099E-08  0.1923E-10
    -16.511  0.1496E-06  0.7086E-09
    -16.506  0.3605E-05  0.1732E-07
    -16.501  0.5736E-04  0.2816E-06
    -16.497  0.6037E-03  0.3063E-05
    -16.492  0.4205E-02  0.2243E-04
    -16.488  0.1941E-01  0.1119E-03
    -16.483  0.5953E-01  0.3861E-03
    -16.478  0.1225E+00  0.9505E-03
    -16.474  0.1782E+00  0.1771E-02
    -16.469  0.2266E+00  0.2815E-02
    -16.465  0.3634E+00  0.4489E-02
    -16.460  0.6598E+00  0.7529E-02
    -16.455  0.9464E+00  0.1189E-01
    -16.451  0.9339E+00  0.1619E-01
    -16.446  0.6157E+00  0.1903E-01
    -16.442  0.2703E+00  0.2027E-01
    -16.437  0.8425E-01  0.2066E-01
    -16.432  0.5241E-01  0.2090E-01
    -16.428  0.1584E+00  0.2163E-01
    -16.423  0.4358E+00  0.2364E-01
    -16.419  0.8069E+00  0.2736E-01
    -16.414  0.1009E+01  0.3200E-01
    -16.409  0.9143E+00  0.3622E-01
    -16.405  0.7831E+00  0.3982E-01
    -16.400  0.8719E+00  0.4384E-01
    -16.395  0.1009E+01  0.4849E-01
    -16.391  0.8808E+00  0.5255E-01
    -16.386  0.5233E+00  0.5496E-01
    -16.382  0.2073E+00  0.5591E-01
    -16.377  0.5449E-01  0.5616E-01
    -16.372  0.9498E-02  0.5621E-01
    -16.368  0.1189E-02  0.5621E-01
    -16.363  0.1422E-02  0.5622E-01
    -16.359  0.1263E-01  0.5628E-01
    -16.354  0.7881E-01  0.5664E-01
    -16.349  0.3260E+00  0.5814E-01
    -16.345  0.8945E+00  0.6226E-01
    -16.340  0.1628E+01  0.6977E-01
    -16.336  0.1968E+01  0.7883E-01
    -16.331  0.1578E+01  0.8610E-01
    -16.326  0.8405E+00  0.8997E-01
    -16.322  0.2992E+00  0.9135E-01
    -16.317  0.8754E-01  0.9176E-01
    -16.313  0.1006E+00  0.9222E-01
    -16.308  0.2982E+00  0.9359E-01
    -16.303  0.6521E+00  0.9660E-01
    -16.299  0.9496E+00  0.1010E+00
    -16.294  0.9180E+00  0.1052E+00
    -16.290  0.5891E+00  0.1079E+00
    -16.285  0.2509E+00  0.1091E+00
    -16.280  0.7088E-01  0.1094E+00
    -16.276  0.1327E-01  0.1095E+00
    -16.271  0.1680E-02  0.1095E+00
    -16.267  0.6430E-03  0.1095E+00
    -16.262  0.5024E-02  0.1095E+00
    -16.257  0.3279E-01  0.1096E+00
    -16.253  0.1421E+00  0.1103E+00
    -16.248  0.4085E+00  0.1122E+00
    -16.243  0.7837E+00  0.1158E+00
    -16.239  0.1029E+01  0.1205E+00
    -16.234  0.1042E+01  0.1253E+00
    -16.230  0.1138E+01  0.1306E+00
    -16.225  0.1577E+01  0.1378E+00
    -16.220  0.1979E+01  0.1470E+00
    -16.216  0.1777E+01  0.1551E+00
    -16.211  0.1074E+01  0.1601E+00
    -16.207  0.4323E+00  0.1621E+00
    -16.202  0.1154E+00  0.1626E+00
    -16.197  0.2042E-01  0.1627E+00
    -16.193  0.2453E-02  0.1627E+00
    -16.188  0.1019E-02  0.1627E+00
    -16.184  0.7585E-02  0.1628E+00
    -16.179  0.4557E-01  0.1630E+00
    -16.174  0.1816E+00  0.1638E+00
    -16.170  0.4802E+00  0.1660E+00
    -16.165  0.8423E+00  0.1699E+00
    -16.161  0.9808E+00  0.1744E+00
    -16.156  0.7581E+00  0.1779E+00
    -16.151  0.3889E+00  0.1797E+00
    -16.147  0.1324E+00  0.1803E+00
    -16.142  0.2988E-01  0.1805E+00
    -16.138  0.4490E-02  0.1805E+00
    -16.133  0.8367E-03  0.1805E+00
    -16.128  0.4564E-02  0.1805E+00
    -16.124  0.3450E-01  0.1807E+00
    -16.119  0.1738E+00  0.1815E+00
    -16.114  0.5805E+00  0.1841E+00
    -16.110  0.1286E+01  0.1901E+00
    -16.105  0.1891E+01  0.1988E+00
    -16.101  0.1846E+01  0.2073E+00
    -16.096  0.1196E+01  0.2128E+00
    -16.091  0.5165E+00  0.2152E+00
    -16.087  0.1652E+00  0.2159E+00
    -16.082  0.1342E+00  0.2165E+00
    -16.078  0.4108E+00  0.2184E+00
    -16.073  0.1034E+01  0.2232E+00
    -16.068  0.1742E+01  0.2312E+00
    -16.064  0.1947E+01  0.2402E+00
    -16.059  0.1445E+01  0.2469E+00
    -16.055  0.7121E+00  0.2501E+00
    -16.050  0.2327E+00  0.2512E+00
    -16.045  0.5043E-01  0.2514E+00
    -16.041  0.7239E-02  0.2515E+00
    -16.036  0.6879E-03  0.2515E+00
    -16.032  0.4323E-04  0.2515E+00
    -16.027  0.2325E-05  0.2515E+00
    -16.022  0.1370E-04  0.2515E+00
    -16.018  0.2314E-03  0.2515E+00
    -16.013  0.2594E-02  0.2515E+00
    -16.009  0.1925E-01  0.2516E+00
    -16.004  0.9459E-01  0.2520E+00
    -15.999  0.3082E+00  0.2534E+00
    -15.995  0.6660E+00  0.2565E+00
    -15.990  0.9553E+00  0.2609E+00
    -15.985  0.9097E+00  0.2651E+00
    -15.981  0.5751E+00  0.2677E+00
    -15.976  0.2424E+00  0.2689E+00
    -15.972  0.7726E-01  0.2692E+00
    -15.967  0.6986E-01  0.2695E+00
    -15.962  0.2172E+00  0.2705E+00
    -15.958  0.5379E+00  0.2730E+00
    -15.953  0.9006E+00  0.2772E+00
    -15.949  0.1065E+01  0.2821E+00
    -15.944  0.1083E+01  0.2871E+00
    -15.939  0.1326E+01  0.2932E+00
    -15.935  0.1814E+01  0.3015E+00
    -15.930  0.1981E+01  0.3106E+00
    -15.926  0.1495E+01  0.3175E+00
    -15.921  0.7551E+00  0.3210E+00
    -15.916  0.2533E+00  0.3222E+00
    -15.912  0.5638E-01  0.3224E+00
    -15.907  0.8365E-02  0.3225E+00
    -15.903  0.1636E-02  0.3225E+00
    -15.898  0.8478E-02  0.3225E+00
    -15.893  0.5700E-01  0.3228E+00
    -15.889  0.2554E+00  0.3240E+00
    -15.884  0.7591E+00  0.3275E+00
    -15.880  0.1497E+01  0.3344E+00
    -15.875  0.1958E+01  0.3434E+00
    -15.870  0.1701E+01  0.3512E+00
    -15.866  0.9810E+00  0.3557E+00
    -15.861  0.3753E+00  0.3575E+00
    -15.856  0.9524E-01  0.3579E+00
    -15.852  0.1602E-01  0.3580E+00
    -15.847  0.1783E-02  0.3580E+00
    -15.843  0.1314E-03  0.3580E+00
    -15.838  0.6393E-05  0.3580E+00
    -15.833  0.2055E-06  0.3580E+00
    -15.829  0.4445E-08  0.3580E+00
    -15.824  0.5908E-08  0.3580E+00
    -15.820  0.2490E-06  0.3580E+00
    -15.815  0.6994E-05  0.3580E+00
    -15.810  0.1297E-03  0.3580E+00
    -15.806  0.1591E-02  0.3580E+00
    -15.801  0.1291E-01  0.3581E+00
    -15.797  0.6936E-01  0.3584E+00
    -15.792  0.2471E+00  0.3595E+00
    -15.787  0.5852E+00  0.3622E+00
    -15.783  0.9305E+00  0.3665E+00
    -15.778  0.1046E+01  0.3713E+00
    -15.774  0.1029E+01  0.3761E+00
    -15.769  0.1276E+01  0.3819E+00
    -15.764  0.1788E+01  0.3902E+00
    -15.760  0.1978E+01  0.3993E+00
    -15.755  0.1505E+01  0.4062E+00
    -15.751  0.7666E+00  0.4097E+00
    -15.746  0.2719E+00  0.4110E+00
    -15.741  0.1415E+00  0.4117E+00
    -15.737  0.3495E+00  0.4133E+00
    -15.732  0.9221E+00  0.4175E+00
    -15.727  0.1652E+01  0.4251E+00
    -15.723  0.1966E+01  0.4342E+00
    -15.718  0.1553E+01  0.4413E+00
    -15.714  0.8145E+00  0.4451E+00
    -15.709  0.2834E+00  0.4464E+00
    -15.704  0.6539E-01  0.4467E+00
    -15.700  0.9995E-02  0.4467E+00
    -15.695  0.1011E-02  0.4467E+00
    -15.691  0.6780E-04  0.4467E+00
    -15.686  0.6656E-05  0.4467E+00
    -15.681  0.8086E-04  0.4467E+00
    -15.677  0.1177E-02  0.4468E+00
    -15.672  0.1134E-01  0.4468E+00
    -15.668  0.7235E-01  0.4471E+00
    -15.663  0.3058E+00  0.4485E+00
    -15.658  0.8572E+00  0.4525E+00
    -15.654  0.1594E+01  0.4598E+00
    -15.649  0.1968E+01  0.4689E+00
    -15.645  0.1613E+01  0.4763E+00
    -15.640  0.8773E+00  0.4804E+00
    -15.635  0.3166E+00  0.4818E+00
    -15.631  0.7579E-01  0.4822E+00
    -15.626  0.1202E-01  0.4822E+00
    -15.622  0.1262E-02  0.4822E+00
    -15.617  0.8763E-04  0.4822E+00
    -15.612  0.4021E-05  0.4822E+00
    -15.608  0.1218E-06  0.4822E+00
    -15.603  0.2577E-08  0.4822E+00
    -15.598  0.8910E-08  0.4822E+00
    -15.594  0.3617E-06  0.4822E+00
    -15.589  0.9722E-05  0.4822E+00
    -15.585  0.1726E-03  0.4822E+00
    -15.580  0.2026E-02  0.4823E+00
    -15.575  0.1573E-01  0.4823E+00
    -15.571  0.8098E-01  0.4827E+00
    -15.566  0.2769E+00  0.4840E+00
    -15.562  0.6345E+00  0.4869E+00
    -15.557  0.1009E+01  0.4916E+00
    -15.552  0.1267E+01  0.4974E+00
    -15.548  0.1641E+01  0.5049E+00
    -15.543  0.2371E+01  0.5159E+00
    -15.539  0.2960E+01  0.5295E+00
    -15.534  0.2656E+01  0.5417E+00
    -15.529  0.1620E+01  0.5492E+00
    -15.525  0.6615E+00  0.5523E+00
    -15.520  0.1803E+00  0.5531E+00
    -15.516  0.3279E-01  0.5532E+00
    -15.511  0.4710E-02  0.5533E+00
    -15.506  0.8149E-02  0.5533E+00
    -15.502  0.5375E-01  0.5535E+00
    -15.497  0.2443E+00  0.5547E+00
    -15.493  0.7362E+00  0.5581E+00
    -15.488  0.1472E+01  0.5648E+00
    -15.483  0.1954E+01  0.5738E+00
    -15.479  0.1721E+01  0.5818E+00
    -15.474  0.1007E+01  0.5864E+00
    -15.469  0.3906E+00  0.5882E+00
    -15.465  0.1005E+00  0.5887E+00
    -15.460  0.1715E-01  0.5887E+00
    -15.456  0.1936E-02  0.5888E+00
    -15.451  0.1447E-03  0.5888E+00
    -15.446  0.7143E-05  0.5888E+00
    -15.442  0.2330E-06  0.5888E+00
    -15.437  0.1299E-07  0.5888E+00
    -15.433  0.3537E-06  0.5888E+00
    -15.428  0.1034E-04  0.5888E+00
    -15.423  0.1996E-03  0.5888E+00
    -15.419  0.2546E-02  0.5888E+00
    -15.414  0.2149E-01  0.5889E+00
    -15.410  0.1202E+00  0.5894E+00
    -15.405  0.4451E+00  0.5915E+00
    -15.400  0.1094E+01  0.5965E+00
    -15.396  0.1784E+01  0.6047E+00
    -15.391  0.1931E+01  0.6136E+00
    -15.387  0.1387E+01  0.6200E+00
    -15.382  0.6616E+00  0.6231E+00
    -15.377  0.2093E+00  0.6240E+00
    -15.373  0.4390E-01  0.6242E+00
    -15.368  0.6100E-02  0.6243E+00
    -15.364  0.5610E-03  0.6243E+00
    -15.359  0.3415E-04  0.6243E+00
    -15.354  0.2963E-05  0.6243E+00
    -15.350  0.3898E-04  0.6243E+00
    -15.345  0.6288E-03  0.6243E+00
    -15.340  0.6714E-02  0.6243E+00
    -15.336  0.4745E-01  0.6245E+00
    -15.331  0.2221E+00  0.6255E+00
    -15.327  0.6895E+00  0.6287E+00
    -15.322  0.1420E+01  0.6353E+00
    -15.317  0.1941E+01  0.6442E+00
    -15.313  0.1761E+01  0.6523E+00
    -15.308  0.1062E+01  0.6572E+00
    -15.304  0.4410E+00  0.6592E+00
    -15.299  0.2131E+00  0.6602E+00
    -15.294  0.4120E+00  0.6621E+00
    -15.290  0.1019E+01  0.6668E+00
    -15.285  0.1777E+01  0.6750E+00
    -15.281  0.2161E+01  0.6849E+00
    -15.276  0.1994E+01  0.6941E+00
    -15.271  0.1611E+01  0.7016E+00
    -15.267  0.1216E+01  0.7072E+00
    -15.262  0.7702E+00  0.7107E+00
    -15.258  0.3584E+00  0.7124E+00
    -15.253  0.1146E+00  0.7129E+00
    -15.248  0.2455E-01  0.7130E+00
    -15.244  0.3635E-02  0.7130E+00
    -15.239  0.2231E-02  0.7130E+00
    -15.235  0.1691E-01  0.7131E+00
    -15.230  0.9934E-01  0.7136E+00
    -15.225  0.3872E+00  0.7153E+00
    -15.221  0.1001E+01  0.7200E+00
    -15.216  0.1717E+01  0.7279E+00
    -15.211  0.1955E+01  0.7369E+00
    -15.207  0.1477E+01  0.7437E+00
    -15.202  0.7412E+00  0.7471E+00
    -15.198  0.2467E+00  0.7482E+00
    -15.193  0.5444E-01  0.7485E+00
    -15.188  0.7960E-02  0.7485E+00
    -15.184  0.7703E-03  0.7485E+00
    -15.179  0.4930E-04  0.7485E+00
    -15.175  0.2084E-05  0.7485E+00
    -15.170  0.5815E-07  0.7485E+00
    -15.165  0.1070E-08  0.7485E+00
    -15.161  0.3009E-10  0.7485E+00
    -15.156  0.1377E-08  0.7485E+00
    -15.152  0.7300E-07  0.7485E+00
    -15.147  0.2552E-05  0.7485E+00
    -15.142  0.5886E-04  0.7485E+00
    -15.138  0.8971E-03  0.7485E+00
    -15.133  0.9043E-02  0.7486E+00
    -15.129  0.6033E-01  0.7488E+00
    -15.124  0.2667E+00  0.7501E+00
    -15.119  0.7817E+00  0.7537E+00
    -15.115  0.1520E+01  0.7607E+00
    -15.110  0.1962E+01  0.7697E+00
    -15.106  0.1681E+01  0.7775E+00
    -15.101  0.9562E+00  0.7819E+00
    -15.096  0.3609E+00  0.7835E+00
    -15.092  0.9118E-01  0.7840E+00
    -15.087  0.2270E-01  0.7841E+00
    -15.083  0.4791E-01  0.7843E+00
    -15.078  0.1842E+00  0.7851E+00
    -15.073  0.4885E+00  0.7874E+00
    -15.069  0.8816E+00  0.7914E+00
    -15.064  0.1162E+01  0.7968E+00
    -15.059  0.1353E+01  0.8030E+00
    -15.055  0.1695E+01  0.8108E+00
    -15.050  0.2032E+01  0.8202E+00
    -15.046  0.1862E+01  0.8288E+00
    -15.041  0.1177E+01  0.8342E+00
    -15.036  0.4983E+00  0.8365E+00
    -15.032  0.1403E+00  0.8371E+00
    -15.027  0.2742E-01  0.8373E+00
    -15.023  0.1509E-01  0.8373E+00
    -15.018  0.7524E-01  0.8377E+00
    -15.013  0.3141E+00  0.8391E+00
    -15.009  0.8727E+00  0.8432E+00
    -15.004  0.1609E+01  0.8506E+00
    -15.000  0.1970E+01  0.8596E+00
    -14.995  0.1615E+01  0.8671E+00
    -14.990  0.9466E+00  0.8714E+00
    -14.986  0.5933E+00  0.8742E+00
    -14.981  0.7094E+00  0.8774E+00
    -14.977  0.9540E+00  0.8818E+00
    -14.972  0.9280E+00  0.8861E+00
    -14.967  0.6051E+00  0.8889E+00
    -14.963  0.2621E+00  0.8901E+00
    -14.958  0.7532E-01  0.8905E+00
    -14.954  0.1437E-01  0.8905E+00
    -14.949  0.2204E-02  0.8905E+00
    -14.944  0.4681E-02  0.8906E+00
    -14.940  0.3447E-01  0.8907E+00
    -14.935  0.1737E+00  0.8915E+00
    -14.930  0.5802E+00  0.8942E+00
    -14.926  0.1286E+01  0.9001E+00
    -14.921  0.1891E+01  0.9088E+00
    -14.917  0.1846E+01  0.9173E+00
    -14.912  0.1197E+01  0.9228E+00
    -14.907  0.5147E+00  0.9252E+00
    -14.903  0.1468E+00  0.9259E+00
    -14.898  0.2777E-01  0.9260E+00
    -14.894  0.3478E-02  0.9260E+00
    -14.889  0.2882E-03  0.9260E+00
    -14.884  0.1579E-04  0.9260E+00
    -14.880  0.5712E-06  0.9260E+00
    -14.875  0.1363E-07  0.9260E+00
    -14.871  0.2145E-09  0.9260E+00
    -14.866  0.2249E-11  0.9260E+00
    -14.861  0.3708E-11  0.9260E+00
    -14.857  0.3408E-09  0.9260E+00
    -14.852  0.2072E-07  0.9260E+00
    -14.848  0.8303E-06  0.9260E+00
    -14.843  0.2195E-04  0.9260E+00
    -14.838  0.3834E-03  0.9260E+00
    -14.834  0.4427E-02  0.9261E+00
    -14.829  0.3383E-01  0.9262E+00
    -14.825  0.1712E+00  0.9270E+00
    -14.820  0.5743E+00  0.9296E+00
    -14.815  0.1279E+01  0.9355E+00
    -14.811  0.1893E+01  0.9443E+00
    -14.806  0.1893E+01  0.9530E+00
    -14.801  0.1407E+01  0.9595E+00
    -14.797  0.1168E+01  0.9648E+00
    -14.792  0.1519E+01  0.9718E+00
    -14.788  0.1953E+01  0.9808E+00
    -14.783  0.1801E+01  0.9891E+00
    -14.778  0.1133E+01  0.9944E+00
    -14.774  0.5773E+00  0.9970E+00
    -14.769  0.5716E+00  0.9997E+00
    -14.765  0.1120E+01  0.1005E+01
    -14.760  0.1789E+01  0.1013E+01
    -14.755  0.1930E+01  0.1022E+01
    -14.751  0.1384E+01  0.1028E+01
    -14.746  0.6588E+00  0.1031E+01
    -14.742  0.2081E+00  0.1032E+01
    -14.737  0.4356E-01  0.1033E+01
    -14.732  0.6085E-02  0.1033E+01
    -14.728  0.1237E-02  0.1033E+01
    -14.723  0.7222E-02  0.1033E+01
    -14.719  0.5014E-01  0.1033E+01
    -14.714  0.2317E+00  0.1034E+01
    -14.709  0.7099E+00  0.1037E+01
    -14.705  0.1443E+01  0.1044E+01
    -14.700  0.1947E+01  0.1053E+01
    -14.696  0.1745E+01  0.1061E+01
    -14.691  0.1050E+01  0.1066E+01
    -14.686  0.4809E+00  0.1068E+01
    -14.682  0.3607E+00  0.1070E+01
    -14.677  0.6117E+00  0.1072E+01
    -14.672  0.9224E+00  0.1077E+01
    -14.668  0.9480E+00  0.1081E+01
    -14.663  0.6481E+00  0.1084E+01
    -14.659  0.2941E+00  0.1085E+01
    -14.654  0.8851E-01  0.1086E+01
    -14.649  0.1768E-01  0.1086E+01
    -14.645  0.2601E-02  0.1086E+01
    -14.640  0.3457E-02  0.1086E+01
    -14.636  0.2630E-01  0.1086E+01
    -14.631  0.1407E+00  0.1087E+01
    -14.626  0.4991E+00  0.1089E+01
    -14.622  0.1174E+01  0.1094E+01
    -14.617  0.1834E+01  0.1103E+01
    -14.613  0.1901E+01  0.1111E+01
    -14.608  0.1308E+01  0.1118E+01
    -14.603  0.5973E+00  0.1120E+01
    -14.599  0.1810E+00  0.1121E+01
    -14.594  0.3634E-01  0.1121E+01
    -14.590  0.4834E-02  0.1121E+01
    -14.585  0.4256E-03  0.1121E+01
    -14.580  0.2477E-04  0.1121E+01
    -14.576  0.9522E-06  0.1121E+01
    -14.571  0.2415E-07  0.1121E+01
    -14.567  0.4039E-09  0.1121E+01
    -14.562  0.4566E-11  0.1121E+01
    -14.557  0.1450E-10  0.1121E+01
    -14.553  0.1182E-08  0.1121E+01
    -14.548  0.6368E-07  0.1121E+01
    -14.543  0.2263E-05  0.1121E+01
    -14.539  0.5315E-04  0.1121E+01
    -14.534  0.8260E-03  0.1121E+01
    -14.530  0.8519E-02  0.1121E+01
    -14.525  0.5849E-01  0.1122E+01
    -14.520  0.2687E+00  0.1123E+01
    -14.516  0.8329E+00  0.1127E+01
    -14.511  0.1764E+01  0.1135E+01
    -14.507  0.2619E+01  0.1147E+01
    -14.502  0.2884E+01  0.1160E+01
    -14.497  0.2683E+01  0.1173E+01
    -14.493  0.2508E+01  0.1184E+01
    -14.488  0.2339E+01  0.1195E+01
    -14.484  0.1804E+01  0.1203E+01
    -14.479  0.1003E+01  0.1208E+01
    -14.474  0.3942E+00  0.1210E+01
    -14.470  0.1879E+00  0.1210E+01
    -14.465  0.3821E+00  0.1212E+01
    -14.461  0.9667E+00  0.1217E+01
    -14.456  0.1688E+01  0.1224E+01
    -14.451  0.1961E+01  0.1234E+01
    -14.447  0.1512E+01  0.1240E+01
    -14.442  0.7736E+00  0.1244E+01
    -14.438  0.2627E+00  0.1245E+01
    -14.433  0.5913E-01  0.1246E+01
    -14.428  0.8867E-02  0.1246E+01
    -14.424  0.1612E-02  0.1246E+01
    -14.419  0.7761E-02  0.1246E+01
    -14.414  0.5303E-01  0.1246E+01
    -14.410  0.2418E+00  0.1247E+01
    -14.405  0.7316E+00  0.1250E+01
    -14.401  0.1472E+01  0.1257E+01
    -14.396  0.1986E+01  0.1266E+01
    -14.391  0.1869E+01  0.1275E+01
    -14.387  0.1423E+01  0.1281E+01
    -14.382  0.1175E+01  0.1287E+01
    -14.378  0.1085E+01  0.1292E+01
    -14.373  0.8397E+00  0.1296E+01
    -14.368  0.4584E+00  0.1298E+01
    -14.364  0.1683E+00  0.1299E+01
    -14.359  0.4108E-01  0.1299E+01
    -14.355  0.6678E-02  0.1299E+01
    -14.350  0.1223E-02  0.1299E+01
    -14.345  0.5692E-02  0.1299E+01
    -14.341  0.4120E-01  0.1299E+01
    -14.336  0.1993E+00  0.1300E+01
    -14.332  0.6394E+00  0.1303E+01
    -14.327  0.1361E+01  0.1309E+01
    -14.322  0.1921E+01  0.1318E+01
    -14.318  0.1801E+01  0.1326E+01
    -14.313  0.1121E+01  0.1331E+01
    -14.309  0.4630E+00  0.1334E+01
    -14.304  0.1268E+00  0.1334E+01
    -14.299  0.2302E-01  0.1334E+01
    -14.295  0.2768E-02  0.1334E+01
    -14.290  0.2202E-03  0.1334E+01
    -14.285  0.1158E-04  0.1334E+01
    -14.281  0.4037E-06  0.1334E+01
    -14.276  0.1014E-06  0.1334E+01
    -14.272  0.3140E-05  0.1334E+01
    -14.267  0.7058E-04  0.1334E+01
    -14.262  0.1048E-02  0.1334E+01
    -14.258  0.1030E-01  0.1334E+01
    -14.253  0.6697E-01  0.1335E+01
    -14.249  0.2886E+00  0.1336E+01
    -14.244  0.8245E+00  0.1340E+01
    -14.239  0.1563E+01  0.1347E+01
    -14.235  0.1967E+01  0.1356E+01
    -14.230  0.1643E+01  0.1364E+01
    -14.226  0.9114E+00  0.1368E+01
    -14.221  0.3412E+00  0.1369E+01
    -14.216  0.1258E+00  0.1370E+01
    -14.212  0.2235E+00  0.1371E+01
    -14.207  0.6681E+00  0.1374E+01
    -14.203  0.1418E+01  0.1381E+01
    -14.198  0.2085E+01  0.1390E+01
    -14.193  0.2315E+01  0.1401E+01
    -14.189  0.2314E+01  0.1412E+01
    -14.184  0.2304E+01  0.1422E+01
    -14.180  0.2004E+01  0.1431E+01
    -14.175  0.1317E+01  0.1437E+01
    -14.170  0.7401E+00  0.1441E+01
    -14.166  0.7603E+00  0.1444E+01
    -14.161  0.1385E+01  0.1451E+01
    -14.156  0.2126E+01  0.1461E+01
    -14.152  0.2402E+01  0.1472E+01
    -14.147  0.2093E+01  0.1481E+01
    -14.143  0.1487E+01  0.1488E+01
    -14.138  0.9094E+00  0.1492E+01
    -14.133  0.6798E+00  0.1495E+01
    -14.129  0.1006E+01  0.1500E+01
    -14.124  0.1656E+01  0.1508E+01
    -14.120  0.1970E+01  0.1517E+01
    -14.115  0.1572E+01  0.1524E+01
    -14.110  0.8377E+00  0.1528E+01
    -14.106  0.3255E+00  0.1529E+01
    -14.101  0.2334E+00  0.1530E+01
    -14.097  0.5701E+00  0.1533E+01
    -14.092  0.1260E+01  0.1539E+01
    -14.087  0.1879E+01  0.1548E+01
    -14.083  0.1870E+01  0.1556E+01
    -14.078  0.1285E+01  0.1562E+01
    -14.074  0.8043E+00  0.1566E+01
    -14.069  0.9519E+00  0.1570E+01
    -14.064  0.1611E+01  0.1578E+01
    -14.060  0.2144E+01  0.1587E+01
    -14.055  0.2041E+01  0.1597E+01
    -14.051  0.1440E+01  0.1604E+01
    -14.046  0.7944E+00  0.1607E+01
    -14.041  0.3481E+00  0.1609E+01
    -14.037  0.1166E+00  0.1609E+01
    -14.032  0.2821E-01  0.1609E+01
    -14.027  0.4720E-02  0.1609E+01
    -14.023  0.5462E-03  0.1609E+01
    -14.018  0.2640E-03  0.1609E+01
    -14.014  0.2524E-02  0.1609E+01
    -14.009  0.1881E-01  0.1610E+01
    -14.004  0.9293E-01  0.1610E+01
    -14.000  0.3044E+00  0.1611E+01
    -13.995  0.6612E+00  0.1614E+01
    -13.991  0.9534E+00  0.1619E+01
    -13.986  0.9126E+00  0.1623E+01
    -13.981  0.5798E+00  0.1626E+01
    -13.977  0.2445E+00  0.1627E+01
    -13.972  0.6843E-01  0.1627E+01
    -13.968  0.1346E-01  0.1627E+01
    -13.963  0.9636E-02  0.1627E+01
    -13.958  0.5523E-01  0.1628E+01
    -13.954  0.2490E+00  0.1629E+01
    -13.949  0.7459E+00  0.1632E+01
    -13.945  0.1482E+01  0.1639E+01
    -13.940  0.1956E+01  0.1648E+01
    -13.935  0.1717E+01  0.1656E+01
    -13.931  0.1031E+01  0.1661E+01