    2    2    1    1
  0.9013366E+02  0.3606893E-09  0.3606893E-09  0.1600000E-08  0.5000000E-15
  1.000000000000000E-004
  CAR 
 unknown system                          
     10     70     16
 
  0.0000000E+00  0.0000000E+00  0.0000000E+00  0.1479290E-02
      1        -16.475072   1.000000
      2        -10.187286   1.000000
      3         -3.562951   1.000000
      4         -3.014127   1.000000
      5         -3.014126   1.000000
      6         -1.091975   0.000000
      7          0.476894   0.000000
      8          0.476895   0.000000
      9          1.903381   0.000000
     10          1.996515   0.000000
     11          3.376032   0.000000
     12          4.304063   0.000000
     13          5.864140   0.000000
     14          6.885255   0.000000
     15          7.068905   0.000000
     16          7.068905   0.000000
 
  0.3846154E-01  0.6938894E-17  0.0000000E+00  0.8875740E-02
      1        -16.455450   1.000000
      2        -10.184175   1.000000
      3         -3.553081   1.000000
      4         -3.264004   1.000000
      5         -3.061116   1.000000
      6         -0.876632   0.000000
      7          0.424702   0.000000
      8          0.525597   0.000000
      9          1.931558   0.000000
     10          2.020999   0.000000
     11          3.398824   0.000000
     12          4.327638   0.000000
     13          5.952836   0.000000
     14          6.559561   0.000000
     15          7.043267   0.000000
     16          7.301138   0.000000
 
  0.7692308E-01  0.1387779E-16  0.0000000E+00  0.8875740E-02
      1        -16.396682   1.000000
      2        -10.176802   1.000000
      3         -3.804347   1.000000
      4         -3.525019   1.000000
      5         -3.191351   1.000000
      6         -0.507991   0.000000
      7          0.355184   0.000000
      8          0.657834   0.000000
      9          2.015833   0.000000
     10          2.092419   0.000000
     11          3.461979   0.000000
     12          4.397586   0.000000
     13          6.038948   0.000000
     14          6.241161   0.000000
     15          6.992067   0.000000
     16          7.426643   0.000000
 
  0.1153846E+00 -0.6938894E-17  0.0000000E+00  0.8875740E-02
      1        -16.299130   1.000000
      2        -10.171392   1.000000
      3         -4.420399   1.000000
      4         -3.483450   1.000000
      5         -3.379673   1.000000
      6         -0.447634   0.000000
      7          0.549437   0.000000
      8          0.840218   0.000000
      9          2.145357   0.000000
     10          2.215505   0.000000
     11          3.556108   0.000000
     12          4.509438   0.000000
     13          5.621750   0.000000
     14          6.460727   0.000000
     15          6.968159   0.000000
     16          7.264168   0.000000
 
  0.1538462E+00  0.1387779E-16  0.0000000E+00  0.8875740E-02
      1        -16.163436   1.000000
      2        -10.179269   1.000000
      3         -5.025509   1.000000
      4         -3.599041   1.000000
      5         -3.437888   1.000000
      6         -0.674593   0.000000
      7          0.924448   0.000000
      8          1.035007   0.000000
      9          2.287481   0.000000
     10          2.404229   0.000000
     11          3.677596   0.000000
     12          4.643406   0.000000
     13          5.318517   0.000000
     14          6.481293   0.000000
     15          7.019665   0.000000
     16          7.230898   0.000000
 
  0.1923077E+00  0.0000000E+00  0.0000000E+00  0.8875740E-02
      1        -15.990632   1.000000
      2        -10.217596   1.000000
      3         -5.573391   1.000000
      4         -3.828126   1.000000
      5         -3.404745   1.000000
      6         -0.954145   0.000000
      7          1.210414   0.000000
      8          1.212693   0.000000
      9          2.431910   0.000000
     10          2.627612   0.000000
     11          3.835449   0.000000
     12          4.756233   0.000000
     13          5.287376   0.000000
     14          6.281060   0.000000
     15          7.179368   0.000000
     16          7.383144   0.000000
 
  0.2307692E+00 -0.1387779E-16  0.0000000E+00  0.8875740E-02
      1        -15.782317   1.000000
      2        -10.308458   1.000000
      3         -6.028115   1.000000
      4         -4.051735   1.000000
      5         -3.408950   1.000000
      6         -1.198343   0.000000
      7          1.310358   0.000000
      8          1.346233   0.000000
      9          2.596522   0.000000
     10          2.858512   0.000000
     11          4.027451   0.000000
     12          4.895466   0.000000
     13          5.460402   0.000000
     14          6.149613   0.000000
     15          7.464255   0.000000
     16          7.531794   0.000000
 
  0.2692308E+00  0.2775558E-16  0.0000000E+00  0.8875740E-02
      1        -15.540892   1.000000
      2        -10.472919   1.000000
      3         -6.360866   1.000000
      4         -4.259045   1.000000
      5         -3.479345   1.000000
      6         -1.359887   0.000000
      7          1.208607   0.000000
      8          1.436300   0.000000
      9          2.825548   0.000000
     10          3.102384   0.000000
     11          4.196361   0.000000
     12          5.122694   0.000000
     13          5.546830   0.000000
     14          6.382226   0.000000
     15          7.555113   0.000000
     16          7.876189   0.000000
 
  0.3076923E+00  0.2775558E-16  0.0000000E+00  0.8875740E-02
      1        -15.270210   1.000000
      2        -10.719657   1.000000
      3         -6.558086   1.000000
      4         -4.442898   1.000000
      5         -3.630868   1.000000
      6         -1.417330   0.000000
      7          0.988640   0.000000
      8          1.485556   0.000000
      9          3.129923   0.000000
     10          3.343335   0.000000
     11          4.286093   0.000000
     12          5.366483   0.000000
     13          5.657697   0.000000
     14          6.898968   0.000000
     15          7.404871   0.000000
     16          8.404199   0.000000
 
  0.3461538E+00 -0.2775558E-16  0.0000000E+00  0.8875740E-02
      1        -14.976729   1.000000
      2        -11.036233   1.000000
      3         -6.629881   1.000000
      4         -4.598422   1.000000
      5         -3.849262   1.000000
      6         -1.382567   0.000000
      7          0.735029   0.000000
      8          1.504671   0.000000
      9          3.494371   0.000000
     10          3.506972   0.000000
     11          4.359968   0.000000
     12          5.574860   0.000000
     13          5.969189   0.000000
     14          7.085592   0.000000
     15          7.542640   0.000000
     16          8.126963   0.000000
 
  0.3846154E+00  0.0000000E+00  0.0000000E+00  0.8875740E-02
      1        -14.672146   1.000000
      2        -11.390701   1.000000
      3         -6.605900   1.000000
      4         -4.722180   1.000000
      5         -4.098413   1.000000
      6         -1.289425   0.000000
      7          0.497581   0.000000
      8          1.505998   0.000000
      9          3.502638   0.000000
     10          3.909796   0.000000
     11          4.572177   0.000000
     12          5.795473   0.000000
     13          6.379511   0.000000
     14          6.894491   0.000000
     15          7.397162   0.000000
     16          7.966860   0.000000
 
  0.4230769E+00  0.0000000E+00  0.0000000E+00  0.8875740E-02
      1        -14.379640   1.000000
      2        -11.736876   1.000000
      3         -6.528253   1.000000
      4         -4.811986   1.000000
      5         -4.335032   1.000000
      6         -1.177138   0.000000
      7          0.303199   0.000000
      8          1.499441   0.000000
      9          3.398945   0.000000
     10          4.366815   0.000000
     11          4.917640   0.000000
     12          5.959694   0.000000
     13          6.651423   0.000000
     14          6.838924   0.000000
     15          6.938725   0.000000
     16          7.565123   0.000000
 
  0.4615385E+00 -0.2775558E-16  0.0000000E+00  0.8875740E-02
      1        -14.146514   1.000000
      2        -12.009348   1.000000
      3         -6.446614   1.000000
      4         -4.866472   1.000000
      5         -4.510884   1.000000
      6         -1.084715   0.000000
      7          0.172110   0.000000
      8          1.492503   0.000000
      9          3.301838   0.000000
     10          4.855493   0.000000
     11          5.299044   0.000000
     12          5.906187   0.000000
     13          6.230366   0.000000
     14          6.721820   0.000000
     15          7.318916   0.000000
     16          7.371144   0.000000
 
  0.5000000E+00  0.0000000E+00  0.0000000E+00  0.4437870E-02
      1        -14.051792   1.000000
      2        -12.118277   1.000000
      3         -6.411300   1.000000
      4         -4.884732   1.000000
      5         -4.577227   1.000000
      6         -1.048248   0.000000
      7          0.124873   0.000000
      8          1.489667   0.000000
      9          3.264378   0.000000
     10          5.268940   0.000000
     11          5.406285   0.000000
     12          5.709488   0.000000
     13          6.050668   0.000000
     14          6.590074   0.000000
     15          7.363864   0.000000
     16          7.823037   0.000000
 
  0.3846154E-01  0.3846154E-01  0.0000000E+00  0.8875740E-02
      1        -16.416250   1.000000
      2        -10.178915   1.000000
      3         -3.640941   1.000000
      4         -3.534129   1.000000
      5         -3.158289   1.000000
      6         -0.577501   0.000000
      7          0.324438   0.000000
      8          0.639133   0.000000
      9          1.988461   0.000000
     10          2.068352   0.000000
     11          3.441587   0.000000
     12          4.374472   0.000000
     13          6.078430   0.000000
     14          6.266853   0.000000
     15          6.967606   0.000000
     16          7.510518   0.000000
 
  0.7692308E-01  0.3846154E-01  0.0000000E+00  0.1775148E-01
      1        -16.338085   1.000000
      2        -10.172442   1.000000
      3         -4.185871   1.000000
      4         -3.499873   1.000000
      5         -3.336572   1.000000
      6         -0.301829   0.000000
      7          0.257341   0.000000
      8          0.851979   0.000000
      9          2.100868   0.000000
     10          2.160906   0.000000
     11          3.518867   0.000000
     12          4.466225   0.000000
     13          5.775131   0.000000
     14          6.408877   0.000000
     15          6.853141   0.000000
     16          7.413232   0.000000
 
  0.1153846E+00  0.3846154E-01  0.0000000E+00  0.1775148E-01
      1        -16.221444   1.000000
      2        -10.173410   1.000000
      3         -4.770554   1.000000
      4         -3.566533   1.000000
      5         -3.451134   1.000000
      6         -0.418745   0.000000
      7          0.506391   0.000000
      8          1.106343   0.000000
      9          2.243082   0.000000
     10          2.313212   0.000000
     11          3.622502   0.000000
     12          4.594178   0.000000
     13          5.405170   0.000000
     14          6.543413   0.000000
     15          6.872583   0.000000
     16          7.300544   0.000000
 
  0.1538462E+00  0.3846154E-01  0.0000000E+00  0.1775148E-01
      1        -16.067145   1.000000
      2        -10.195946   1.000000
      3         -5.329539   1.000000
      4         -3.809097   1.000000
      5         -3.410883   1.000000
      6         -0.692264   0.000000
      7          0.818205   0.000000
      8          1.334824   0.000000
      9          2.384694   0.000000
     10          2.523178   0.000000
     11          3.753669   0.000000
     12          4.725152   0.000000
     13          5.220096   0.000000
     14          6.414971   0.000000
     15          7.085390   0.000000
     16          7.307651   0.000000
 
  0.1923077E+00  0.3846154E-01  0.0000000E+00  0.1775148E-01
      1        -15.876488   1.000000
      2        -10.259796   1.000000
      3         -5.819522   1.000000
      4         -4.051422   1.000000
      5         -3.391661   1.000000
      6         -0.961651   0.000000
      7          1.054590   0.000000
      8          1.459143   0.000000
      9          2.532223   0.000000
     10          2.751047   0.000000
     11          3.924408   0.000000
     12          4.835732   0.000000
     13          5.304885   0.000000
     14          6.242745   0.000000
     15          7.333334   0.000000
     16          7.446560   0.000000
 
  0.2307692E+00  0.3846154E-01  0.0000000E+00  0.1775148E-01
      1        -15.651401   1.000000
      2        -10.387197   1.000000
      3         -6.205776   1.000000
      4         -4.279051   1.000000
      5         -3.421553   1.000000
      6         -1.171046   0.000000
      7          1.190689   0.000000
      8          1.431552   0.000000
      9          2.722915   0.000000
     10          2.992277   0.000000
     11          4.115124   0.000000
     12          5.012681   0.000000
     13          5.481973   0.000000
     14          6.220986   0.000000
     15          7.507469   0.000000
     16          7.743748   0.000000
 
  0.2692308E+00  0.3846154E-01  0.0000000E+00  0.1775148E-01
      1        -15.394887   1.000000
      2        -10.593940   1.000000
      3         -6.465037   1.000000
      4         -4.482816   1.000000
      5         -3.525036   1.000000
      6         -1.286468   0.000000
      7          1.134213   0.000000
      8          1.386712   0.000000
      9          2.990146   0.000000
     10          3.245774   0.000000
     11          4.258072   0.000000
     12          5.256305   0.000000
     13          5.589698   0.000000
     14          6.521224   0.000000
     15          7.495446   0.000000
     16          8.199738   0.000000
 
  0.3076923E+00  0.3846154E-01  0.0000000E+00  0.1775148E-01
      1        -15.111881   1.000000
      2        -10.878406   1.000000
      3         -6.595037   1.000000
      4         -4.656189   1.000000
      5         -3.705833   1.000000
      6         -1.300479   0.000000
      7          0.900410   0.000000
      8          1.410064   0.000000
      9          3.326049   0.000000
     10          3.470233   0.000000
     11          4.330522   0.000000
     12          5.479651   0.000000
     13          5.814308   0.000000
     14          6.936891   0.000000
     15          7.430222   0.000000
     16          8.306563   0.000000
 
  0.3461538E+00  0.3846154E-01  0.0000000E+00  0.1775148E-01
      1        -14.810911   1.000000
      2        -11.217969   1.000000
      3         -6.616248   1.000000
      4         -4.793947   1.000000
      5         -3.940647   1.000000
      6         -1.234193   0.000000
      7          0.642752   0.000000
      8          1.426772   0.000000
      9          3.561274   0.000000
     10          3.717136   0.000000
     11          4.459860   0.000000
     12          5.702526   0.000000
     13          6.184176   0.000000
     14          6.969667   0.000000
     15          7.582427   0.000000
     16          7.946764   0.000000
 
  0.3846154E+00  0.3846154E-01  0.0000000E+00  0.1775148E-01
      1        -14.508194   1.000000
      2        -11.574002   1.000000
      3         -6.564867   1.000000
      4         -4.891629   1.000000
      5         -4.191473   1.000000
      6         -1.123164   0.000000
      7          0.410152   0.000000
      8          1.434283   0.000000
      9          3.490894   0.000000
     10          4.154168   0.000000
     11          4.749173   0.000000
     12          5.923972   0.000000
     13          6.617415   0.000000
     14          6.814682   0.000000
     15          7.130694   0.000000
     16          7.805981   0.000000
 
  0.4230769E+00  0.3846154E-01  0.0000000E+00  0.1775148E-01
      1        -14.236837   1.000000
      2        -11.892723   1.000000
      3         -6.485945   1.000000
      4         -4.945644   1.000000
      5         -4.414414   1.000000
      6         -1.006573   0.000000
      7          0.227309   0.000000
      8          1.438237   0.000000
      9          3.374517   0.000000
     10          4.630789   0.000000
     11          5.131038   0.000000
     12          6.020237   0.000000
     13          6.445360   0.000000
     14          6.812407   0.000000
     15          7.115687   0.000000
     16          7.422581   0.000000
 
  0.4615385E+00  0.3846154E-01  0.0000000E+00  0.1775148E-01
      1        -14.061503   1.000000
      2        -12.095186   1.000000
      3         -6.428071   1.000000
      4         -4.961397   1.000000
      5         -4.555434   1.000000
      6         -0.928492   0.000000
      7          0.121381   0.000000
      8          1.440396   0.000000
      9          3.298374   0.000000
     10          5.128518   0.000000
     11          5.462924   0.000000
     12          5.779135   0.000000
     13          6.122929   0.000000
     14          6.656563   0.000000
     15          7.324584   0.000000
     16          7.632514   0.000000
 
  0.7692308E-01  0.7692308E-01  0.0000000E+00  0.8875740E-02
      1        -16.240824   1.000000
      2        -10.172146   1.000000
      3         -4.661583   1.000000
      4         -3.589106   1.000000
      5         -3.455451   1.000000
      6         -0.006948   0.000000
      7          0.033042   0.000000
      8          1.144635   0.000000
      9          2.242476   0.000000
     10          2.268369   0.000000
     11          3.602451   0.000000
     12          4.577229   0.000000
     13          5.446027   0.000000
     14          6.660000   0.000000
     15          6.671262   0.000000
     16          7.377684   0.000000
 
  0.1153846E+00  0.7692308E-01  0.0000000E+00  0.1775148E-01
      1        -16.105527   1.000000
      2        -10.187111   1.000000
      3         -5.159992   1.000000
      4         -3.876803   1.000000
      5         -3.414795   1.000000
      6         -0.255498   0.000000
      7          0.335557   0.000000
      8          1.402696   0.000000
      9          2.390611   0.000000
     10          2.441066   0.000000
     11          3.704296   0.000000
     12          4.719116   0.000000
     13          5.173811   0.000000
     14          6.547128   0.000000
     15          6.950903   0.000000
     16          7.319503   0.000000
 
  0.1538462E+00  0.7692308E-01  0.0000000E+00  0.1775148E-01
      1        -15.933243   1.000000
      2        -10.233962   1.000000
      3         -5.629939   1.000000
      4         -4.168735   1.000000
      5         -3.382958   1.000000
      6         -0.535110   0.000000
      7          0.641465   0.000000
      8          1.561927   0.000000
      9          2.529448   0.000000
     10          2.658286   0.000000
     11          3.829323   0.000000
     12          4.843467   0.000000
     13          5.107366   0.000000
     14          6.446701   0.000000
     15          7.242757   0.000000
     16          7.340548   0.000000
 
  0.1923077E+00  0.7692308E-01  0.0000000E+00  0.1775148E-01
      1        -15.725524   1.000000
      2        -10.333275   1.000000
      3         -6.029644   1.000000
      4         -4.441353   1.000000
      5         -3.382874   1.000000
      6         -0.777289   0.000000
      7          0.882450   0.000000
      8          1.568231   0.000000
      9          2.686860   0.000000
     10          2.898657   0.000000
     11          3.995891   0.000000
     12          4.952358   0.000000
     13          5.279421   0.000000
     14          6.310108   0.000000
     15          7.448783   0.000000
     16          7.605811   0.000000
 
  0.2307692E+00  0.7692308E-01  0.0000000E+00  0.1775148E-01
      1        -15.484735   1.000000
      2        -10.503727   1.000000
      3         -6.327006   1.000000
      4         -4.682230   1.000000
      5         -3.439848   1.000000
      6         -0.947522   0.000000
      7          1.047408   0.000000
      8          1.411286   0.000000
      9          2.910176   0.000000
     10          3.161320   0.000000
     11          4.183068   0.000000
     12          5.147344   0.000000
     13          5.513114   0.000000
     14          6.249369   0.000000
     15          7.549242   0.000000
     16          8.034728   0.000000
 
  0.2692308E+00  0.7692308E-01  0.0000000E+00  0.1775148E-01
      1        -15.214645   1.000000
      2        -10.752101   1.000000
      3         -6.507551   1.000000
      4         -4.883173   1.000000
      5         -3.571311   1.000000
      6         -1.023070   0.000000
      7          1.133773   0.000000
      8          1.171060   0.000000
      9          3.209784   0.000000
     10          3.426654   0.000000
     11          4.322812   0.000000
     12          5.388594   0.000000
     13          5.733352   0.000000
     14          6.417105   0.000000
     15          7.594902   0.000000
     16          8.264826   0.000000
 
  0.3076923E+00  0.7692308E-01  0.0000000E+00  0.1775148E-01
      1        -14.921526   1.000000
      2        -11.066245   1.000000
      3         -6.579840   1.000000
      4         -5.037293   1.000000
      5         -3.773014   1.000000
      6         -1.003749   0.000000
      7          0.864714   0.000000
      8          1.215383   0.000000
      9          3.565509   0.000000
     10          3.629800   0.000000
     11          4.421024   0.000000
     12          5.623118   0.000000
     13          6.038138   0.000000
     14          6.706204   0.000000
     15          7.624624   0.000000
     16          8.036044   0.000000
 
  0.3461538E+00  0.7692308E-01  0.0000000E+00  0.1775148E-01
      1        -14.616790   1.000000
      2        -11.416545   1.000000
      3         -6.572267   1.000000
      4         -5.137575   1.000000
      5         -4.019412   1.000000
      6         -0.910713   0.000000
      7          0.584607   0.000000
      8          1.257946   0.000000
      9          3.634326   0.000000
     10          3.990678   0.000000
     11          4.630928   0.000000
     12          5.876766   0.000000
     13          6.434425   0.000000
     14          6.837394   0.000000
     15          7.393980   0.000000
     16          7.902403   0.000000
 
  0.3846154E+00  0.7692308E-01  0.0000000E+00  0.1775148E-01
      1        -14.323072   1.000000
      2        -11.759477   1.000000
      3         -6.523635   1.000000
      4         -5.178099   1.000000
      5         -4.272207   1.000000
      6         -0.774513   0.000000
      7          0.332676   0.000000
      8          1.291320   0.000000
      9          3.521086   0.000000
     10          4.449200   0.000000
     11          4.982813   0.000000
     12          6.104558   0.000000
     13          6.665961   0.000000
     14          6.860064   0.000000
     15          6.969571   0.000000
     16          7.652789   0.000000
 
  0.4230769E+00  0.7692308E-01  0.0000000E+00  0.1775148E-01
      1        -14.087492   1.000000
      2        -12.031273   1.000000
      3         -6.474124   1.000000
      4         -5.165960   1.000000
      5         -4.481677   1.000000
      6         -0.635297   0.000000
      7          0.132572   0.000000
      8          1.315585   0.000000
      9          3.406792   0.000000
     10          4.946453   0.000000
     11          5.389192   0.000000
     12          6.024387   0.000000
     13          6.313434   0.000000
     14          6.725716   0.000000
     15          7.318280   0.000000
     16          7.431920   0.000000
 
  0.4615385E+00  0.7692308E-01  0.0000000E+00  0.8875740E-02
      1        -13.991134   1.000000
      2        -12.140802   1.000000
      3         -6.453944   1.000000
      4         -5.146287   1.000000
      5         -4.570866   1.000000
      6         -0.566464   0.000000
      7          0.045128   0.000000
      8          1.324945   0.000000
      9          3.361652   0.000000
     10          5.432416   0.000000
     11          5.472456   0.000000
     12          5.781020   0.000000
     13          6.082644   0.000000
     14          6.739998   0.000000
     15          7.206906   0.000000
     16          7.930111   0.000000
 
  0.1153846E+00  0.1153846E+00  0.0000000E+00  0.8875740E-02
      1        -15.952200   1.000000
      2        -10.225938   1.000000
      3         -5.546589   1.000000
      4         -4.237030   1.000000
      5         -3.381383   1.000000
      6         -0.189220   0.000000
      7          0.306675   0.000000
      8          1.600624   0.000000
      9          2.576408   0.000000
     10          2.581853   0.000000
     11          3.788864   0.000000
     12          4.884512   0.000000
     13          4.996165   0.000000
     14          6.575242   0.000000
     15          7.139586   0.000000
     16          7.332638   0.000000
 
  0.1538462E+00  0.1153846E+00  0.0000000E+00  0.1775148E-01
      1        -15.762715   1.000000
      2        -10.307466   1.000000
      3         -5.897167   1.000000
      4         -4.588189   1.000000
      5         -3.367723   1.000000
      6         -0.344671   0.000000
      7          0.501318   0.000000
      8          1.673920   0.000000
      9          2.719388   0.000000
     10          2.808608   0.000000
     11          3.887985   0.000000
     12          4.945755   0.000000
     13          5.108944   0.000000
     14          6.493581   0.000000
     15          7.357111   0.000000
     16          7.521793   0.000000
 
  0.1923077E+00  0.1153846E+00  0.0000000E+00  0.1775148E-01
      1        -15.538943   1.000000
      2        -10.449764   1.000000
      3         -6.181685   1.000000
      4         -4.898863   1.000000
      5         -3.395080   1.000000
      6         -0.523392   0.000000
      7          0.699637   0.000000
      8          1.604936   0.000000
      9          2.899526   0.000000
     10          3.073448   0.000000
     11          4.040886   0.000000
     12          5.057836   0.000000
     13          5.373469   0.000000
     14          6.288118   0.000000
     15          7.524107   0.000000
     16          7.915869   0.000000
 
  0.2307692E+00  0.1153846E+00  0.0000000E+00  0.1775148E-01
      1        -15.283791   1.000000
      2        -10.664000   1.000000
      3         -6.380017   1.000000
      4         -5.153190   1.000000
      5         -3.484282   1.000000
      6         -0.644837   0.000000
      7          0.825602   0.000000
      8          1.427570   0.000000
      9          3.152310   0.000000
     10          3.360780   0.000000
     11          4.238604   0.000000
     12          5.276996   0.000000
     13          5.675008   0.000000
     14          6.119923   0.000000
     15          7.639576   0.000000
     16          8.224263   0.000000
 
  0.2692308E+00  0.1153846E+00  0.0000000E+00  0.1775148E-01
      1        -15.001914   1.000000
      2        -10.946890   1.000000
      3         -6.490982   1.000000
      4         -5.340444   1.000000
      5         -3.644745   1.000000
      6         -0.683430   0.000000
      7          0.849175   0.000000
      8          1.237217   0.000000
      9          3.474811   0.000000
     10          3.633665   0.000000
     11          4.408986   0.000000
     12          5.540411   0.000000
     13          5.945283   0.000000
     14          6.206051   0.000000
     15          7.714889   0.000000
     16          8.103153   0.000000
 
  0.3076923E+00  0.1153846E+00  0.0000000E+00  0.1775148E-01
      1        -14.701360   1.000000
      2        -11.278826   1.000000
      3         -6.534290   1.000000
      4         -5.450141   1.000000
      5         -3.866420   1.000000
      6         -0.639503   0.000000
      7          0.716204   0.000000
      8          1.156804   0.000000
      9          3.757647   0.000000
     10          3.885108   0.000000
     11          4.573858   0.000000
     12          5.805086   0.000000
     13          6.232494   0.000000
     14          6.529953   0.000000
     15          7.705944   0.000000
     16          7.782654   0.000000
 
  0.3461538E+00  0.1153846E+00  0.0000000E+00  0.1775148E-01
      1        -14.397447   1.000000
      2        -11.626579   1.000000
      3         -6.541637   1.000000
      4         -5.474331   1.000000
      5         -4.121809   1.000000
      6         -0.529160   0.000000
      7          0.490009   0.000000
      8          1.163592   0.000000
      9          3.719934   0.000000
     10          4.310473   0.000000
     11          4.867769   0.000000
     12          6.091385   0.000000
     13          6.516486   0.000000
     14          6.857116   0.000000
     15          7.164440   0.000000
     16          7.818860   0.000000
 
  0.3846154E+00  0.1153846E+00  0.0000000E+00  0.1775148E-01
      1        -14.122162   1.000000
      2        -11.941190   1.000000
      3         -6.539608   1.000000
      4         -5.423062   1.000000
      5         -4.369346   1.000000
      6         -0.372117   0.000000
      7          0.252567   0.000000
      8          1.189344   0.000000
      9          3.594000   0.000000
     10          4.790398   0.000000
     11          5.266339   0.000000
     12          6.284910   0.000000
     13          6.519534   0.000000
     14          6.648394   0.000000
     15          7.271672   0.000000
     16          7.483101   0.000000
 
  0.4230769E+00  0.1153846E+00  0.0000000E+00  0.1775148E-01
      1        -13.941457   1.000000
      2        -12.144613   1.000000
      3         -6.538648   1.000000
      4         -5.349593   1.000000
      5         -4.541793   1.000000
      6         -0.183886   0.000000
      7          0.026016   0.000000