Automatically generated mesh
      70
Reciprocal lattice
    0.00000000000000    0.00000000000000    0.00000000000000             1
    0.03846153846154    0.00000000000000    0.00000000000000             6
    0.07692307692308    0.00000000000000    0.00000000000000             6
    0.11538461538461   -0.00000000000000    0.00000000000000             6
    0.15384615384615    0.00000000000000    0.00000000000000             6
    0.19230769230769    0.00000000000000    0.00000000000000             6
    0.23076923076923   -0.00000000000000    0.00000000000000             6
    0.26923076923077    0.00000000000000    0.00000000000000             6
    0.30769230769231    0.00000000000000    0.00000000000000             6
    0.34615384615385   -0.00000000000000    0.00000000000000             6
    0.38461538461539    0.00000000000000    0.00000000000000             6
    0.42307692307692    0.00000000000000    0.00000000000000             6
    0.46153846153846   -0.00000000000000    0.00000000000000             6
    0.50000000000000    0.00000000000000    0.00000000000000             3
    0.03846153846154    0.03846153846154    0.00000000000000             6
    0.07692307692308    0.03846153846154    0.00000000000000            12
    0.11538461538461    0.03846153846154    0.00000000000000            12
    0.15384615384615    0.03846153846154    0.00000000000000            12
    0.19230769230769    0.03846153846154    0.00000000000000            12
    0.23076923076923    0.03846153846154    0.00000000000000            12
    0.26923076923077    0.03846153846154    0.00000000000000            12
    0.30769230769231    0.03846153846154    0.00000000000000            12
    0.34615384615385    0.03846153846154    0.00000000000000            12
    0.38461538461539    0.03846153846154    0.00000000000000            12
    0.42307692307692    0.03846153846154    0.00000000000000            12
    0.46153846153846    0.03846153846154    0.00000000000000            12
    0.07692307692308    0.07692307692308    0.00000000000000             6
    0.11538461538461    0.07692307692308    0.00000000000000            12
    0.15384615384615    0.07692307692308    0.00000000000000            12
    0.19230769230769    0.07692307692308    0.00000000000000            12
    0.23076923076923    0.07692307692308    0.00000000000000            12
    0.26923076923077    0.07692307692308    0.00000000000000            12
    0.30769230769231    0.07692307692308    0.00000000000000            12
    0.34615384615385    0.07692307692308    0.00000000000000            12
    0.38461538461539    0.07692307692308    0.00000000000000            12
    0.42307692307692    0.07692307692308    0.00000000000000            12
    0.46153846153846    0.07692307692308    0.00000000000000             6
    0.11538461538461    0.11538461538461    0.00000000000000             6
    0.15384615384615    0.11538461538461    0.00000000000000            12
    0.19230769230769    0.11538461538461    0.00000000000000            12
    0.23076923076923    0.11538461538461    0.00000000000000            12
    0.26923076923077    0.11538461538461    0.00000000000000            12
    0.30769230769231    0.11538461538461    0.00000000000000            12
    0.34615384615385    0.11538461538461    0.00000000000000            12
    0.38461538461539    0.11538461538461    0.00000000000000            12
    0.42307692307692    0.11538461538461    0.00000000000000            12
    0.15384615384615    0.15384615384615    0.00000000000000             6
    0.19230769230769    0.15384615384615    0.00000000000000            12
    0.23076923076923    0.15384615384615    0.00000000000000            12
    0.26923076923077    0.15384615384615    0.00000000000000            12
    0.30769230769231    0.15384615384615    0.00000000000000            12
    0.34615384615385    0.15384615384615    0.00000000000000            12
    0.38461538461539    0.15384615384615    0.00000000000000            12
    0.42307692307692    0.15384615384615    0.00000000000000             6
    0.19230769230769    0.19230769230769    0.00000000000000             6
    0.23076923076923    0.19230769230769    0.00000000000000            12
    0.26923076923077    0.19230769230769    0.00000000000000            12
    0.30769230769231    0.19230769230769    0.00000000000000            12
    0.34615384615385    0.19230769230769    0.00000000000000            12
    0.38461538461539    0.19230769230769    0.00000000000000            12
    0.23076923076923    0.23076923076923    0.00000000000000             6
    0.26923076923077    0.23076923076923    0.00000000000000            12
    0.30769230769231    0.23076923076923    0.00000000000000            12
    0.34615384615385    0.23076923076923    0.00000000000000            12
    0.38461538461539    0.23076923076923    0.00000000000000             6
    0.26923076923077    0.26923076923077    0.00000000000000             6
    0.30769230769231    0.26923076923077    0.00000000000000            12
    0.34615384615385    0.26923076923077    0.00000000000000            12
    0.30769230769231    0.30769230769231    0.00000000000000             6
    0.34615384615385    0.30769230769231    0.00000000000000             6
