       N       E                     dE             d eps       ncg     rms          rms(c)
DAV:   1     0.299284912368E+02    0.29928E+02   -0.20718E+03  2248   0.229E+02
DAV:   2    -0.606114781250E+01   -0.35990E+02   -0.34209E+02  3136   0.668E+01
DAV:   3    -0.917808500376E+01   -0.31169E+01   -0.31077E+01  3000   0.210E+01
DAV:   4    -0.940036162815E+01   -0.22228E+00   -0.22227E+00  3464   0.554E+00
DAV:   5    -0.940238952114E+01   -0.20279E-02   -0.20279E-02  3088   0.474E-01
DAV:   6    -0.940247099282E+01   -0.81472E-04   -0.81472E-04  3472   0.752E-02
DAV:   7    -0.940247157313E+01   -0.58031E-06   -0.58048E-06  3112   0.669E-03
DAV:   8    -0.940247158787E+01   -0.14744E-07   -0.14421E-07  2416   0.974E-04
DAV:   9    -0.940247159018E+01   -0.23011E-08   -0.23004E-08  2072   0.498E-04
DAV:  10    -0.940247159114E+01   -0.96384E-09   -0.95701E-09  1648   0.322E-04
DAV:  11    -0.940247159155E+01   -0.41473E-09   -0.44551E-09  1440   0.216E-04
DAV:  12    -0.940247159181E+01   -0.25432E-09   -0.20934E-09  1376   0.147E-04    0.193E+00
DAV:  13    -0.938788018606E+01    0.14591E-01   -0.18998E-03  2736   0.164E-01    0.172E+00
DAV:  14    -0.934532829406E+01    0.42552E-01   -0.10914E-01  2872   0.125E+00    0.220E-01
DAV:  15    -0.934171625427E+01    0.36120E-02   -0.11379E-02  2936   0.391E-01    0.111E-01
DAV:  16    -0.934185950981E+01   -0.14326E-03   -0.90511E-04  3088   0.119E-01    0.480E-02
DAV:  17    -0.934176148627E+01    0.98024E-04   -0.56094E-04  3128   0.874E-02    0.360E-02
DAV:  18    -0.934175159379E+01    0.98925E-05   -0.10493E-04  2472   0.369E-02    0.613E-03
DAV:  19    -0.934175286921E+01   -0.12754E-05   -0.75585E-06  3104   0.112E-02    0.548E-03
DAV:  20    -0.934175389383E+01   -0.10246E-05   -0.10280E-06  2472   0.423E-03    0.176E-03
DAV:  21    -0.934175388565E+01    0.81782E-08   -0.21114E-07  2224   0.212E-03
   1 F= -.93417539E+01 E0= -.93417539E+01  d E =-.107269E-12
