 vasp.6.4.2 20Jul23 (build Nov 14 2023 12:59:38) complex                        
  
 executed on             LinuxIFC date 2023.12.17  08:38:28
 running   16 mpi-ranks, on    1 nodes
 distrk:  each k-point on   16 cores,    1 groups
 distr:  one band on NCORE=   4 cores,    4 groups


--------------------------------------------------------------------------------------------------------


 INCAR:
   ENCUT = 234.789750
   ALGO = Normal
   NELM = 200
   NELMIN = 6
   NELMDL = -12
   EDIFF = 1.0E-6
   AMIX = 0.1
   BMIX = 0.0001
   NBANDS = 16
   PREC = Accurate
   IVDW = 0
   ISPIN = 1
   ADDGRID = .TRUE.
   LASPH = .TRUE.
   NSW = 0
   EDIFFG = -0.010
   IBRION = 2
   ISIF = -1
   POTIM = 0.5
   STRESSTYPE = 2
   ISMEAR = 0
   SIGMA = 0.01
   LORBIT = 10
   NEDOS = 6001
   NWRITE = 1
   LWAVE = .FALSE.
   LCHARG = .FALSE.
   NCORE = 4
   LPLANE = .TRUE.

 POTCAR:    PAW_PBE As_GW 20Mar2012               
 POTCAR:    PAW_PBE As_GW 20Mar2012               
  local pseudopotential read in
  partial core-charges read in
  partial kinetic energy density read in
  kinetic energy density of atom read in
  atomic valenz-charges read in
  non local Contribution for L=           0  read in
    real space projection operators read in
  non local Contribution for L=           0  read in
    real space projection operators read in
  non local Contribution for L=           1  read in
    real space projection operators read in
  non local Contribution for L=           1  read in
    real space projection operators read in
  non local Contribution for L=           2  read in
    real space projection operators read in
    PAW grid and wavefunctions read in
 
   number of l-projection  operators is LMAX  =           5
   number of lm-projection operators is LMMAX =          13
 
  PAW_PBE As_GW 20Mar2012               :
 energy of atom  1       EATOM= -170.1867
 kinetic energy error for atom=    0.0047 (will be added to EATOM!!)
 
 
 POSCAR: pnictogen honeycomb monolayer
  positions in direct lattice
  velocities in cartesian coordinates
 exchange correlation table for  LEXCH =        8
   RHO(1)=    0.500       N(1)  =     2000
   RHO(2)=  100.500       N(2)  =     4000
 


--------------------------------------------------------------------------------------------------------


 ion  position               nearest neighbor table
   1  0.667  0.333  0.456-   2 2.51   2 2.51   2 2.51
   2  0.333  0.667  0.544-   1 2.51   1 2.51   1 2.51
 
  LATTYP: Found a hexagonal cell.
 ALAT       =     3.6068925390
 C/A-ratio  =     4.4359513978
  
  Lattice vectors:
  
 A1 = (   3.6068925390,   0.0000000000,   0.0000000000)
 A2 = (  -1.8034462695,   3.1236605675,   0.0000000000)
 A3 = (   0.0000000000,   0.0000000000,  16.0000000000)


Analysis of symmetry for initial positions (statically):
=====================================================================
 Subroutine PRICEL returns:
 Original cell was already a primitive cell.
 

 Routine SETGRP: Setting up the symmetry group for a 
 hexagonal supercell.


 Subroutine GETGRP returns: Found 12 space group operations
 (whereof 12 operations were pure point group operations)
 out of a pool of 24 trial point group operations.


The static configuration has the point symmetry D_3d.


Analysis of symmetry for dynamics (positions and initial velocities):
=====================================================================
 Subroutine PRICEL returns:
 Original cell was already a primitive cell.
 

 Routine SETGRP: Setting up the symmetry group for a 
 hexagonal supercell.


 Subroutine GETGRP returns: Found 12 space group operations
 (whereof 12 operations were pure point group operations)
 out of a pool of 24 trial point group operations.


The dynamic configuration has the point symmetry D_3d.


 Subroutine INISYM returns: Found 12 space group operations
 (whereof 12 operations are pure point group operations),
 and found     1 'primitive' translations


----------------------------------------------------------------------------------------

                                     Primitive cell                                     

  volume of cell :     180.2673

  direct lattice vectors                    reciprocal lattice vectors
     3.606892539  0.000000000  0.000000000     0.277246962  0.160068608  0.000000000
    -1.803446269  3.123660567  0.000000000     0.000000000  0.320137217  0.000000000
     0.000000000  0.000000000 16.000000000     0.000000000  0.000000000  0.062500000

  length of vectors
     3.606892539  3.606892539 16.000000000     0.320137217  0.320137217  0.062500000

  position of ions in fractional coordinates (direct lattice)
     0.666666667  0.333333333  0.456343136
     0.333333333  0.666666667  0.543656864

  ion indices of the primitive-cell ions
   primitive index   ion index
                 1           1
                 2           2

----------------------------------------------------------------------------------------

 
 
 KPOINTS: kpoints                                 

Automatic generation of k-mesh.
 Grid dimensions read from file:
 generate k-points for:   26   26    1

 Generating k-lattice:

  Cartesian coordinates                     Fractional coordinates (reciprocal lattice)
     0.010663345  0.006156485  0.000000000     0.038461538  0.000000000  0.000000000
     0.000000000  0.012312970  0.000000000     0.000000000  0.038461538  0.000000000
     0.000000000  0.000000000  0.062500000     0.000000000  0.000000000  1.000000000

  Length of vectors
     0.012312970  0.012312970  0.062500000

  Shift w.r.t. Gamma in fractional coordinates (k-lattice)
     0.000000000  0.000000000  0.000000000

 
 Subroutine IBZKPT returns following result:
 ===========================================
 
 Found     70 irreducible k-points:
 
 Following reciprocal coordinates:
            Coordinates               Weight
  0.000000  0.000000  0.000000      1.000000
  0.038462  0.000000  0.000000      6.000000
  0.076923  0.000000  0.000000      6.000000
  0.115385 -0.000000  0.000000      6.000000
  0.153846  0.000000  0.000000      6.000000
  0.192308  0.000000  0.000000      6.000000
  0.230769 -0.000000  0.000000      6.000000
  0.269231  0.000000  0.000000      6.000000
  0.307692  0.000000  0.000000      6.000000
  0.346154 -0.000000  0.000000      6.000000
  0.384615  0.000000  0.000000      6.000000
  0.423077  0.000000  0.000000      6.000000
  0.461538 -0.000000  0.000000      6.000000
  0.500000  0.000000  0.000000      3.000000
  0.038462  0.038462  0.000000      6.000000
  0.076923  0.038462  0.000000     12.000000
  0.115385  0.038462  0.000000     12.000000
  0.153846  0.038462  0.000000     12.000000
  0.192308  0.038462  0.000000     12.000000
  0.230769  0.038462  0.000000     12.000000
  0.269231  0.038462  0.000000     12.000000
  0.307692  0.038462  0.000000     12.000000
  0.346154  0.038462  0.000000     12.000000
  0.384615  0.038462  0.000000     12.000000
  0.423077  0.038462  0.000000     12.000000
  0.461538  0.038462  0.000000     12.000000
  0.076923  0.076923  0.000000      6.000000
  0.115385  0.076923  0.000000     12.000000
  0.153846  0.076923  0.000000     12.000000
  0.192308  0.076923  0.000000     12.000000
  0.230769  0.076923  0.000000     12.000000
  0.269231  0.076923  0.000000     12.000000
  0.307692  0.076923  0.000000     12.000000
  0.346154  0.076923  0.000000     12.000000
  0.384615  0.076923  0.000000     12.000000
  0.423077  0.076923  0.000000     12.000000
  0.461538  0.076923  0.000000      6.000000
  0.115385  0.115385  0.000000      6.000000
  0.153846  0.115385  0.000000     12.000000
  0.192308  0.115385  0.000000     12.000000
  0.230769  0.115385  0.000000     12.000000
  0.269231  0.115385  0.000000     12.000000
  0.307692  0.115385  0.000000     12.000000
  0.346154  0.115385  0.000000     12.000000
  0.384615  0.115385  0.000000     12.000000
  0.423077  0.115385  0.000000     12.000000
  0.153846  0.153846  0.000000      6.000000
  0.192308  0.153846  0.000000     12.000000
  0.230769  0.153846  0.000000     12.000000
  0.269231  0.153846  0.000000     12.000000
  0.307692  0.153846  0.000000     12.000000
  0.346154  0.153846  0.000000     12.000000
  0.384615  0.153846  0.000000     12.000000
  0.423077  0.153846  0.000000      6.000000
  0.192308  0.192308  0.000000      6.000000
  0.230769  0.192308  0.000000     12.000000
  0.269231  0.192308  0.000000     12.000000
  0.307692  0.192308  0.000000     12.000000
  0.346154  0.192308  0.000000     12.000000
  0.384615  0.192308  0.000000     12.000000
  0.230769  0.230769  0.000000      6.000000
  0.269231  0.230769  0.000000     12.000000
  0.307692  0.230769  0.000000     12.000000
  0.346154  0.230769  0.000000     12.000000
  0.384615  0.230769  0.000000      6.000000
  0.269231  0.269231  0.000000      6.000000
  0.307692  0.269231  0.000000     12.000000
  0.346154  0.269231  0.000000     12.000000
  0.307692  0.307692  0.000000      6.000000
  0.346154  0.307692  0.000000      6.000000
 
 Following cartesian coordinates:
            Coordinates               Weight
  0.000000  0.000000  0.000000      1.000000
  0.010663  0.006156  0.000000      6.000000
  0.021327  0.012313  0.000000      6.000000
  0.031990  0.018469  0.000000      6.000000
  0.042653  0.024626  0.000000      6.000000
  0.053317  0.030782  0.000000      6.000000
  0.063980  0.036939  0.000000      6.000000
  0.074643  0.043095  0.000000      6.000000
  0.085307  0.049252  0.000000      6.000000
  0.095970  0.055408  0.000000      6.000000
  0.106633  0.061565  0.000000      6.000000
  0.117297  0.067721  0.000000      6.000000
  0.127960  0.073878  0.000000      6.000000
  0.138623  0.080034  0.000000      3.000000
  0.010663  0.018469  0.000000      6.000000
  0.021327  0.024626  0.000000     12.000000
  0.031990  0.030782  0.000000     12.000000
  0.042653  0.036939  0.000000     12.000000
  0.053317  0.043095  0.000000     12.000000
  0.063980  0.049252  0.000000     12.000000
  0.074643  0.055408  0.000000     12.000000
  0.085307  0.061565  0.000000     12.000000
  0.095970  0.067721  0.000000     12.000000
  0.106633  0.073878  0.000000     12.000000
  0.117297  0.080034  0.000000     12.000000
  0.127960  0.086191  0.000000     12.000000
  0.021327  0.036939  0.000000      6.000000
  0.031990  0.043095  0.000000     12.000000
  0.042653  0.049252  0.000000     12.000000
  0.053317  0.055408  0.000000     12.000000
  0.063980  0.061565  0.000000     12.000000
  0.074643  0.067721  0.000000     12.000000
  0.085307  0.073878  0.000000     12.000000
  0.095970  0.080034  0.000000     12.000000
  0.106633  0.086191  0.000000     12.000000
  0.117297  0.092347  0.000000     12.000000
  0.127960  0.098504  0.000000      6.000000
  0.031990  0.055408  0.000000      6.000000
  0.042653  0.061565  0.000000     12.000000
  0.053317  0.067721  0.000000     12.000000
  0.063980  0.073878  0.000000     12.000000
  0.074643  0.080034  0.000000     12.000000
  0.085307  0.086191  0.000000     12.000000
  0.095970  0.092347  0.000000     12.000000
  0.106633  0.098504  0.000000     12.000000
  0.117297  0.104660  0.000000     12.000000
  0.042653  0.073878  0.000000      6.000000
  0.053317  0.080034  0.000000     12.000000
  0.063980  0.086191  0.000000     12.000000
  0.074643  0.092347  0.000000     12.000000
  0.085307  0.098504  0.000000     12.000000
  0.095970  0.104660  0.000000     12.000000
  0.106633  0.110817  0.000000     12.000000
  0.117297  0.116973  0.000000      6.000000
  0.053317  0.092347  0.000000      6.000000
  0.063980  0.098504  0.000000     12.000000
  0.074643  0.104660  0.000000     12.000000
  0.085307  0.110817  0.000000     12.000000
  0.095970  0.116973  0.000000     12.000000
  0.106633  0.123130  0.000000     12.000000
  0.063980  0.110817  0.000000      6.000000
  0.074643  0.116973  0.000000     12.000000
  0.085307  0.123130  0.000000     12.000000
  0.095970  0.129286  0.000000     12.000000
  0.106633  0.135443  0.000000      6.000000
  0.074643  0.129286  0.000000      6.000000
  0.085307  0.135443  0.000000     12.000000
  0.095970  0.141599  0.000000     12.000000
  0.085307  0.147756  0.000000      6.000000
  0.095970  0.153912  0.000000      6.000000
 


--------------------------------------------------------------------------------------------------------




 Dimension of arrays:
   k-points           NKPTS =     70   k-points in BZ     NKDIM =     70   number of bands    NBANDS=     16
   number of dos      NEDOS =   6001   number of ions     NIONS =      2
   non local maximal  LDIM  =      5   non local SUM 2l+1 LMDIM =     13
   total plane-waves  NPLWV =  25920
   max r-space proj   IRMAX =      1   max aug-charges    IRDMAX=  47793
   dimension x,y,z NGX =    18 NGY =   18 NGZ =   80
   dimension x,y,z NGXF=    36 NGYF=   36 NGZF=  160
   support grid    NGXF=    72 NGYF=   72 NGZF=  320
   ions per type =               2
   NGX,Y,Z   is equivalent  to a cutoff of   8.30,  8.30,  8.31 a.u.
   NGXF,Y,Z  is equivalent  to a cutoff of  16.59, 16.59, 16.62 a.u.

 SYSTEM =  unknown system                          
 POSCAR =  pnictogen honeycomb monolayer           

 Startparameter for this run:
   NWRITE =      1    write-flag & timer
   PREC   = accura    normal or accurate (medium, high low for compatibility)
   ISTART =      0    job   : 0-new  1-cont  2-samecut
   ICHARG =      2    charge: 1-file 2-atom 10-const
   ISPIN  =      1    spin polarized calculation?
   LNONCOLLINEAR =      F non collinear calculations
   LSORBIT =      F    spin-orbit coupling
   INIWAV =      1    electr: 0-lowe 1-rand  2-diag
   LASPH  =      T    aspherical Exc in radial PAW
 Electronic Relaxation 1
   ENCUT  =  234.8 eV  17.26 Ry    4.15 a.u.   4.51  4.51 19.99*2*pi/ulx,y,z
   ENINI  =  234.8     initial cutoff
   ENAUG  =  462.8 eV  augmentation charge cutoff
   NELM   =    200;   NELMIN=  6; NELMDL=-12     # of ELM steps 
   EDIFF  = 0.1E-05   stopping-criterion for ELM
   LREAL  =      F    real-space projection
   NLSPLINE    = F    spline interpolate recip. space projectors
   LCOMPAT=      F    compatible to vasp.4.4
   GGA_COMPAT  = T    GGA compatible to vasp.4.4-vasp.4.6
   LMAXPAW     = -100 max onsite density
   LMAXMIX     =    2 max onsite mixed and CHGCAR
   VOSKOWN=      0    Vosko Wilk Nusair interpolation
   ROPT   =    0.00000
 Ionic relaxation
   EDIFFG = -.1E-01   stopping-criterion for IOM
   NSW    =      0    number of steps for IOM
   NBLOCK =      1;   KBLOCK =      1    inner block; outer block 
   IBRION =     -1    ionic relax: 0-MD 1-quasi-New 2-CG
   NFREE  =      1    steps in history (QN), initial steepest desc. (CG)
   ISIF   =     -1    stress and relaxation
   IWAVPR =     10    prediction:  0-non 1-charg 2-wave 3-comb
   ISYM   =      2    0-nonsym 1-usesym 2-fastsym
   LCORR  =      T    Harris-Foulkes like correction to forces

   POTIM  = 0.5000    time-step for ionic-motion
   TEIN   =    0.0    initial temperature
   TEBEG  =    0.0;   TEEND  =   0.0 temperature during run
   SMASS  =  -3.00    Nose mass-parameter (am)
   estimated Nose-frequenzy (Omega)   =  0.10E-29 period in steps = 0.13E+47 mass=  -0.297E-27a.u.
   SCALEE = 1.0000    scale energy and forces
   NPACO  =    256;   APACO  = 10.0  distance and # of slots for P.C.
   PSTRESS=    0.0 pullay stress

  Mass of Ions in am
   POMASS =  74.92
  Ionic Valenz
   ZVAL   =   5.00
  Atomic Wigner-Seitz radii
   RWIGS  =  -1.00
  virtual crystal weights 
   VCA    =   1.00
   NELECT =      10.0000    total number of electrons
   NUPDOWN=      -1.0000    fix difference up-down

 DOS related values:
   EMIN   =  10.00;   EMAX   =-10.00  energy-range for DOS
   EFERMI =   0.00;   METHOD = LEGACY      
   ISMEAR =     0;   SIGMA  =   0.01  broadening in eV -4-tet -1-fermi 0-gaus

 Electronic relaxation 2 (details)
   IALGO  =     38    algorithm
   LDIAG  =      T    sub-space diagonalisation (order eigenvalues)
   LSUBROT=      F    optimize rotation matrix (better conditioning)
   TURBO    =      0    0=normal 1=particle mesh
   IRESTART =      0    0=no restart 2=restart with 2 vectors
   NREBOOT  =      0    no. of reboots
   NMIN     =      0    reboot dimension
   EREF     =   0.00    reference energy to select bands
   IMIX   =      4    mixing-type and parameters
     AMIX     =   0.10;   BMIX     =  0.00
     AMIX_MAG =   0.40;   BMIX_MAG =  0.00
     AMIN     =   0.10
     WC   =   100.;   INIMIX=   1;  MIXPRE=   1;  MAXMIX= -45

 Intra band minimization:
   WEIMIN = 0.0000     energy-eigenvalue tresh-hold
   EBREAK =  0.16E-07  absolut break condition
   DEPER  =   0.30     relativ break condition  

   TIME   =   0.40     timestep for ELM

  volume/ion in A,a.u.               =      90.13       608.25
  Fermi-wavevector in a.u.,A,eV,Ry     =   0.624361  1.179871  5.303915  0.389827
  Thomas-Fermi vector in A             =   1.684891
 
 Write flags
   LWAVE        =      F    write WAVECAR
   LDOWNSAMPLE  =      F    k-point downsampling of WAVECAR
   LCHARG       =      F    write CHGCAR
   LVTOT        =      F    write LOCPOT, total local potential
   LVHAR        =      F    write LOCPOT, Hartree potential only
   LELF         =      F    write electronic localiz. function (ELF)
   LORBIT       =     10    0 simple, 1 ext, 2 COOP (PROOUT), +10 PAW based schemes


 Dipole corrections
   LMONO  =      F    monopole corrections only (constant potential shift)
   LDIPOL =      F    correct potential (dipole corrections)
   IDIPOL =      0    1-x, 2-y, 3-z, 4-all directions 
   EPSILON=  1.0000000 bulk dielectric constant

 Exchange correlation treatment:
   GGA     =    --    GGA type
   LEXCH   =     8    internal setting for exchange type
   LIBXC   =     F    Libxc                    
   VOSKOWN =     0    Vosko Wilk Nusair interpolation
   LHFCALC =     F    Hartree Fock is set to
   LHFONE  =     F    Hartree Fock one center treatment
   AEXX    =    0.0000 exact exchange contribution

 Linear response parameters
   LEPSILON=     F    determine dielectric tensor
   LRPA    =     F    only Hartree local field effects (RPA)
   LNABLA  =     F    use nabla operator in PAW spheres
   LVEL    =     F    velocity operator in full k-point grid
   CSHIFT  =0.1000    complex shift for real part using Kramers Kronig
   OMEGAMAX=  -1.0    maximum frequency
   DEG_THRESHOLD= 0.2000000E-02 threshold for treating states as degnerate
   RTIME   =   -0.100 relaxation time in fs
  (WPLASMAI=    0.000 imaginary part of plasma frequency in eV, 0.658/RTIME)
   DFIELD  = 0.0000000 0.0000000 0.0000000 field for delta impulse in time
 
  Optional k-point grid parameters
   LKPOINTS_OPT  =     F    use optional k-point grid
   KPOINTS_OPT_MODE=     1    mode for optional k-point grid
 
 Orbital magnetization related:
   ORBITALMAG=     F  switch on orbital magnetization
   LCHIMAG   =     F  perturbation theory with respect to B field
   DQ        =  0.001000  dq finite difference perturbation B field
   LLRAUG    =     F  two centre corrections for induced B field
   LBONE     =     F  B-component reconstruction in AE one-centre
   LVGVCALC  =     T  calculate vGv susceptibility
   LVGVAPPL  =     F  apply vGv susceptibility instead of pGv for G=0

 Random number generation:
   RANDOM_GENERATOR = DEFAULT
   PCG_SEED         = not used


--------------------------------------------------------------------------------------------------------


 Static calculation
 charge density and potential will be updated during run
 non-spin polarized calculation
 Variant of blocked Davidson
 Davidson routine will perform the subspace rotation
 perform sub-space diagonalisation
    after iterative eigenvector-optimisation
 modified Broyden-mixing scheme, WC =      100.0
 initial mixing is a Kerker type mixing with AMIX =  0.1000 and BMIX =      0.0001
 Hartree-type preconditioning will be used
 using additional bands           11
 reciprocal scheme for non local part
 use partial core corrections
 calculate Harris-corrections to forces 
   (improved forces if not selfconsistent)
 use gradient corrections 
 use of overlap-Matrix (Vanderbilt PP)
 Gauss-broadening in eV      SIGMA  =   0.01


--------------------------------------------------------------------------------------------------------


  energy-cutoff  :      234.79
  volume of cell :      180.27
      direct lattice vectors                 reciprocal lattice vectors
     3.606892539  0.000000000  0.000000000     0.277246962  0.160068608  0.000000000
    -1.803446269  3.123660567  0.000000000     0.000000000  0.320137217  0.000000000
     0.000000000  0.000000000 16.000000000     0.000000000  0.000000000  0.062500000

  length of vectors
     3.606892539  3.606892539 16.000000000     0.320137217  0.320137217  0.062500000


 
 k-points in units of 2pi/SCALE and weight: kpoints                                 
   0.00000000  0.00000000  0.00000000       0.001
   0.01066334  0.00615648  0.00000000       0.009
   0.02132669  0.01231297  0.00000000       0.009
   0.03199003  0.01846945  0.00000000       0.009
   0.04265338  0.02462594  0.00000000       0.009
   0.05331672  0.03078242  0.00000000       0.009
   0.06398007  0.03693891  0.00000000       0.009
   0.07464341  0.04309539  0.00000000       0.009
   0.08530676  0.04925188  0.00000000       0.009
   0.09597010  0.05540836  0.00000000       0.009
   0.10663345  0.06156485  0.00000000       0.009
   0.11729679  0.06772133  0.00000000       0.009
   0.12796014  0.07387782  0.00000000       0.009
   0.13862348  0.08003430  0.00000000       0.004
   0.01066334  0.01846945  0.00000000       0.009
   0.02132669  0.02462594  0.00000000       0.018
   0.03199003  0.03078242  0.00000000       0.018
   0.04265338  0.03693891  0.00000000       0.018
   0.05331672  0.04309539  0.00000000       0.018
   0.06398007  0.04925188  0.00000000       0.018
   0.07464341  0.05540836  0.00000000       0.018
   0.08530676  0.06156485  0.00000000       0.018
   0.09597010  0.06772133  0.00000000       0.018
   0.10663345  0.07387782  0.00000000       0.018
   0.11729679  0.08003430  0.00000000       0.018
   0.12796014  0.08619079  0.00000000       0.018
   0.02132669  0.03693891  0.00000000       0.009
   0.03199003  0.04309539  0.00000000       0.018
   0.04265338  0.04925188  0.00000000       0.018
   0.05331672  0.05540836  0.00000000       0.018
   0.06398007  0.06156485  0.00000000       0.018
   0.07464341  0.06772133  0.00000000       0.018
   0.08530676  0.07387782  0.00000000       0.018
   0.09597010  0.08003430  0.00000000       0.018
   0.10663345  0.08619079  0.00000000       0.018
   0.11729679  0.09234727  0.00000000       0.018
   0.12796014  0.09850376  0.00000000       0.009
   0.03199003  0.05540836  0.00000000       0.009
   0.04265338  0.06156485  0.00000000       0.018
   0.05331672  0.06772133  0.00000000       0.018
   0.06398007  0.07387782  0.00000000       0.018
   0.07464341  0.08003430  0.00000000       0.018
   0.08530676  0.08619079  0.00000000       0.018
   0.09597010  0.09234727  0.00000000       0.018
   0.10663345  0.09850376  0.00000000       0.018
   0.11729679  0.10466024  0.00000000       0.018
   0.04265338  0.07387782  0.00000000       0.009
   0.05331672  0.08003430  0.00000000       0.018
   0.06398007  0.08619079  0.00000000       0.018
   0.07464341  0.09234727  0.00000000       0.018
   0.08530676  0.09850376  0.00000000       0.018
   0.09597010  0.10466024  0.00000000       0.018
   0.10663345  0.11081673  0.00000000       0.018
   0.11729679  0.11697321  0.00000000       0.009
   0.05331672  0.09234727  0.00000000       0.009
   0.06398007  0.09850376  0.00000000       0.018
   0.07464341  0.10466024  0.00000000       0.018
   0.08530676  0.11081673  0.00000000       0.018
   0.09597010  0.11697321  0.00000000       0.018
   0.10663345  0.12312970  0.00000000       0.018
   0.06398007  0.11081673  0.00000000       0.009
   0.07464341  0.11697321  0.00000000       0.018
   0.08530676  0.12312970  0.00000000       0.018
   0.09597010  0.12928618  0.00000000       0.018
   0.10663345  0.13544267  0.00000000       0.009
   0.07464341  0.12928618  0.00000000       0.009
   0.08530676  0.13544267  0.00000000       0.018
   0.09597010  0.14159915  0.00000000       0.018
   0.08530676  0.14775564  0.00000000       0.009
   0.09597010  0.15391212  0.00000000       0.009
 
 k-points in reciprocal lattice and weights: kpoints                                 
   0.00000000  0.00000000  0.00000000       0.001
   0.03846154  0.00000000  0.00000000       0.009
   0.07692308  0.00000000  0.00000000       0.009
   0.11538462 -0.00000000  0.00000000       0.009
   0.15384615  0.00000000  0.00000000       0.009
   0.19230769  0.00000000  0.00000000       0.009
   0.23076923 -0.00000000  0.00000000       0.009
   0.26923077  0.00000000  0.00000000       0.009
   0.30769231  0.00000000  0.00000000       0.009
   0.34615385 -0.00000000  0.00000000       0.009
   0.38461538  0.00000000  0.00000000       0.009
   0.42307692  0.00000000  0.00000000       0.009
   0.46153846 -0.00000000  0.00000000       0.009
   0.50000000  0.00000000  0.00000000       0.004
   0.03846154  0.03846154  0.00000000       0.009
   0.07692308  0.03846154  0.00000000       0.018
   0.11538462  0.03846154  0.00000000       0.018
   0.15384615  0.03846154  0.00000000       0.018
   0.19230769  0.03846154  0.00000000       0.018
   0.23076923  0.03846154  0.00000000       0.018
   0.26923077  0.03846154  0.00000000       0.018
   0.30769231  0.03846154  0.00000000       0.018
   0.34615385  0.03846154  0.00000000       0.018
   0.38461538  0.03846154  0.00000000       0.018
   0.42307692  0.03846154  0.00000000       0.018
   0.46153846  0.03846154  0.00000000       0.018
   0.07692308  0.07692308  0.00000000       0.009
   0.11538462  0.07692308  0.00000000       0.018
   0.15384615  0.07692308  0.00000000       0.018
   0.19230769  0.07692308  0.00000000       0.018
   0.23076923  0.07692308  0.00000000       0.018
   0.26923077  0.07692308  0.00000000       0.018
   0.30769231  0.07692308  0.00000000       0.018
   0.34615385  0.07692308  0.00000000       0.018
   0.38461538  0.07692308  0.00000000       0.018
   0.42307692  0.07692308  0.00000000       0.018
   0.46153846  0.07692308  0.00000000       0.009
   0.11538462  0.11538462  0.00000000       0.009
   0.15384615  0.11538462  0.00000000       0.018
   0.19230769  0.11538462  0.00000000       0.018
   0.23076923  0.11538462  0.00000000       0.018
   0.26923077  0.11538462  0.00000000       0.018
   0.30769231  0.11538462  0.00000000       0.018
   0.34615385  0.11538462  0.00000000       0.018
   0.38461538  0.11538462  0.00000000       0.018
   0.42307692  0.11538462  0.00000000       0.018
   0.15384615  0.15384615  0.00000000       0.009
   0.19230769  0.15384615  0.00000000       0.018
   0.23076923  0.15384615  0.00000000       0.018
   0.26923077  0.15384615  0.00000000       0.018
   0.30769231  0.15384615  0.00000000       0.018
   0.34615385  0.15384615  0.00000000       0.018
   0.38461538  0.15384615  0.00000000       0.018
   0.42307692  0.15384615  0.00000000       0.009
   0.19230769  0.19230769  0.00000000       0.009
   0.23076923  0.19230769  0.00000000       0.018
   0.26923077  0.19230769  0.00000000       0.018
   0.30769231  0.19230769  0.00000000       0.018
   0.34615385  0.19230769  0.00000000       0.018
   0.38461538  0.19230769  0.00000000       0.018
   0.23076923  0.23076923  0.00000000       0.009
   0.26923077  0.23076923  0.00000000       0.018
   0.30769231  0.23076923  0.00000000       0.018
   0.34615385  0.23076923  0.00000000       0.018
   0.38461538  0.23076923  0.00000000       0.009
   0.26923077  0.26923077  0.00000000       0.009
   0.30769231  0.26923077  0.00000000       0.018
   0.34615385  0.26923077  0.00000000       0.018
   0.30769231  0.30769231  0.00000000       0.009
   0.34615385  0.30769231  0.00000000       0.009
 
 position of ions in fractional coordinates (direct lattice) 
   0.66666667  0.33333333  0.45634314
   0.33333333  0.66666667  0.54365686
 
 position of ions in cartesian coordinates  (Angst):
   1.80344627  1.04122019  7.30149017
   0.00000000  2.08244038  8.69850983
 


--------------------------------------------------------------------------------------------------------


 k-point   1 :   0.0000 0.0000 0.0000  plane waves:    1485
 k-point   2 :   0.0385 0.0000 0.0000  plane waves:    1487
 k-point   3 :   0.0769 0.0000 0.0000  plane waves:    1493
 k-point   4 :   0.1154-0.0000 0.0000  plane waves:    1504
 k-point   5 :   0.1538 0.0000 0.0000  plane waves:    1498
 k-point   6 :   0.1923 0.0000 0.0000  plane waves:    1488
 k-point   7 :   0.2308-0.0000 0.0000  plane waves:    1484
 k-point   8 :   0.2692 0.0000 0.0000  plane waves:    1486
 k-point   9 :   0.3077 0.0000 0.0000  plane waves:    1476
 k-point  10 :   0.3462-0.0000 0.0000  plane waves:    1480
 k-point  11 :   0.3846 0.0000 0.0000  plane waves:    1462
 k-point  12 :   0.4231 0.0000 0.0000  plane waves:    1450
 k-point  13 :   0.4615-0.0000 0.0000  plane waves:    1452
 k-point  14 :   0.5000 0.0000 0.0000  plane waves:    1440
 k-point  15 :   0.0385 0.0385 0.0000  plane waves:    1485
 k-point  16 :   0.0769 0.0385 0.0000  plane waves:    1493
 k-point  17 :   0.1154 0.0385 0.0000  plane waves:    1496
 k-point  18 :   0.1538 0.0385 0.0000  plane waves:    1491
 k-point  19 :   0.1923 0.0385 0.0000  plane waves:    1485
 k-point  20 :   0.2308 0.0385 0.0000  plane waves:    1491
 k-point  21 :   0.2692 0.0385 0.0000  plane waves:    1480
 k-point  22 :   0.3077 0.0385 0.0000  plane waves:    1474
 k-point  23 :   0.3462 0.0385 0.0000  plane waves:    1468
 k-point  24 :   0.3846 0.0385 0.0000  plane waves:    1463
 k-point  25 :   0.4231 0.0385 0.0000  plane waves:    1456
 k-point  26 :   0.4615 0.0385 0.0000  plane waves:    1451
 k-point  27 :   0.0769 0.0769 0.0000  plane waves:    1503
 k-point  28 :   0.1154 0.0769 0.0000  plane waves:    1501
 k-point  29 :   0.1538 0.0769 0.0000  plane waves:    1493
 k-point  30 :   0.1923 0.0769 0.0000  plane waves:    1495
 k-point  31 :   0.2308 0.0769 0.0000  plane waves:    1489
 k-point  32 :   0.2692 0.0769 0.0000  plane waves:    1482
 k-point  33 :   0.3077 0.0769 0.0000  plane waves:    1464
 k-point  34 :   0.3462 0.0769 0.0000  plane waves:    1463
 k-point  35 :   0.3846 0.0769 0.0000  plane waves:    1457
 k-point  36 :   0.4231 0.0769 0.0000  plane waves:    1457
 k-point  37 :   0.4615 0.0769 0.0000  plane waves:    1452
 k-point  38 :   0.1154 0.1154 0.0000  plane waves:    1497
 k-point  39 :   0.1538 0.1154 0.0000  plane waves:    1495
 k-point  40 :   0.1923 0.1154 0.0000  plane waves:    1489
 k-point  41 :   0.2308 0.1154 0.0000  plane waves:    1480
 k-point  42 :   0.2692 0.1154 0.0000  plane waves:    1470
 k-point  43 :   0.3077 0.1154 0.0000  plane waves:    1462
 k-point  44 :   0.3462 0.1154 0.0000  plane waves:    1456
 k-point  45 :   0.3846 0.1154 0.0000  plane waves:    1453
 k-point  46 :   0.4231 0.1154 0.0000  plane waves:    1451
 k-point  47 :   0.1538 0.1538 0.0000  plane waves:    1493
 k-point  48 :   0.1923 0.1538 0.0000  plane waves:    1481
 k-point  49 :   0.2308 0.1538 0.0000  plane waves:    1463
 k-point  50 :   0.2692 0.1538 0.0000  plane waves:    1464
 k-point  51 :   0.3077 0.1538 0.0000  plane waves:    1464
 k-point  52 :   0.3462 0.1538 0.0000  plane waves:    1454
 k-point  53 :   0.3846 0.1538 0.0000  plane waves:    1460
 k-point  54 :   0.4231 0.1538 0.0000  plane waves:    1462
 k-point  55 :   0.1923 0.1923 0.0000  plane waves:    1479
 k-point  56 :   0.2308 0.1923 0.0000  plane waves:    1471
 k-point  57 :   0.2692 0.1923 0.0000  plane waves:    1468
 k-point  58 :   0.3077 0.1923 0.0000  plane waves:    1456
 k-point  59 :   0.3462 0.1923 0.0000  plane waves:    1457
 k-point  60 :   0.3846 0.1923 0.0000  plane waves:    1456
 k-point  61 :   0.2308 0.2308 0.0000  plane waves:    1459
 k-point  62 :   0.2692 0.2308 0.0000  plane waves:    1457
 k-point  63 :   0.3077 0.2308 0.0000  plane waves:    1456
 k-point  64 :   0.3462 0.2308 0.0000  plane waves:    1458
 k-point  65 :   0.3846 0.2308 0.0000  plane waves:    1458
 k-point  66 :   0.2692 0.2692 0.0000  plane waves:    1452
 k-point  67 :   0.3077 0.2692 0.0000  plane waves:    1458
 k-point  68 :   0.3462 0.2692 0.0000  plane waves:    1466
 k-point  69 :   0.3077 0.3077 0.0000  plane waves:    1476
 k-point  70 :   0.3462 0.3077 0.0000  plane waves:    1468

 maximum and minimum number of plane-waves per node :       385      357

 maximum number of plane-waves:      1504
 maximum index in each direction: 
   IXMAX=    4   IYMAX=    4   IZMAX=   19
   IXMIN=   -4   IYMIN=   -4   IZMIN=  -19


 parallel 3D FFT for wavefunctions:
    minimum data exchange during FFTs selected (reduces bandwidth)
 parallel 3D FFT for charge:
    minimum data exchange during FFTs selected (reduces bandwidth)


 total amount of memory used by VASP MPI-rank0    38053. kBytes
=======================================================================

   base      :      30000. kBytes
   nonl-proj :       2807. kBytes
   fftplans  :       2321. kBytes
   grid      :       1125. kBytes
   one-center:          8. kBytes
   wavefun   :       1792. kBytes
 
     INWAV:  cpu time      0.0000: real time      0.0000
 Broyden mixing: mesh for mixing (old mesh)
   NGX =  9   NGY =  9   NGZ = 39
  (NGX  = 36   NGY  = 36   NGZ  =160)
  gives a total of   3159 points

 initial charge density was supplied:
 charge density of overlapping atoms calculated
 number of electron      10.0000000 magnetization 
 keeping initial charge density in first step


--------------------------------------------------------------------------------------------------------


 Maximum index for augmentation-charges         3084 (set IRDMAX)


--------------------------------------------------------------------------------------------------------


 First call to EWALD:  gamma=   0.314
 Maximum number of real-space cells 5x 5x 1
 Maximum number of reciprocal cells 2x 2x 7

    FEWALD:  cpu time      0.0014: real time      0.0014


--------------------------------------- Ionic step        1  -------------------------------------------




--------------------------------------- Iteration      1(   1)  ---------------------------------------


    POTLOK:  cpu time      0.0103: real time      0.0103
    SETDIJ:  cpu time      0.1793: real time      0.1793
     EDDAV:  cpu time      0.3861: real time      0.3864
       DOS:  cpu time      0.0019: real time      0.0019
    --------------------------------------------
      LOOP:  cpu time      0.5775: real time      0.5779

 eigenvalue-minimisations  :  2248
 total energy-change (2. order) : 0.2992849E+02  (-0.2071762E+03)
 number of electron      10.0000000 magnetization 
 augmentation part       10.0000000 magnetization 

 Free energy of the ion-electron system (eV)
  ---------------------------------------------------
  alpha Z        PSCENC =         5.26383816
  Ewald energy   TEWEN  =       378.22030483
  -Hartree energ DENC   =      -664.27977220
  -exchange      EXHF   =         0.00000000
  -V(xc)+E(xc)   XCENC  =       -23.94414315
  PAW double counting   =       294.12882363     -251.25503797
  entropy T*S    EENTRO =        -0.00000234
  eigenvalues    EBANDS =       -48.56945547
  atomic energy  EATOM  =       340.36393574
  Solvation  Ediel_sol  =         0.00000000
  ---------------------------------------------------
  free energy    TOTEN  =        29.92849124 eV

  energy without entropy =       29.92849358  energy(sigma->0) =       29.92849241


--------------------------------------------------------------------------------------------------------




--------------------------------------- Iteration      1(   2)  ---------------------------------------


     EDDAV:  cpu time      0.4940: real time      0.4963
       DOS:  cpu time      0.0012: real time      0.0012
    --------------------------------------------
      LOOP:  cpu time      0.4952: real time      0.4975

 eigenvalue-minimisations  :  3136
 total energy-change (2. order) :-0.3598964E+02  (-0.3420904E+02)
 number of electron      10.0000000 magnetization 
 augmentation part       10.0000000 magnetization 

 Free energy of the ion-electron system (eV)
  ---------------------------------------------------
  alpha Z        PSCENC =         5.26383816
  Ewald energy   TEWEN  =       378.22030483
  -Hartree energ DENC   =      -664.27977220
  -exchange      EXHF   =         0.00000000
  -V(xc)+E(xc)   XCENC  =       -23.94414315
  PAW double counting   =       294.12882363     -251.25503797
  entropy T*S    EENTRO =        -0.00000000
  eigenvalues    EBANDS =       -84.55909686
  atomic energy  EATOM  =       340.36393574
  Solvation  Ediel_sol  =         0.00000000
  ---------------------------------------------------
  free energy    TOTEN  =        -6.06114781 eV

  energy without entropy =       -6.06114781  energy(sigma->0) =       -6.06114781


--------------------------------------------------------------------------------------------------------




--------------------------------------- Iteration      1(   3)  ---------------------------------------


     EDDAV:  cpu time      0.4776: real time      0.4780
       DOS:  cpu time      0.0013: real time      0.0013
    --------------------------------------------
      LOOP:  cpu time      0.4789: real time      0.4793

 eigenvalue-minimisations  :  3000
 total energy-change (2. order) :-0.3116937E+01  (-0.3107696E+01)
 number of electron      10.0000000 magnetization 
 augmentation part       10.0000000 magnetization 

 Free energy of the ion-electron system (eV)
  ---------------------------------------------------
  alpha Z        PSCENC =         5.26383816
  Ewald energy   TEWEN  =       378.22030483
  -Hartree energ DENC   =      -664.27977220
  -exchange      EXHF   =         0.00000000
  -V(xc)+E(xc)   XCENC  =       -23.94414315
  PAW double counting   =       294.12882363     -251.25503797
  entropy T*S    EENTRO =        -0.00000000
  eigenvalues    EBANDS =       -87.67603405
  atomic energy  EATOM  =       340.36393574
  Solvation  Ediel_sol  =         0.00000000
  ---------------------------------------------------
  free energy    TOTEN  =        -9.17808500 eV

  energy without entropy =       -9.17808500  energy(sigma->0) =       -9.17808500


--------------------------------------------------------------------------------------------------------




--------------------------------------- Iteration      1(   4)  ---------------------------------------


     EDDAV:  cpu time      0.5279: real time      0.5284
       DOS:  cpu time      0.0013: real time      0.0013
    --------------------------------------------
      LOOP:  cpu time      0.5293: real time      0.5297

 eigenvalue-minimisations  :  3464
 total energy-change (2. order) :-0.2222766E+00  (-0.2222665E+00)
 number of electron      10.0000000 magnetization 
 augmentation part       10.0000000 magnetization 

 Free energy of the ion-electron system (eV)
  ---------------------------------------------------
  alpha Z        PSCENC =         5.26383816
  Ewald energy   TEWEN  =       378.22030483
  -Hartree energ DENC   =      -664.27977220
  -exchange      EXHF   =         0.00000000
  -V(xc)+E(xc)   XCENC  =       -23.94414315
  PAW double counting   =       294.12882363     -251.25503797
  entropy T*S    EENTRO =        -0.00000000
  eigenvalues    EBANDS =       -87.89831068
  atomic energy  EATOM  =       340.36393574
  Solvation  Ediel_sol  =         0.00000000
  ---------------------------------------------------
  free energy    TOTEN  =        -9.40036163 eV

  energy without entropy =       -9.40036163  energy(sigma->0) =       -9.40036163


--------------------------------------------------------------------------------------------------------




--------------------------------------- Iteration      1(   5)  ---------------------------------------


     EDDAV:  cpu time      0.4818: real time      0.4822
       DOS:  cpu time      0.0013: real time      0.0013
    --------------------------------------------
      LOOP:  cpu time      0.4831: real time      0.4835

 eigenvalue-minimisations  :  3088
 total energy-change (2. order) :-0.2027893E-02  (-0.2027878E-02)
 number of electron      10.0000000 magnetization 
 augmentation part       10.0000000 magnetization 

 Free energy of the ion-electron system (eV)
  ---------------------------------------------------
  alpha Z        PSCENC =         5.26383816
  Ewald energy   TEWEN  =       378.22030483
  -Hartree energ DENC   =      -664.27977220
  -exchange      EXHF   =         0.00000000
  -V(xc)+E(xc)   XCENC  =       -23.94414315
  PAW double counting   =       294.12882363     -251.25503797
  entropy T*S    EENTRO =        -0.00000000
  eigenvalues    EBANDS =       -87.90033857
  atomic energy  EATOM  =       340.36393574
  Solvation  Ediel_sol  =         0.00000000
  ---------------------------------------------------
  free energy    TOTEN  =        -9.40238952 eV

  energy without entropy =       -9.40238952  energy(sigma->0) =       -9.40238952


--------------------------------------------------------------------------------------------------------




--------------------------------------- Iteration      1(   6)  ---------------------------------------


     EDDAV:  cpu time      0.5271: real time      0.5275
       DOS:  cpu time      0.0013: real time      0.0013
    --------------------------------------------
      LOOP:  cpu time      0.5285: real time      0.5289

 eigenvalue-minimisations  :  3472
 total energy-change (2. order) :-0.8147168E-04  (-0.8147179E-04)
 number of electron      10.0000000 magnetization 
 augmentation part       10.0000000 magnetization 

 Free energy of the ion-electron system (eV)
  ---------------------------------------------------
  alpha Z        PSCENC =         5.26383816
  Ewald energy   TEWEN  =       378.22030483
  -Hartree energ DENC   =      -664.27977220
  -exchange      EXHF   =         0.00000000
  -V(xc)+E(xc)   XCENC  =       -23.94414315
  PAW double counting   =       294.12882363     -251.25503797
  entropy T*S    EENTRO =        -0.00000000
  eigenvalues    EBANDS =       -87.90042004
  atomic energy  EATOM  =       340.36393574
  Solvation  Ediel_sol  =         0.00000000
  ---------------------------------------------------
  free energy    TOTEN  =        -9.40247099 eV

  energy without entropy =       -9.40247099  energy(sigma->0) =       -9.40247099


--------------------------------------------------------------------------------------------------------




--------------------------------------- Iteration      1(   7)  ---------------------------------------


     EDDAV:  cpu time      0.4880: real time      0.4884
       DOS:  cpu time      0.0013: real time      0.0013
    --------------------------------------------
      LOOP:  cpu time      0.4893: real time      0.4897

 eigenvalue-minimisations  :  3112
 total energy-change (2. order) :-0.5803133E-06  (-0.5804776E-06)
 number of electron      10.0000000 magnetization 
 augmentation part       10.0000000 magnetization 

 Free energy of the ion-electron system (eV)
  ---------------------------------------------------
  alpha Z        PSCENC =         5.26383816
  Ewald energy   TEWEN  =       378.22030483
  -Hartree energ DENC   =      -664.27977220
  -exchange      EXHF   =         0.00000000
  -V(xc)+E(xc)   XCENC  =       -23.94414315
  PAW double counting   =       294.12882363     -251.25503797
  entropy T*S    EENTRO =        -0.00000000
  eigenvalues    EBANDS =       -87.90042062
  atomic energy  EATOM  =       340.36393574
  Solvation  Ediel_sol  =         0.00000000
  ---------------------------------------------------
  free energy    TOTEN  =        -9.40247157 eV

  energy without entropy =       -9.40247157  energy(sigma->0) =       -9.40247157


--------------------------------------------------------------------------------------------------------




--------------------------------------- Iteration      1(   8)  ---------------------------------------


     EDDAV:  cpu time      0.4070: real time      0.4073
       DOS:  cpu time      0.0013: real time      0.0013
    --------------------------------------------
      LOOP:  cpu time      0.4083: real time      0.4086

 eigenvalue-minimisations  :  2416
 total energy-change (2. order) :-0.1474433E-07  (-0.1442122E-07)
 number of electron      10.0000000 magnetization 
 augmentation part       10.0000000 magnetization 

 Free energy of the ion-electron system (eV)
  ---------------------------------------------------
  alpha Z        PSCENC =         5.26383816
  Ewald energy   TEWEN  =       378.22030483
  -Hartree energ DENC   =      -664.27977220
  -exchange      EXHF   =         0.00000000
  -V(xc)+E(xc)   XCENC  =       -23.94414315
  PAW double counting   =       294.12882363     -251.25503797
  entropy T*S    EENTRO =        -0.00000000
  eigenvalues    EBANDS =       -87.90042064
  atomic energy  EATOM  =       340.36393574
  Solvation  Ediel_sol  =         0.00000000
  ---------------------------------------------------
  free energy    TOTEN  =        -9.40247159 eV

  energy without entropy =       -9.40247159  energy(sigma->0) =       -9.40247159


--------------------------------------------------------------------------------------------------------




--------------------------------------- Iteration      1(   9)  ---------------------------------------


     EDDAV:  cpu time      0.3671: real time      0.3674
       DOS:  cpu time      0.0013: real time      0.0013
    --------------------------------------------
      LOOP:  cpu time      0.3684: real time      0.3687

 eigenvalue-minimisations  :  2072
 total energy-change (2. order) :-0.2301135E-08  (-0.2300373E-08)
 number of electron      10.0000000 magnetization 
 augmentation part       10.0000000 magnetization 

 Free energy of the ion-electron system (eV)
  ---------------------------------------------------
  alpha Z        PSCENC =         5.26383816
  Ewald energy   TEWEN  =       378.22030483
  -Hartree energ DENC   =      -664.27977220
  -exchange      EXHF   =         0.00000000
  -V(xc)+E(xc)   XCENC  =       -23.94414315
  PAW double counting   =       294.12882363     -251.25503797
  entropy T*S    EENTRO =        -0.00000000
  eigenvalues    EBANDS =       -87.90042064
  atomic energy  EATOM  =       340.36393574
  Solvation  Ediel_sol  =         0.00000000
  ---------------------------------------------------
  free energy    TOTEN  =        -9.40247159 eV

  energy without entropy =       -9.40247159  energy(sigma->0) =       -9.40247159


--------------------------------------------------------------------------------------------------------




--------------------------------------- Iteration      1(  10)  ---------------------------------------


     EDDAV:  cpu time      0.3337: real time      0.3341
       DOS:  cpu time      0.0013: real time      0.0013
    --------------------------------------------
      LOOP:  cpu time      0.3350: real time      0.3354

 eigenvalue-minimisations  :  1648
 total energy-change (2. order) :-0.9638370E-09  (-0.9570116E-09)
 number of electron      10.0000000 magnetization 
 augmentation part       10.0000000 magnetization 

 Free energy of the ion-electron system (eV)
  ---------------------------------------------------
  alpha Z        PSCENC =         5.26383816
  Ewald energy   TEWEN  =       378.22030483
  -Hartree energ DENC   =      -664.27977220
  -exchange      EXHF   =         0.00000000
  -V(xc)+E(xc)   XCENC  =       -23.94414315
  PAW double counting   =       294.12882363     -251.25503797
  entropy T*S    EENTRO =        -0.00000000
  eigenvalues    EBANDS =       -87.90042064
  atomic energy  EATOM  =       340.36393574
  Solvation  Ediel_sol  =         0.00000000
  ---------------------------------------------------
  free energy    TOTEN  =        -9.40247159 eV

  energy without entropy =       -9.40247159  energy(sigma->0) =       -9.40247159


--------------------------------------------------------------------------------------------------------




--------------------------------------- Iteration      1(  11)  ---------------------------------------


     EDDAV:  cpu time      0.3401: real time      0.3404
       DOS:  cpu time      0.0013: real time      0.0013
    --------------------------------------------
      LOOP:  cpu time      0.3414: real time      0.3417

 eigenvalue-minimisations  :  1440
 total energy-change (2. order) :-0.4147296E-09  (-0.4455050E-09)
 number of electron      10.0000000 magnetization 
 augmentation part       10.0000000 magnetization 

 Free energy of the ion-electron system (eV)
  ---------------------------------------------------
  alpha Z        PSCENC =         5.26383816
  Ewald energy   TEWEN  =       378.22030483
  -Hartree energ DENC   =      -664.27977220
  -exchange      EXHF   =         0.00000000
  -V(xc)+E(xc)   XCENC  =       -23.94414315
  PAW double counting   =       294.12882363     -251.25503797
  entropy T*S    EENTRO =        -0.00000000
  eigenvalues    EBANDS =       -87.90042064
  atomic energy  EATOM  =       340.36393574
  Solvation  Ediel_sol  =         0.00000000
  ---------------------------------------------------
  free energy    TOTEN  =        -9.40247159 eV

  energy without entropy =       -9.40247159  energy(sigma->0) =       -9.40247159


--------------------------------------------------------------------------------------------------------




--------------------------------------- Iteration      1(  12)  ---------------------------------------


     EDDAV:  cpu time      0.3367: real time      0.3370
       DOS:  cpu time      0.0021: real time      0.0021
    CHARGE:  cpu time      0.0315: real time      0.0315
    MIXING:  cpu time      0.0007: real time      0.0007
    --------------------------------------------
      LOOP:  cpu time      0.3710: real time      0.3713

 eigenvalue-minimisations  :  1376
 total energy-change (2. order) :-0.2543175E-09  (-0.2093405E-09)
 number of electron       9.9999999 magnetization 
 augmentation part       -1.6439098 magnetization 

 Broyden mixing:
  rms(total) = 0.19301E+00    rms(broyden)= 0.19289E+00
  rms(prec ) = 0.21689E+00
  weight for this iteration     100.00

 Free energy of the ion-electron system (eV)
  ---------------------------------------------------
  alpha Z        PSCENC =         5.26383816
  Ewald energy   TEWEN  =       378.22030483
  -Hartree energ DENC   =      -664.27977220
  -exchange      EXHF   =         0.00000000
  -V(xc)+E(xc)   XCENC  =       -23.94414315
  PAW double counting   =       294.12882363     -251.25503797
  entropy T*S    EENTRO =        -0.00000000
  eigenvalues    EBANDS =       -87.90042064
  atomic energy  EATOM  =       340.36393574
  Solvation  Ediel_sol  =         0.00000000
  ---------------------------------------------------
  free energy    TOTEN  =        -9.40247159 eV

  energy without entropy =       -9.40247159  energy(sigma->0) =       -9.40247159


--------------------------------------------------------------------------------------------------------




--------------------------------------- Iteration      1(  13)  ---------------------------------------


    POTLOK:  cpu time      0.0104: real time      0.0104
    SETDIJ:  cpu time      0.2550: real time      0.2551
     EDDAV:  cpu time      0.6217: real time      0.6222
       DOS:  cpu time      0.0020: real time      0.0020
    CHARGE:  cpu time      0.0291: real time      0.0291
    MIXING:  cpu time      0.0010: real time      0.0010
    --------------------------------------------
      LOOP:  cpu time      0.9192: real time      0.9198

 eigenvalue-minimisations  :  2736
 total energy-change (2. order) : 0.1459141E-01  (-0.1899834E-03)
 number of electron       9.9999999 magnetization 
 augmentation part       -1.6410355 magnetization 

 Broyden mixing:
  rms(total) = 0.17203E+00    rms(broyden)= 0.17203E+00
  rms(prec ) = 0.19302E+00
  weight for this iteration     100.00

 eigenvalues of (default mixing * dielectric matrix)
  average eigenvalue GAMMA=   9.0736
  9.0736

 Free energy of the ion-electron system (eV)
  ---------------------------------------------------
  alpha Z        PSCENC =         5.26383816
  Ewald energy   TEWEN  =       378.22030483
  -Hartree energ DENC   =      -665.14012208
  -exchange      EXHF   =         0.00000000
  -V(xc)+E(xc)   XCENC  =       -23.89630612
  PAW double counting   =       298.45426119     -255.59679251
  entropy T*S    EENTRO =        -0.00000000
  eigenvalues    EBANDS =       -87.05699940
  atomic energy  EATOM  =       340.36393574
  Solvation  Ediel_sol  =         0.00000000
  ---------------------------------------------------
  free energy    TOTEN  =        -9.38788019 eV

  energy without entropy =       -9.38788019  energy(sigma->0) =       -9.38788019


--------------------------------------------------------------------------------------------------------




--------------------------------------- Iteration      1(  14)  ---------------------------------------


    POTLOK:  cpu time      0.0106: real time      0.0107
    SETDIJ:  cpu time      0.2707: real time      0.2708
     EDDAV:  cpu time      0.6413: real time      0.6417
       DOS:  cpu time      0.0021: real time      0.0021
    CHARGE:  cpu time      0.0337: real time      0.0337
    MIXING:  cpu time      0.0008: real time      0.0008
    --------------------------------------------
      LOOP:  cpu time      0.9592: real time      0.9598

 eigenvalue-minimisations  :  2872
 total energy-change (2. order) : 0.4255189E-01  (-0.1091364E-01)
 number of electron       9.9999999 magnetization 
 augmentation part       -1.6198899 magnetization 

 Broyden mixing:
  rms(total) = 0.21983E-01    rms(broyden)= 0.21978E-01
  rms(prec ) = 0.28252E-01
  weight for this iteration     100.00

 eigenvalues of (default mixing * dielectric matrix)
  average eigenvalue GAMMA=   7.2182
  6.3753  8.0610

 Free energy of the ion-electron system (eV)
  ---------------------------------------------------
  alpha Z        PSCENC =         5.26383816
  Ewald energy   TEWEN  =       378.22030483
  -Hartree energ DENC   =      -671.76068094
  -exchange      EXHF   =         0.00000000
  -V(xc)+E(xc)   XCENC  =       -23.49040891
  PAW double counting   =       333.33142596     -290.60880530
  entropy T*S    EENTRO =        -0.00000000
  eigenvalues    EBANDS =       -80.66493783
  atomic energy  EATOM  =       340.36393574
  Solvation  Ediel_sol  =         0.00000000
  ---------------------------------------------------
  free energy    TOTEN  =        -9.34532829 eV

  energy without entropy =       -9.34532829  energy(sigma->0) =       -9.34532829


--------------------------------------------------------------------------------------------------------




--------------------------------------- Iteration      1(  15)  ---------------------------------------


    POTLOK:  cpu time      0.0118: real time      0.0118
    SETDIJ:  cpu time      0.2620: real time      0.2621
     EDDAV:  cpu time      0.6530: real time      0.6535
       DOS:  cpu time      0.0021: real time      0.0021
    CHARGE:  cpu time      0.0339: real time      0.0339
    MIXING:  cpu time      0.0010: real time      0.0010
    --------------------------------------------
      LOOP:  cpu time      0.9638: real time      0.9644

 eigenvalue-minimisations  :  2936
 total energy-change (2. order) : 0.3612040E-02  (-0.1137857E-02)
 number of electron       9.9999999 magnetization 
 augmentation part       -1.6244454 magnetization 

 Broyden mixing:
  rms(total) = 0.11113E-01    rms(broyden)= 0.11112E-01
  rms(prec ) = 0.12193E-01
  weight for this iteration     100.00

 eigenvalues of (default mixing * dielectric matrix)
  average eigenvalue GAMMA=   5.6516
  1.0086  9.5738  6.3723

 Free energy of the ion-electron system (eV)
  ---------------------------------------------------
  alpha Z        PSCENC =         5.26383816
  Ewald energy   TEWEN  =       378.22030483
  -Hartree energ DENC   =      -670.06902089
  -exchange      EXHF   =         0.00000000
  -V(xc)+E(xc)   XCENC  =       -23.51464040
  PAW double counting   =       331.09738544     -288.36603805
  entropy T*S    EENTRO =        -0.00000000
  eigenvalues    EBANDS =       -82.33748110
  atomic energy  EATOM  =       340.36393574
  Solvation  Ediel_sol  =         0.00000000
  ---------------------------------------------------
  free energy    TOTEN  =        -9.34171625 eV

  energy without entropy =       -9.34171625  energy(sigma->0) =       -9.34171625


--------------------------------------------------------------------------------------------------------




--------------------------------------- Iteration      1(  16)  ---------------------------------------


    POTLOK:  cpu time      0.0117: real time      0.0117
    SETDIJ:  cpu time      0.2610: real time      0.2611
     EDDAV:  cpu time      0.6882: real time      0.6887
       DOS:  cpu time      0.0020: real time      0.0020
    CHARGE:  cpu time      0.0339: real time      0.0339
    MIXING:  cpu time      0.0010: real time      0.0010
    --------------------------------------------
      LOOP:  cpu time      0.9977: real time      0.9983

 eigenvalue-minimisations  :  3088
 total energy-change (2. order) :-0.1432555E-03  (-0.9051117E-04)
 number of electron       9.9999999 magnetization 
 augmentation part       -1.6260621 magnetization 

 Broyden mixing:
  rms(total) = 0.48009E-02    rms(broyden)= 0.48002E-02
  rms(prec ) = 0.58821E-02
  weight for this iteration     100.00

 eigenvalues of (default mixing * dielectric matrix)
  average eigenvalue GAMMA=   4.9778
  9.1478  1.0002  4.8817  4.8817

 Free energy of the ion-electron system (eV)
  ---------------------------------------------------
  alpha Z        PSCENC =         5.26383816
  Ewald energy   TEWEN  =       378.22030483
  -Hartree energ DENC   =      -669.95212367
  -exchange      EXHF   =         0.00000000
  -V(xc)+E(xc)   XCENC  =       -23.49837770
  PAW double counting   =       332.25553347     -289.52799832
  entropy T*S    EENTRO =        -0.00000000
  eigenvalues    EBANDS =       -82.46697202
  atomic energy  EATOM  =       340.36393574
  Solvation  Ediel_sol  =         0.00000000
  ---------------------------------------------------
  free energy    TOTEN  =        -9.34185951 eV

  energy without entropy =       -9.34185951  energy(sigma->0) =       -9.34185951


--------------------------------------------------------------------------------------------------------




--------------------------------------- Iteration      1(  17)  ---------------------------------------


    POTLOK:  cpu time      0.0117: real time      0.0117
    SETDIJ:  cpu time      0.2622: real time      0.2623
     EDDAV:  cpu time      0.7450: real time      0.7457
       DOS:  cpu time      0.0021: real time      0.0021
    CHARGE:  cpu time      0.0346: real time      0.0346
    MIXING:  cpu time      0.0007: real time      0.0007
    --------------------------------------------
      LOOP:  cpu time      1.0563: real time      1.0571

 eigenvalue-minimisations  :  3128
 total energy-change (2. order) : 0.9802354E-04  (-0.5609417E-04)
 number of electron       9.9999999 magnetization 
 augmentation part       -1.6252412 magnetization 

 Broyden mixing:
  rms(total) = 0.35962E-02    rms(broyden)= 0.35960E-02
  rms(prec ) = 0.40612E-02
  weight for this iteration     100.00

 eigenvalues of (default mixing * dielectric matrix)
  average eigenvalue GAMMA=   4.9707
 10.0757  7.7541  5.0141  1.0048  1.0048

 Free energy of the ion-electron system (eV)
  ---------------------------------------------------
  alpha Z        PSCENC =         5.26383816
  Ewald energy   TEWEN  =       378.22030483
  -Hartree energ DENC   =      -670.20273547
  -exchange      EXHF   =         0.00000000
  -V(xc)+E(xc)   XCENC  =       -23.49617019
  PAW double counting   =       332.28796227     -289.56049399
  entropy T*S    EENTRO =        -0.00000000
  eigenvalues    EBANDS =       -82.21840283
  atomic energy  EATOM  =       340.36393574
  Solvation  Ediel_sol  =         0.00000000
  ---------------------------------------------------
  free energy    TOTEN  =        -9.34176149 eV

  energy without entropy =       -9.34176149  energy(sigma->0) =       -9.34176149


--------------------------------------------------------------------------------------------------------




--------------------------------------- Iteration      1(  18)  ---------------------------------------


    POTLOK:  cpu time      0.0123: real time      0.0123
    SETDIJ:  cpu time      0.2597: real time      0.2599
     EDDAV:  cpu time      0.6021: real time      0.6027
       DOS:  cpu time      0.0020: real time      0.0020
    CHARGE:  cpu time      0.0339: real time      0.0339
    MIXING:  cpu time      0.0007: real time      0.0007
    --------------------------------------------
      LOOP:  cpu time      0.9107: real time      0.9116

 eigenvalue-minimisations  :  2472
 total energy-change (2. order) : 0.9892474E-05  (-0.1049330E-04)
 number of electron       9.9999999 magnetization 
 augmentation part       -1.6261165 magnetization 

 Broyden mixing:
  rms(total) = 0.61333E-03    rms(broyden)= 0.61278E-03
  rms(prec ) = 0.68615E-03
  weight for this iteration     100.00

 eigenvalues of (default mixing * dielectric matrix)
  average eigenvalue GAMMA=   4.3991
 10.0325  7.3838  5.0115  0.9420  1.0952  1.9297

 Free energy of the ion-electron system (eV)
  ---------------------------------------------------
  alpha Z        PSCENC =         5.26383816
  Ewald energy   TEWEN  =       378.22030483
  -Hartree energ DENC   =      -670.06808774
  -exchange      EXHF   =         0.00000000
  -V(xc)+E(xc)   XCENC  =       -23.49390145
  PAW double counting   =       332.25490696     -289.52702334
  entropy T*S    EENTRO =        -0.00000000
  eigenvalues    EBANDS =       -82.35572475
  atomic energy  EATOM  =       340.36393574
  Solvation  Ediel_sol  =         0.00000000
  ---------------------------------------------------
  free energy    TOTEN  =        -9.34175159 eV

  energy without entropy =       -9.34175159  energy(sigma->0) =       -9.34175159


--------------------------------------------------------------------------------------------------------




--------------------------------------- Iteration      1(  19)  ---------------------------------------


    POTLOK:  cpu time      0.0122: real time      0.0123
    SETDIJ:  cpu time      0.2606: real time      0.2607
     EDDAV:  cpu time      0.7440: real time      0.7448
       DOS:  cpu time      0.0021: real time      0.0021
    CHARGE:  cpu time      0.0354: real time      0.0355
    MIXING:  cpu time      0.0008: real time      0.0008
    --------------------------------------------
      LOOP:  cpu time      1.0552: real time      1.0563

 eigenvalue-minimisations  :  3104
 total energy-change (2. order) :-0.1275412E-05  (-0.7558484E-06)
 number of electron       9.9999999 magnetization 
 augmentation part       -1.6263287 magnetization 

 Broyden mixing:
  rms(total) = 0.54801E-03    rms(broyden)= 0.54798E-03
  rms(prec ) = 0.58943E-03
  weight for this iteration     100.00

 eigenvalues of (default mixing * dielectric matrix)
  average eigenvalue GAMMA=   4.6101
 10.2279  8.2788  5.6223  5.0770  1.0748  0.9948  0.9948

 Free energy of the ion-electron system (eV)
  ---------------------------------------------------
  alpha Z        PSCENC =         5.26383816
  Ewald energy   TEWEN  =       378.22030483
  -Hartree energ DENC   =      -670.07567498
  -exchange      EXHF   =         0.00000000
  -V(xc)+E(xc)   XCENC  =       -23.49350914
  PAW double counting   =       332.30315660     -289.57544273
  entropy T*S    EENTRO =        -0.00000000
  eigenvalues    EBANDS =       -82.34836136
  atomic energy  EATOM  =       340.36393574
  Solvation  Ediel_sol  =         0.00000000
  ---------------------------------------------------
  free energy    TOTEN  =        -9.34175287 eV

  energy without entropy =       -9.34175287  energy(sigma->0) =       -9.34175287


--------------------------------------------------------------------------------------------------------




--------------------------------------- Iteration      1(  20)  ---------------------------------------


    POTLOK:  cpu time      0.0125: real time      0.0127
    SETDIJ:  cpu time      0.2725: real time      0.2727
     EDDAV:  cpu time      0.6684: real time      0.6691
       DOS:  cpu time      0.0022: real time      0.0022
    CHARGE:  cpu time      0.0384: real time      0.0385
    MIXING:  cpu time      0.0009: real time      0.0009
    --------------------------------------------
      LOOP:  cpu time      0.9949: real time      0.9960

 eigenvalue-minimisations  :  2472
 total energy-change (2. order) :-0.1024624E-05  (-0.1027967E-06)
 number of electron       9.9999999 magnetization 
 augmentation part       -1.6263347 magnetization 

 Broyden mixing:
  rms(total) = 0.17563E-03    rms(broyden)= 0.17558E-03
  rms(prec ) = 0.20593E-03
  weight for this iteration     100.00

 eigenvalues of (default mixing * dielectric matrix)
  average eigenvalue GAMMA=   4.4913
 10.3204  8.9841  7.3991  4.9635  0.9622  1.0905  1.0905  1.1200

 Free energy of the ion-electron system (eV)
  ---------------------------------------------------
  alpha Z        PSCENC =         5.26383816
  Ewald energy   TEWEN  =       378.22030483
  -Hartree energ DENC   =      -670.07259093
  -exchange      EXHF   =         0.00000000
  -V(xc)+E(xc)   XCENC  =       -23.49349314
  PAW double counting   =       332.29758594     -289.56976099
  entropy T*S    EENTRO =        -0.00000000
  eigenvalues    EBANDS =       -82.35157350
  atomic energy  EATOM  =       340.36393574
  Solvation  Ediel_sol  =         0.00000000
  ---------------------------------------------------
  free energy    TOTEN  =        -9.34175389 eV

  energy without entropy =       -9.34175389  energy(sigma->0) =       -9.34175389


--------------------------------------------------------------------------------------------------------




--------------------------------------- Iteration      1(  21)  ---------------------------------------


    POTLOK:  cpu time      0.0142: real time      0.0144
    SETDIJ:  cpu time      0.2700: real time      0.2702
     EDDAV:  cpu time      0.6697: real time      0.6705
       DOS:  cpu time      0.0022: real time      0.0022
    --------------------------------------------
      LOOP:  cpu time      0.9560: real time      0.9573

 eigenvalue-minimisations  :  2224
 total energy-change (2. order) : 0.8178233E-08  (-0.2111394E-07)
 number of electron       9.9999999 magnetization 
 augmentation part       -1.6263347 magnetization 

 Free energy of the ion-electron system (eV)
  ---------------------------------------------------
  alpha Z        PSCENC =         5.26383816
  Ewald energy   TEWEN  =       378.22030483
  -Hartree energ DENC   =      -670.07718462
  -exchange      EXHF   =         0.00000000
  -V(xc)+E(xc)   XCENC  =       -23.49331819
  PAW double counting   =       332.31907464     -289.59130000
  entropy T*S    EENTRO =        -0.00000000
  eigenvalues    EBANDS =       -82.34710445
  atomic energy  EATOM  =       340.36393574
  Solvation  Ediel_sol  =         0.00000000
  ---------------------------------------------------
  free energy    TOTEN  =        -9.34175389 eV

  energy without entropy =       -9.34175389  energy(sigma->0) =       -9.34175389


--------------------------------------------------------------------------------------------------------




 average (electrostatic) potential at core
  the test charge radii are     1.0621
  (the norm of the test charge is              1.0000)
       1 -57.2649       2 -57.2649
 
 
 
 E-fermi :  -2.9707     XC(G=0):  -3.2504     alpha+bet : -2.4472

 Fermi energy:        -2.9706948948

 k-point     1 :       0.0000    0.0000    0.0000
  band No.  band energies     occupation 
      1     -16.4751      2.00000
      2     -10.1873      2.00000
      3      -3.5630      2.00000
      4      -3.0141      2.00000
      5      -3.0141      2.00000
      6      -1.0920      0.00000
      7       0.4769      0.00000
      8       0.4769      0.00000
      9       1.9034      0.00000
     10       1.9965      0.00000
     11       3.3760      0.00000
     12       4.3041      0.00000
     13       5.8641      0.00000
     14       6.8853      0.00000
     15       7.0689      0.00000
     16       7.0689      0.00000

 k-point     2 :       0.0385    0.0000    0.0000
  band No.  band energies     occupation 
      1     -16.4555      2.00000
      2     -10.1842      2.00000
      3      -3.5531      2.00000
      4      -3.2640      2.00000
      5      -3.0611      2.00000
      6      -0.8766      0.00000
      7       0.4247      0.00000
      8       0.5256      0.00000
      9       1.9316      0.00000
     10       2.0210      0.00000
     11       3.3988      0.00000
     12       4.3276      0.00000
     13       5.9528      0.00000
     14       6.5596      0.00000
     15       7.0433      0.00000
     16       7.3011      0.00000

 k-point     3 :       0.0769    0.0000    0.0000
  band No.  band energies     occupation 
      1     -16.3967      2.00000
      2     -10.1768      2.00000
      3      -3.8043      2.00000
      4      -3.5250      2.00000
      5      -3.1914      2.00000
      6      -0.5080      0.00000
      7       0.3552      0.00000
      8       0.6578      0.00000
      9       2.0158      0.00000
     10       2.0924      0.00000
     11       3.4620      0.00000
     12       4.3976      0.00000
     13       6.0389      0.00000
     14       6.2412      0.00000
     15       6.9921      0.00000
     16       7.4266      0.00000

 k-point     4 :       0.1154   -0.0000    0.0000
  band No.  band energies     occupation 
      1     -16.2991      2.00000
      2     -10.1714      2.00000
      3      -4.4204      2.00000
      4      -3.4835      2.00000
      5      -3.3797      2.00000
      6      -0.4476      0.00000
      7       0.5494      0.00000
      8       0.8402      0.00000
      9       2.1454      0.00000
     10       2.2155      0.00000
     11       3.5561      0.00000
     12       4.5094      0.00000
     13       5.6218      0.00000
     14       6.4607      0.00000
     15       6.9682      0.00000
     16       7.2642      0.00000

 k-point     5 :       0.1538    0.0000    0.0000
  band No.  band energies     occupation 
      1     -16.1634      2.00000
      2     -10.1793      2.00000
      3      -5.0255      2.00000
      4      -3.5990      2.00000
      5      -3.4379      2.00000
      6      -0.6746      0.00000
      7       0.9244      0.00000
      8       1.0350      0.00000
      9       2.2875      0.00000
     10       2.4042      0.00000
     11       3.6776      0.00000
     12       4.6434      0.00000
     13       5.3185      0.00000
     14       6.4813      0.00000
     15       7.0197      0.00000
     16       7.2309      0.00000

 k-point     6 :       0.1923    0.0000    0.0000
  band No.  band energies     occupation 
      1     -15.9906      2.00000
      2     -10.2176      2.00000
      3      -5.5734      2.00000
      4      -3.8281      2.00000
      5      -3.4047      2.00000
      6      -0.9541      0.00000
      7       1.2104      0.00000
      8       1.2127      0.00000
      9       2.4319      0.00000
     10       2.6276      0.00000
     11       3.8354      0.00000
     12       4.7562      0.00000
     13       5.2874      0.00000
     14       6.2811      0.00000
     15       7.1794      0.00000
     16       7.3831      0.00000

 k-point     7 :       0.2308   -0.0000    0.0000
  band No.  band energies     occupation 
      1     -15.7823      2.00000
      2     -10.3085      2.00000
      3      -6.0281      2.00000
      4      -4.0517      2.00000
      5      -3.4090      2.00000
      6      -1.1983      0.00000
      7       1.3104      0.00000
      8       1.3462      0.00000
      9       2.5965      0.00000
     10       2.8585      0.00000
     11       4.0275      0.00000
     12       4.8955      0.00000
     13       5.4604      0.00000
     14       6.1496      0.00000
     15       7.4643      0.00000
     16       7.5318      0.00000

 k-point     8 :       0.2692    0.0000    0.0000
  band No.  band energies     occupation 
      1     -15.5409      2.00000
      2     -10.4729      2.00000
      3      -6.3609      2.00000
      4      -4.2590      2.00000
      5      -3.4793      2.00000
      6      -1.3599      0.00000
      7       1.2086      0.00000
      8       1.4363      0.00000
      9       2.8255      0.00000
     10       3.1024      0.00000
     11       4.1964      0.00000
     12       5.1227      0.00000
     13       5.5468      0.00000
     14       6.3822      0.00000
     15       7.5551      0.00000
     16       7.8762      0.00000

 k-point     9 :       0.3077    0.0000    0.0000
  band No.  band energies     occupation 
      1     -15.2702      2.00000
      2     -10.7197      2.00000
      3      -6.5581      2.00000
      4      -4.4429      2.00000
      5      -3.6309      2.00000
      6      -1.4173      0.00000
      7       0.9886      0.00000
      8       1.4856      0.00000
      9       3.1299      0.00000
     10       3.3433      0.00000
     11       4.2861      0.00000
     12       5.3665      0.00000
     13       5.6577      0.00000
     14       6.8990      0.00000
     15       7.4049      0.00000
     16       8.4042      0.00000

 k-point    10 :       0.3462   -0.0000    0.0000
  band No.  band energies     occupation 
      1     -14.9767      2.00000
      2     -11.0362      2.00000
      3      -6.6299      2.00000
      4      -4.5984      2.00000
      5      -3.8493      2.00000
      6      -1.3826      0.00000
      7       0.7350      0.00000
      8       1.5047      0.00000
      9       3.4944      0.00000
     10       3.5070      0.00000
     11       4.3600      0.00000
     12       5.5749      0.00000
     13       5.9692      0.00000
     14       7.0856      0.00000
     15       7.5426      0.00000
     16       8.1270      0.00000

 k-point    11 :       0.3846    0.0000    0.0000
  band No.  band energies     occupation 
      1     -14.6721      2.00000
      2     -11.3907      2.00000
      3      -6.6059      2.00000
      4      -4.7222      2.00000
      5      -4.0984      2.00000
      6      -1.2894      0.00000
      7       0.4976      0.00000
      8       1.5060      0.00000
      9       3.5026      0.00000
     10       3.9098      0.00000
     11       4.5722      0.00000
     12       5.7955      0.00000
     13       6.3795      0.00000
     14       6.8945      0.00000
     15       7.3972      0.00000
     16       7.9669      0.00000

 k-point    12 :       0.4231    0.0000    0.0000
  band No.  band energies     occupation 
      1     -14.3796      2.00000
      2     -11.7369      2.00000
      3      -6.5283      2.00000
      4      -4.8120      2.00000
      5      -4.3350      2.00000
      6      -1.1771      0.00000
      7       0.3032      0.00000
      8       1.4994      0.00000
      9       3.3989      0.00000
     10       4.3668      0.00000
     11       4.9176      0.00000
     12       5.9597      0.00000
     13       6.6514      0.00000
     14       6.8389      0.00000
     15       6.9387      0.00000
     16       7.5651      0.00000

 k-point    13 :       0.4615   -0.0000    0.0000
  band No.  band energies     occupation 
      1     -14.1465      2.00000
      2     -12.0093      2.00000
      3      -6.4466      2.00000
      4      -4.8665      2.00000
      5      -4.5109      2.00000
      6      -1.0847      0.00000
      7       0.1721      0.00000
      8       1.4925      0.00000
      9       3.3018      0.00000
     10       4.8555      0.00000
     11       5.2990      0.00000
     12       5.9062      0.00000
     13       6.2304      0.00000
     14       6.7218      0.00000
     15       7.3189      0.00000
     16       7.3711      0.00000

 k-point    14 :       0.5000    0.0000    0.0000
  band No.  band energies     occupation 
      1     -14.0518      2.00000
      2     -12.1183      2.00000
      3      -6.4113      2.00000
      4      -4.8847      2.00000
      5      -4.5772      2.00000
      6      -1.0482      0.00000
      7       0.1249      0.00000
      8       1.4897      0.00000
      9       3.2644      0.00000
     10       5.2689      0.00000
     11       5.4063      0.00000
     12       5.7095      0.00000
     13       6.0507      0.00000
     14       6.5901      0.00000
     15       7.3639      0.00000
     16       7.8230      0.00000

 k-point    15 :       0.0385    0.0385    0.0000
  band No.  band energies     occupation 
      1     -16.4162      2.00000
      2     -10.1789      2.00000
      3      -3.6409      2.00000
      4      -3.5341      2.00000
      5      -3.1583      2.00000
      6      -0.5775      0.00000
      7       0.3244      0.00000
      8       0.6391      0.00000
      9       1.9885      0.00000
     10       2.0684      0.00000
     11       3.4416      0.00000
     12       4.3745      0.00000
     13       6.0784      0.00000
     14       6.2669      0.00000
     15       6.9676      0.00000
     16       7.5105      0.00000

 k-point    16 :       0.0769    0.0385    0.0000
  band No.  band energies     occupation 
      1     -16.3381      2.00000
      2     -10.1724      2.00000
      3      -4.1859      2.00000
      4      -3.4999      2.00000
      5      -3.3366      2.00000
      6      -0.3018      0.00000
      7       0.2573      0.00000
      8       0.8520      0.00000
      9       2.1009      0.00000
     10       2.1609      0.00000
     11       3.5189      0.00000
     12       4.4662      0.00000
     13       5.7751      0.00000
     14       6.4089      0.00000
     15       6.8531      0.00000
     16       7.4132      0.00000

 k-point    17 :       0.1154    0.0385    0.0000
  band No.  band energies     occupation 
      1     -16.2214      2.00000
      2     -10.1734      2.00000
      3      -4.7706      2.00000
      4      -3.5665      2.00000
      5      -3.4511      2.00000
      6      -0.4187      0.00000
      7       0.5064      0.00000
      8       1.1063      0.00000
      9       2.2431      0.00000
     10       2.3132      0.00000
     11       3.6225      0.00000
     12       4.5942      0.00000
     13       5.4052      0.00000
     14       6.5434      0.00000
     15       6.8726      0.00000
     16       7.3005      0.00000

 k-point    18 :       0.1538    0.0385    0.0000
  band No.  band energies     occupation 
      1     -16.0671      2.00000
      2     -10.1959      2.00000
      3      -5.3295      2.00000
      4      -3.8091      2.00000
      5      -3.4109      2.00000
      6      -0.6923      0.00000
      7       0.8182      0.00000
      8       1.3348      0.00000
      9       2.3847      0.00000
     10       2.5232      0.00000
     11       3.7537      0.00000
     12       4.7252      0.00000
     13       5.2201      0.00000
     14       6.4150      0.00000
     15       7.0854      0.00000
     16       7.3077      0.00000

 k-point    19 :       0.1923    0.0385    0.0000
  band No.  band energies     occupation 
      1     -15.8765      2.00000
      2     -10.2598      2.00000
[...]
      7       0.4639      0.00000
      8       1.6942      0.00000
      9       2.9434      0.00000
     10       2.9968      0.00000
     11       3.9575      0.00000
     12       5.0215      0.00000
     13       5.3177      0.00000
     14       6.3603      0.00000
     15       7.4691      0.00000
     16       7.8923      0.00000

 k-point    48 :       0.1923    0.1538    0.0000
  band No.  band energies     occupation 
      1     -15.3186      2.00000
      2     -10.6188      2.00000
      3      -6.2643      2.00000
      4      -5.3528      2.00000
      5      -3.4435      2.00000
      6      -0.2922      0.00000
      7       0.5019      0.00000
      8       1.6451      0.00000
      9       3.1683      0.00000
     10       3.2698      0.00000
     11       4.1023      0.00000
     12       5.1923      0.00000
     13       5.6036      0.00000
     14       6.1170      0.00000
     15       7.5263      0.00000
     16       8.3026      0.00000

 k-point    49 :       0.2308    0.1538    0.0000
  band No.  band energies     occupation 
      1     -15.0507      2.00000
      2     -10.8703      2.00000
      3      -6.3629      2.00000
      4      -5.6204      2.00000
      5      -3.5670      2.00000
      6      -0.3441      0.00000
      7       0.5248      0.00000
      8       1.5470      0.00000
      9       3.4427      0.00000
     10       3.5796      0.00000
     11       4.3251      0.00000
     12       5.4398      0.00000
     13       5.9035      0.00000
     14       5.9421      0.00000
     15       7.5013      0.00000
     16       8.4318      0.00000

 k-point    50 :       0.2692    0.1538    0.0000
  band No.  band energies     occupation 
      1     -14.7591      2.00000
      2     -11.1758      2.00000
      3      -6.4401      2.00000
      4      -5.7642      2.00000
      5      -3.7540      2.00000
      6      -0.3637      0.00000
      7       0.5127      0.00000
      8       1.4277      0.00000
      9       3.7679      0.00000
     10       3.8663      0.00000
     11       4.5519      0.00000
     12       5.7198      0.00000
     13       5.8798      0.00000
     14       6.3253      0.00000
     15       7.4413      0.00000
     16       8.1809      0.00000

 k-point    51 :       0.3077    0.1538    0.0000
  band No.  band energies     occupation 
      1     -14.4543      2.00000
      2     -11.5124      2.00000
      3      -6.5271      2.00000
      4      -5.7656      2.00000
      5      -3.9902      2.00000
      6      -0.3474      0.00000
      7       0.4856      0.00000
      8       1.3149      0.00000
      9       3.9199      0.00000
     10       4.2193      0.00000
     11       4.8000      0.00000
     12       5.9956      0.00000
     13       6.0997      0.00000
     14       6.7435      0.00000
     15       7.3928      0.00000
     16       7.6922      0.00000

 k-point    52 :       0.3462    0.1538    0.0000
  band No.  band energies     occupation 
      1     -14.1568      2.00000
      2     -11.8450      2.00000
      3      -6.6128      2.00000
      4      -5.6609      2.00000
      5      -4.2462      2.00000
      6      -0.3136      0.00000
      7       0.4626      0.00000
      8       1.2271      0.00000
      9       3.8485      0.00000
     10       4.6720      0.00000
     11       5.1557      0.00000
     12       6.2723      0.00000
     13       6.3137      0.00000
     14       6.9559      0.00000
     15       7.1779      0.00000
     16       7.6518      0.00000

 k-point    53 :       0.3846    0.1538    0.0000
  band No.  band energies     occupation 
      1     -13.9127      2.00000
      2     -12.1154      2.00000
      3      -6.6726      2.00000
      4      -5.5201      2.00000
      5      -4.4718      2.00000
      6      -0.2840      0.00000
      7       0.4508      0.00000
      8       1.1729      0.00000
      9       3.7433      0.00000
     10       5.1720      0.00000
     11       5.5759      0.00000
     12       6.1791      0.00000
     13       6.3970      0.00000
     14       6.6122      0.00000
     15       7.2690      0.00000
     16       7.6715      0.00000

 k-point    54 :       0.4231    0.1538    0.0000
  band No.  band energies     occupation 
      1     -13.8101      2.00000
      2     -12.2276      2.00000
      3      -6.6936      2.00000
      4      -5.4466      2.00000
      5      -4.5728      2.00000
      6      -0.2728      0.00000
      7       0.4479      0.00000
      8       1.1547      0.00000
      9       3.6992      0.00000
     10       5.6608      0.00000
     11       5.7518      0.00000
     12       5.9749      0.00000
     13       6.0247      0.00000
     14       6.7999      0.00000
     15       7.0326      0.00000
     16       8.1977      0.00000

 k-point    55 :       0.1923    0.1923    0.0000
  band No.  band energies     occupation 
      1     -15.0670      2.00000
      2     -10.8439      2.00000
      3      -6.2795      2.00000
      4      -5.7581      2.00000
      5      -3.5411      2.00000
      6      -0.1254      0.00000
      7       0.3061      0.00000
      8       1.6962      0.00000
      9       3.4817      0.00000
     10       3.4972      0.00000
     11       4.2522      0.00000
     12       5.3932      0.00000
     13       5.8614      0.00000
     14       5.9280      0.00000
     15       7.3900      0.00000
     16       8.6540      0.00000

 k-point    56 :       0.2308    0.1923    0.0000
  band No.  band energies     occupation 
      1     -14.7884      2.00000
      2     -11.1204      2.00000
      3      -6.2889      2.00000
      4      -6.0358      2.00000
      5      -3.6944      2.00000
      6      -0.0862      0.00000
      7       0.2175      0.00000
      8       1.7070      0.00000
      9       3.7683      0.00000
     10       3.8304      0.00000
     11       4.5005      0.00000
     12       5.6331      0.00000
     13       5.6850      0.00000
     14       6.2671      0.00000
     15       7.2224      0.00000
     16       8.6270      0.00000

 k-point    57 :       0.2692    0.1923    0.0000
  band No.  band energies     occupation 
      1     -14.4898      2.00000
      2     -11.4348      2.00000
      3      -6.4779      2.00000
      4      -6.0010      2.00000
      5      -3.8998      2.00000
      6      -0.2121      0.00000
      7       0.3253      0.00000
      8       1.6487      0.00000
      9       4.0504      0.00000
     10       4.1805      0.00000
     11       4.7778      0.00000
     12       5.6736      0.00000
     13       5.8784      0.00000
     14       6.6688      0.00000
     15       7.1439      0.00000
     16       8.1198      0.00000

 k-point    58 :       0.3077    0.1923    0.0000
  band No.  band energies     occupation 
      1     -14.1840      2.00000
      2     -11.7645      2.00000
      3      -6.6791      2.00000
      4      -5.8342      2.00000
      5      -4.1412      2.00000
      6      -0.3482      0.00000
      7       0.5034      0.00000
      8       1.5317      0.00000
      9       4.1402      0.00000
     10       4.5962      0.00000
     11       5.0785      0.00000
     12       5.8795      0.00000
     13       6.1265      0.00000
     14       7.1052      0.00000
     15       7.2064      0.00000
     16       7.5300      0.00000

 k-point    59 :       0.3462    0.1923    0.0000
  band No.  band energies     occupation 
      1     -13.8997      2.00000
      2     -12.0711      2.00000
      3      -6.8181      2.00000
      4      -5.6375      2.00000
      5      -4.3861      2.00000
      6      -0.4459      0.00000
      7       0.7062      0.00000
      8       1.3750      0.00000
      9       4.0782      0.00000
     10       5.0713      0.00000
     11       5.4394      0.00000
     12       5.9992      0.00000
     13       6.4895      0.00000
     14       6.7906      0.00000
     15       7.4536      0.00000
     16       7.6243      0.00000

 k-point    60 :       0.3846    0.1923    0.0000
  band No.  band energies     occupation 
      1     -13.7045      2.00000
      2     -12.2795      2.00000
      3      -6.8881      2.00000
      4      -5.4815      2.00000
      5      -4.5672      2.00000
      6      -0.4957      0.00000
      7       0.8985      0.00000
      8       1.2083      0.00000
      9       4.0145      0.00000
     10       5.5674      0.00000
     11       5.7496      0.00000
     12       6.0454      0.00000
     13       6.2118      0.00000
     14       6.7532      0.00000
     15       7.1699      0.00000
     16       8.0505      0.00000

 k-point    61 :       0.2308    0.2308    0.0000
  band No.  band energies     occupation 
      1     -14.5018      2.00000
      2     -11.4073      2.00000
      3      -6.4370      2.00000
      4      -6.1073      2.00000
      5      -3.8675      2.00000
      6      -0.1420      0.00000
      7       0.2302      0.00000
      8       1.8123      0.00000
      9       4.0899      0.00000
     10       4.1713      0.00000
     11       4.7698      0.00000
     12       5.5131      0.00000
     13       5.8112      0.00000
     14       6.6447      0.00000
     15       7.0387      0.00000
     16       8.5810      0.00000

 k-point    62 :       0.2692    0.2308    0.0000
  band No.  band energies     occupation 
      1     -14.1989      2.00000
      2     -11.7185      2.00000
      3      -6.7199      2.00000
      4      -5.9229      2.00000
      5      -4.0804      2.00000
      6      -0.3832      0.00000
      7       0.4785      0.00000
      8       1.8084      0.00000
      9       4.3875      0.00000
     10       4.5597      0.00000
     11       5.0574      0.00000
     12       5.5221      0.00000
     13       5.9310      0.00000
     14       7.0646      0.00000
     15       7.0786      0.00000
     16       7.9766      0.00000

 k-point    63 :       0.3077    0.2308    0.0000
  band No.  band energies     occupation 
      1     -13.8956      2.00000
      2     -12.0328      2.00000
      3      -6.9287      2.00000
      4      -5.7040      2.00000
      5      -4.3168      2.00000
      6      -0.5691      0.00000
      7       0.7440      0.00000
      8       1.7012      0.00000
      9       4.4905      0.00000
     10       5.0049      0.00000
     11       5.3069      0.00000
     12       5.7302      0.00000
     13       6.1679      0.00000
     14       7.2087      0.00000
     15       7.4156      0.00000
     16       7.5460      0.00000

 k-point    64 :       0.3462    0.2308    0.0000
  band No.  band energies     occupation 
      1     -13.6322      2.00000
      2     -12.3053      2.00000
      3      -7.0550      2.00000
      4      -5.4931      2.00000
      5      -4.5390      2.00000
      6      -0.6832      0.00000
      7       1.0130      0.00000
      8       1.5190      0.00000
      9       4.4594      0.00000
     10       5.4107      0.00000
     11       5.5389      0.00000
     12       6.0081      0.00000
     13       6.5762      0.00000
     14       6.7149      0.00000
     15       7.3632      0.00000
     16       7.8020      0.00000

 k-point    65 :       0.3846    0.2308    0.0000
  band No.  band energies     occupation 
      1     -13.5121      2.00000
      2     -12.4287      2.00000
      3      -7.0972      2.00000
      4      -5.3886      2.00000
      5      -4.6475      2.00000
      6      -0.7214      0.00000
      7       1.2316      0.00000
      8       1.3280      0.00000
      9       4.4365      0.00000
     10       5.4471      0.00000
     11       6.0465      0.00000
     12       6.0966      0.00000
     13       6.2191      0.00000
     14       6.8931      0.00000
     15       7.1391      0.00000
     16       7.9479      0.00000

 k-point    66 :       0.2692    0.2692    0.0000
  band No.  band energies     occupation 
      1     -13.8949      2.00000
      2     -12.0179      2.00000
      3      -6.9696      2.00000
      4      -5.7253      2.00000
      5      -4.2901      2.00000
      6      -0.6148      0.00000
      7       0.7442      0.00000
      8       1.8438      0.00000
      9       4.8059      0.00000
     10       4.9353      0.00000
     11       5.2540      0.00000
     12       5.5240      0.00000
     13       5.9917      0.00000
     14       7.2484      0.00000
     15       7.5112      0.00000
     16       7.7865      0.00000

 k-point    67 :       0.3077    0.2692    0.0000
  band No.  band energies     occupation 
      1     -13.5960      2.00000
      2     -12.3142      2.00000
      3      -7.1491      2.00000
      4      -5.4976      2.00000
      5      -4.5146      2.00000
      6      -0.7892      0.00000
      7       1.0219      0.00000
      8       1.7574      0.00000
      9       4.9927      0.00000
     10       5.2571      0.00000
     11       5.4006      0.00000
     12       5.8256      0.00000
     13       6.3208      0.00000
     14       7.1769      0.00000
     15       7.4828      0.00000
     16       7.7527      0.00000

 k-point    68 :       0.3462    0.2692    0.0000
  band No.  band energies     occupation 
      1     -13.3615      2.00000
      2     -12.5478      2.00000
      3      -7.2413      2.00000
      4      -5.3039      2.00000
      5      -4.7046      2.00000
      6      -0.8804      0.00000
      7       1.2715      0.00000
      8       1.5974      0.00000
      9       4.9928      0.00000
     10       5.2193      0.00000
     11       5.9412      0.00000
     12       6.2243      0.00000
     13       6.5533      0.00000
     14       6.8814      0.00000
     15       7.2675      0.00000
     16       7.5159      0.00000

 k-point    69 :       0.3077    0.3077    0.0000
  band No.  band energies     occupation 
      1     -13.2997      2.00000
      2     -12.5981      2.00000
      3      -7.2922      2.00000
      4      -5.2696      2.00000
      5      -4.7265      2.00000
      6      -0.9373      0.00000
      7       1.2822      0.00000
      8       1.6964      0.00000
      9       5.1319      0.00000
     10       5.5434      0.00000
     11       5.6249      0.00000
     12       6.1631      0.00000
     13       6.6804      0.00000
     14       7.0095      0.00000
     15       7.2365      0.00000
     16       7.3821      0.00000

 k-point    70 :       0.3462    0.3077    0.0000
  band No.  band energies     occupation 
      1     -13.1039      2.00000
      2     -12.7893      2.00000
      3      -7.3414      2.00000
      4      -5.1123      2.00000
      5      -4.8766      2.00000
      6      -0.9888      0.00000
      7       1.4519      0.00000
      8       1.5922      0.00000
      9       5.0808      0.00000
     10       5.5917      0.00000
     11       6.0241      0.00000
     12       6.5276      0.00000
     13       6.6396      0.00000
     14       6.9011      0.00000
     15       7.0665      0.00000
     16       7.3279      0.00000


--------------------------------------------------------------------------------------------------------


 soft charge-density along one line, spin component           1
         0         1         2         3         4         5         6         7         8         9
 total charge-density along one line
 
 pseudopotential strength for first ion, spin component:           1
 25.467 -40.482   0.000   0.081   0.000  -0.000  -0.178  -0.000
-40.482  41.318  -0.000  -0.165  -0.000   0.000   0.449   0.000
  0.000  -0.000   5.893  -0.000  -0.000  -7.418   0.000   0.000
  0.081  -0.165  -0.000   5.884  -0.000   0.000  -7.405   0.000
  0.000  -0.000  -0.000  -0.000   5.893   0.000   0.000  -7.418
 -0.000   0.000  -7.418   0.000   0.000  11.036  -0.000  -0.000
 -0.178   0.449   0.000  -7.405   0.000  -0.000  11.007  -0.000
 -0.000   0.000   0.000   0.000  -7.418  -0.000  -0.000  11.036
 -0.000   0.000  -0.000  -0.000  -0.003   0.000   0.000   0.003
 -0.000   0.000   0.018   0.000  -0.000  -0.037  -0.000   0.000
 -0.009   0.013  -0.000   0.025   0.000   0.000  -0.047  -0.000
 -0.000   0.000  -0.000   0.000   0.018   0.000  -0.000  -0.037
  0.000  -0.000  -0.003   0.000   0.000   0.003  -0.000  -0.000
 total augmentation occupancy for first ion, spin component:           1
  1.950   0.004   0.000  -0.231   0.000   0.000  -0.001  -0.000  -0.000   0.000  -0.012  -0.000   0.000
  0.004   0.001   0.000   0.021  -0.000   0.000   0.000   0.000  -0.000   0.000  -0.000   0.000   0.000
  0.000  -0.000   1.067   0.000   0.000   0.016   0.000   0.000  -0.000   0.114  -0.000  -0.000   0.064
 -0.231   0.021   0.000   1.211  -0.000  -0.000   0.015   0.000  -0.000  -0.000   0.030   0.000  -0.000
  0.000   0.000   0.000  -0.000   1.067   0.000  -0.000   0.016   0.064  -0.000  -0.000   0.114   0.000
  0.000  -0.000   0.016   0.000   0.000   0.000   0.000   0.000   0.000   0.002  -0.000   0.000   0.001
 -0.001   0.000   0.000   0.015  -0.000   0.000   0.000   0.000  -0.000   0.000   0.001  -0.000  -0.000
 -0.000   0.000   0.000  -0.000   0.016   0.000  -0.000   0.000   0.001   0.000   0.000   0.002   0.000
 -0.000  -0.000  -0.000  -0.000   0.064   0.000  -0.000   0.001   0.013  -0.000  -0.000   0.007  -0.000
  0.000  -0.000   0.114   0.000   0.000   0.002   0.000   0.000  -0.000   0.019  -0.000   0.000   0.007
 -0.012  -0.000  -0.000   0.030  -0.000  -0.000   0.001  -0.000  -0.000  -0.000   0.008  -0.000  -0.000
 -0.000   0.000   0.000  -0.000   0.114   0.000  -0.000   0.002   0.007   0.000  -0.000   0.019   0.000
  0.000   0.000   0.064  -0.000   0.000   0.001  -0.000   0.000  -0.000   0.007  -0.000   0.000   0.013


------------------------ aborting loop because EDIFF is reached ----------------------------------------





 total charge

# of ion       s       p       d       tot
------------------------------------------
    1        1.291   1.352   0.041   2.684
    2        1.291   1.352   0.041   2.684
--------------------------------------------------
tot          2.582   2.703   0.082   5.368
 


--------------------------------------------------------------------------------------------------------



  FREE ENERGIE OF THE ION-ELECTRON SYSTEM (eV)
  ---------------------------------------------------
  free  energy   TOTEN  =        -9.34175389 eV

  energy  without entropy=       -9.34175389  energy(sigma->0) =       -9.34175389
 


--------------------------------------------------------------------------------------------------------




--------------------------------------------------------------------------------------------------------


     LOOP+:  cpu time     14.2300: real time     14.3668
    4ORBIT:  cpu time      0.0000: real time      0.0000



 total charge

# of ion       s       p       d       tot
------------------------------------------
    1        1.291   1.352   0.041   2.684
    2        1.291   1.352   0.041   2.684
--------------------------------------------------
tot          2.582   2.703   0.082   5.368
 

 total amount of memory used by VASP MPI-rank0    38053. kBytes
=======================================================================

   base      :      30000. kBytes
   nonl-proj :       2807. kBytes
   fftplans  :       2321. kBytes
   grid      :       1125. kBytes
   one-center:          8. kBytes
   wavefun   :       1792. kBytes
 
  
  
 General timing and accounting informations for this job:
 ========================================================
  
                  Total CPU time used (sec):       15.106
                            User time (sec):       14.906
                          System time (sec):        0.200
                         Elapsed time (sec):       16.102
  
                   Maximum memory used (kb):      156388.
                   Average memory used (kb):          N/A
  
                          Minor page faults:        13518
                          Major page faults:         3543
                 Voluntary context switches:          290
