PROCAR new format
# of k-points:   70         # of bands:   16         # of ions:    2

 k-point     1 :    0.00000000 0.00000000 0.00000000     weight = 0.00147929

band     1 # energy  -16.47507226 # occ.  2.00000000
 
ion      s      p      d    tot
    1  0.268  0.011  0.000  0.279
    2  0.268  0.011  0.000  0.279
tot    0.536  0.021  0.000  0.557
 
band     2 # energy  -10.18728618 # occ.  2.00000000
 
ion      s      p      d    tot
    1  0.284  0.025  0.001  0.310
    2  0.284  0.025  0.001  0.310
tot    0.568  0.050  0.001  0.619
 
band     3 # energy   -3.56295055 # occ.  2.00000000
 
ion      s      p      d    tot
    1  0.006  0.194  0.002  0.201
    2  0.006  0.194  0.002  0.201
tot    0.011  0.387  0.003  0.402
 
band     4 # energy   -3.01412681 # occ.  2.00000000
 
ion      s      p      d    tot
    1  0.000  0.283  0.014  0.298
    2  0.000  0.283  0.014  0.298
tot    0.000  0.567  0.028  0.595
 
band     5 # energy   -3.01412575 # occ.  2.00000000
 
ion      s      p      d    tot
    1  0.000  0.283  0.014  0.298
    2  0.000  0.283  0.014  0.298
tot    0.000  0.567  0.028  0.595
 
band     6 # energy   -1.09197498 # occ.  0.00000000
 
ion      s      p      d    tot
    1  0.144  0.118  0.011  0.273
    2  0.144  0.118  0.011  0.273
tot    0.288  0.237  0.021  0.546
 
band     7 # energy    0.47689417 # occ.  0.00000000
 
ion      s      p      d    tot
    1  0.000  0.260  0.019  0.279
    2  0.000  0.260  0.019  0.279
tot    0.000  0.521  0.037  0.558
 
band     8 # energy    0.47689515 # occ.  0.00000000
 
ion      s      p      d    tot
    1  0.000  0.260  0.019  0.279
    2  0.000  0.260  0.019  0.279
tot    0.000  0.521  0.037  0.558
 
band     9 # energy    1.90338130 # occ.  0.00000000
 
ion      s      p      d    tot
    1  0.000  0.014  0.012  0.026
    2  0.000  0.014  0.012  0.026
tot    0.000  0.028  0.025  0.053
 
band    10 # energy    1.99651465 # occ.  0.00000000
 
ion      s      p      d    tot
    1  0.005  0.017  0.000  0.022
    2  0.005  0.017  0.000  0.022
tot    0.010  0.034  0.000  0.044
 
band    11 # energy    3.37603232 # occ.  0.00000000
 
ion      s      p      d    tot
    1  0.012  0.026  0.000  0.037
    2  0.012  0.026  0.000  0.037
tot    0.024  0.051  0.000  0.075
 
band    12 # energy    4.30406333 # occ.  0.00000000
 
ion      s      p      d    tot
    1  0.002  0.002  0.017  0.021
    2  0.002  0.002  0.017  0.021
tot    0.003  0.004  0.034  0.042
 
band    13 # energy    5.86414027 # occ.  0.00000000
 
ion      s      p      d    tot
    1  0.083  0.009  0.007  0.099
    2  0.083  0.009  0.007  0.099
tot    0.166  0.018  0.014  0.197
 
band    14 # energy    6.88525506 # occ.  0.00000000
 
ion      s      p      d    tot
    1  0.005  0.027  0.014  0.047
    2  0.005  0.027  0.014  0.047
tot    0.010  0.055  0.029  0.093
 
band    15 # energy    7.06890502 # occ.  0.00000000
 
ion      s      p      d    tot
    1  0.000  0.033  0.133  0.166
    2  0.000  0.033  0.133  0.166
tot    0.000  0.066  0.267  0.332
 
band    16 # energy    7.06890505 # occ.  0.00000000
 
ion      s      p      d    tot
    1  0.000  0.033  0.133  0.166
    2  0.000  0.033  0.133  0.166
tot    0.000  0.066  0.267  0.332
 

 k-point     2 :    0.03846154 0.00000000 0.00000000     weight = 0.00887574

band     1 # energy  -16.45545032 # occ.  2.00000000
 
ion      s      p      d    tot
    1  0.268  0.011  0.000  0.279
    2  0.268  0.011  0.000  0.279
tot    0.536  0.022  0.000  0.558
 
band     2 # energy  -10.18417497 # occ.  2.00000000
 
ion      s      p      d    tot
    1  0.285  0.025  0.001  0.311
    2  0.285  0.025  0.001  0.311
tot    0.570  0.049  0.001  0.621
 
band     3 # energy   -3.55308065 # occ.  2.00000000
 
ion      s      p      d    tot
    1  0.006  0.194  0.002  0.202
    2  0.006  0.194  0.002  0.202
tot    0.012  0.388  0.003  0.403
 
band     4 # energy   -3.26400393 # occ.  2.00000000
 
ion      s      p      d    tot
    1  0.011  0.265  0.014  0.289
    2  0.011  0.265  0.014  0.289
tot    0.021  0.529  0.028  0.578
 
band     5 # energy   -3.06111599 # occ.  2.00000000
 
ion      s      p      d    tot
    1  0.000  0.282  0.014  0.296
    2  0.000  0.282  0.014  0.296
tot    0.000  0.564  0.028  0.592
 
band     6 # energy   -0.87663182 # occ.  0.00000000
 
ion      s      p      d    tot
    1  0.131  0.136  0.010  0.278
    2  0.131  0.136  0.010  0.278
tot    0.263  0.273  0.021  0.556
 
band     7 # energy    0.42470242 # occ.  0.00000000
 
ion      s      p      d    tot
    1  0.004  0.255  0.018  0.276
    2  0.004  0.255  0.018  0.276
tot    0.007  0.509  0.036  0.553
 
band     8 # energy    0.52559741 # occ.  0.00000000
 
ion      s      p      d    tot
    1  0.000  0.263  0.018  0.281
    2  0.000  0.263  0.018  0.281
tot    0.000  0.526  0.037  0.562
 
band     9 # energy    1.93155817 # occ.  0.00000000
 
ion      s      p      d    tot
    1  0.000  0.015  0.012  0.028
    2  0.000  0.015  0.012  0.028
tot    0.000  0.030  0.025  0.055
 
band    10 # energy    2.02099898 # occ.  0.00000000
 
ion      s      p      d    tot
    1  0.004  0.018  0.000  0.022
    2  0.004  0.018  0.000  0.022
tot    0.009  0.036  0.000  0.044
 
band    11 # energy    3.39882387 # occ.  0.00000000
 
ion      s      p      d    tot
    1  0.011  0.026  0.000  0.037
    2  0.011  0.026  0.000  0.037
tot    0.022  0.052  0.001  0.075
 
band    12 # energy    4.32763822 # occ.  0.00000000
 
ion      s      p      d    tot
    1  0.002  0.002  0.017  0.021
    2  0.002  0.002  0.017  0.021
tot    0.003  0.004  0.035  0.042
 
band    13 # energy    5.95283581 # occ.  0.00000000
 
ion      s      p      d    tot
    1  0.078  0.015  0.006  0.100
    2  0.078  0.015  0.006  0.100
tot    0.157  0.030  0.013  0.199
 
band    14 # energy    6.55956103 # occ.  0.00000000
 
ion      s      p      d    tot
    1  0.003  0.033  0.070  0.106
    2  0.003  0.033  0.070  0.106
tot    0.005  0.066  0.141  0.212
 
band    15 # energy    7.04326700 # occ.  0.00000000
 
ion      s      p      d    tot
    1  0.000  0.030  0.134  0.164
    2  0.000  0.030  0.134  0.164
tot    0.000  0.060  0.268  0.327
 
band    16 # energy    7.30113830 # occ.  0.00000000
 
ion      s      p      d    tot
    1  0.005  0.022  0.072  0.099
    2  0.005  0.022  0.072  0.099
tot    0.011  0.044  0.144  0.199
 

 k-point     3 :    0.07692308 0.00000000 0.00000000     weight = 0.00887574

band     1 # energy  -16.39668193 # occ.  2.00000000
 
ion      s      p      d    tot
    1  0.268  0.011  0.000  0.279
    2  0.268  0.011  0.000  0.279
tot    0.536  0.023  0.000  0.559
 
band     2 # energy  -10.17680237 # occ.  2.00000000
 
ion      s      p      d    tot
    1  0.289  0.024  0.001  0.314
    2  0.289  0.024  0.001  0.314
tot    0.579  0.047  0.002  0.628
 
band     3 # energy   -3.80434733 # occ.  2.00000000
 
ion      s      p      d    tot
    1  0.020  0.241  0.013  0.275
    2  0.020  0.241  0.013  0.275
tot    0.041  0.482  0.027  0.549
 
band     4 # energy   -3.52501898 # occ.  2.00000000
 
ion      s      p      d    tot
    1  0.007  0.196  0.002  0.204
    2  0.007  0.196  0.002  0.204
tot    0.013  0.392  0.003  0.408
 
band     5 # energy   -3.19135060 # occ.  2.00000000
 
ion      s      p      d    tot
    1  0.000  0.278  0.014  0.292
    2  0.000  0.278  0.014  0.292
tot    0.000  0.556  0.028  0.584
 
band     6 # energy   -0.50799100 # occ.  0.00000000
 
ion      s      p      d    tot
    1  0.107  0.160  0.011  0.277
    2  0.107  0.160  0.011  0.277
tot    0.213  0.319  0.022  0.555
 
band     7 # energy    0.35518384 # occ.  0.00000000
 
ion      s      p      d    tot
    1  0.020  0.239  0.015  0.274
    2  0.020  0.239  0.015  0.274
tot    0.041  0.477  0.030  0.548
 
band     8 # energy    0.65783357 # occ.  0.00000000
 
ion      s      p      d    tot
    1  0.000  0.269  0.017  0.286
    2  0.000  0.269  0.017  0.286
tot    0.000  0.538  0.034  0.572
 
band     9 # energy    2.01583264 # occ.  0.00000000
 
ion      s      p      d    tot
    1  0.001  0.019  0.013  0.032
    2  0.001  0.019  0.013  0.032
tot    0.001  0.038  0.025  0.065
 
band    10 # energy    2.09241928 # occ.  0.00000000
 
ion      s      p      d    tot
    1  0.003  0.019  0.001  0.023
    2  0.003  0.019  0.001  0.023
tot    0.006  0.039  0.001  0.046
 
band    11 # energy    3.46197947 # occ.  0.00000000
 
ion      s      p      d    tot
    1  0.009  0.027  0.001  0.037
    2  0.009  0.027  0.001  0.037
tot    0.018  0.054  0.003  0.075
 
band    12 # energy    4.39758605 # occ.  0.00000000
 
ion      s      p      d    tot
    1  0.001  0.003  0.017  0.021
    2  0.001  0.003  0.017  0.021
tot    0.003  0.005  0.035  0.043
 
band    13 # energy    6.03894763 # occ.  0.00000000
 
ion      s      p      d    tot
    1  0.014  0.021  0.058  0.093
    2  0.014  0.021  0.058  0.093
tot    0.027  0.042  0.116  0.185
 
band    14 # energy    6.24116053 # occ.  0.00000000
 
ion      s      p      d    tot
    1  0.056  0.040  0.030  0.126
    2  0.056  0.040  0.030  0.126
tot    0.113  0.080  0.059  0.252
 
band    15 # energy    6.99206711 # occ.  0.00000000
 
ion      s      p      d    tot
    1  0.000  0.023  0.135  0.158
    2  0.000  0.023  0.135  0.158
tot    0.000  0.045  0.270  0.315
 
band    16 # energy    7.42664338 # occ.  0.00000000
 
ion      s      p      d    tot
    1  0.003  0.053  0.069  0.125
    2  0.003  0.053  0.069  0.125
tot    0.006  0.106  0.139  0.251
 

 k-point     4 :    0.11538462-0.00000000 0.00000000     weight = 0.00887574

band     1 # energy  -16.29912975 # occ.  2.00000000
 
ion      s      p      d    tot
    1  0.268  0.012  0.000  0.280
    2  0.268  0.012  0.000  0.280
tot    0.536  0.024  0.000  0.561
 
band     2 # energy  -10.17139203 # occ.  2.00000000
 
ion      s      p      d    tot
    1  0.296  0.022  0.001  0.319
    2  0.296  0.022  0.001  0.319
tot    0.592  0.044  0.002  0.638
 
band     3 # energy   -4.42039879 # occ.  2.00000000
 
ion      s      p      d    tot
    1  0.021  0.226  0.013  0.259
    2  0.021  0.226  0.013  0.259
tot    0.042  0.451  0.025  0.519
 
band     4 # energy   -3.48345041 # occ.  2.00000000
 
ion      s      p      d    tot
    1  0.008  0.199  0.002  0.208
    2  0.008  0.199  0.002  0.208
tot    0.016  0.398  0.003  0.417
 
band     5 # energy   -3.37967348 # occ.  2.00000000
 
ion      s      p      d    tot
    1  0.000  0.273  0.014  0.287
    2  0.000  0.273  0.014  0.287
tot    0.000  0.547  0.027  0.574
 
band     6 # energy   -0.44763403 # occ.  0.00000000
 
ion      s      p      d    tot
    1  0.067  0.179  0.014  0.260
    2  0.067  0.179  0.014  0.260
tot    0.133  0.358  0.028  0.519
 
band     7 # energy    0.54943741 # occ.  0.00000000
 
ion      s      p      d    tot
    1  0.058  0.212  0.008  0.277
    2  0.058  0.212  0.008  0.277
tot    0.115  0.423  0.016  0.555
 
band     8 # energy    0.84021779 # occ.  0.00000000
 
ion      s      p      d    tot
    1  0.000  0.277  0.016  0.292
    2  0.000  0.277  0.016  0.292
tot    0.000  0.554  0.031  0.585
 
band     9 # energy    2.14535682 # occ.  0.00000000
 
ion      s      p      d    tot
    1  0.001  0.024  0.011  0.036
    2  0.001  0.024  0.011  0.036
tot    0.003  0.047  0.022  0.073
 
band    10 # energy    2.21550450 # occ.  0.00000000
 
ion      s      p      d    tot
    1  0.002  0.025  0.003  0.030
    2  0.002  0.025  0.003  0.030
tot    0.004  0.050  0.006  0.060
 
band    11 # energy    3.55610803 # occ.  0.00000000
 
ion      s      p      d    tot
    1  0.007  0.028  0.003  0.038
    2  0.007  0.028  0.003  0.038
tot    0.014  0.056  0.007  0.076
 
band    12 # energy    4.50943814 # occ.  0.00000000
 
ion      s      p      d    tot
    1  0.002  0.004  0.017  0.022
    2  0.002  0.004  0.017  0.022
tot    0.003  0.007  0.034  0.045
 
band    13 # energy    5.62175040 # occ.  0.00000000
 
ion      s      p      d    tot
    1  0.002  0.021  0.079  0.101
    2  0.002  0.021  0.079  0.101
tot    0.003  0.041  0.158  0.203
 
band    14 # energy    6.46072664 # occ.  0.00000000
 
ion      s      p      d    tot
    1  0.051  0.047  0.015  0.113
    2  0.051  0.047  0.015  0.113
tot    0.102  0.093  0.031  0.226
 
band    15 # energy    6.96815874 # occ.  0.00000000
 
ion      s      p      d    tot
    1  0.000  0.014  0.137  0.151
    2  0.000  0.014  0.137  0.151
tot    0.000  0.029  0.274  0.303
 
band    16 # energy    7.26416755 # occ.  0.00000000
 
ion      s      p      d    tot
    1  0.005  0.077  0.076  0.158
    2  0.005  0.077  0.076  0.158
tot    0.010  0.154  0.151  0.315
 

 k-point     5 :    0.15384615 0.00000000 0.00000000     weight = 0.00887574

band     1 # energy  -16.16343567 # occ.  2.00000000
 
ion      s      p      d    tot
    1  0.268  0.013  0.000  0.282
    2  0.268  0.013  0.000  0.282
tot    0.537  0.026  0.001  0.563
 
band     2 # energy  -10.17926942 # occ.  2.00000000
 
ion      s      p      d    tot
    1  0.305  0.020  0.001  0.326
    2  0.305  0.020  0.001  0.326
tot    0.611  0.039  0.003  0.653
 
band     3 # energy   -5.02550866 # occ.  2.00000000
 
ion      s      p      d    tot
    1  0.017  0.216  0.011  0.244
    2  0.017  0.216  0.011  0.244
tot    0.033  0.432  0.023  0.488
 
band     4 # energy   -3.59904133 # occ.  2.00000000
 
ion      s      p      d    tot
    1  0.000  0.269  0.013  0.282
    2  0.000  0.269  0.013  0.282
tot    0.000  0.537  0.026  0.563
 
band     5 # energy   -3.43788752 # occ.  2.00000000
 
ion      s      p      d    tot
    1  0.010  0.204  0.002  0.215
    2  0.010  0.204  0.002  0.215
tot    0.020  0.407  0.003  0.430
 
band     6 # energy   -0.67459346 # occ.  0.00000000
 
ion      s      p      d    tot
    1  0.053  0.176  0.015  0.244
    2  0.053  0.176  0.015  0.244
tot    0.107  0.352  0.030  0.489
 
band     7 # energy    0.92444805 # occ.  0.00000000
 
ion      s      p      d    tot
    1  0.067  0.197  0.004  0.268
    2  0.067  0.197  0.004  0.268
tot    0.134  0.393  0.009  0.536
 
band     8 # energy    1.03500718 # occ.  0.00000000
 
ion      s      p      d    tot
    1  0.000  0.284  0.014  0.298
    2  0.000  0.284  0.014  0.298
tot    0.000  0.568  0.028  0.596
 
band     9 # energy    2.28748134 # occ.  0.00000000
 
ion      s      p      d    tot
    1  0.002  0.023  0.010  0.034
    2  0.002  0.023  0.010  0.034
tot    0.003  0.045  0.020  0.068
 
band    10 # energy    2.40422947 # occ.  0.00000000
 
ion      s      p      d    tot
    1  0.002  0.038  0.005  0.045
    2  0.002  0.038  0.005  0.045
tot    0.004  0.076  0.010  0.090
 
band    11 # energy    3.67759591 # occ.  0.00000000
 
ion      s      p      d    tot
    1  0.005  0.030  0.007  0.042
    2  0.005  0.030  0.007  0.042
tot    0.011  0.060  0.013  0.084
 
band    12 # energy    4.64340583 # occ.  0.00000000
 
ion      s      p      d    tot
    1  0.003  0.004  0.018  0.025
    2  0.003  0.004  0.018  0.025
tot    0.005  0.009  0.036  0.050
 
band    13 # energy    5.31851687 # occ.  0.00000000
 
ion      s      p      d    tot
    1  0.003  0.020  0.075  0.098
    2  0.003  0.020  0.075  0.098
tot    0.006  0.040  0.150  0.196
 
band    14 # energy    6.48129309 # occ.  0.00000000
 
ion      s      p      d    tot
    1  0.029  0.045  0.045  0.119
    2  0.029  0.045  0.045  0.119
tot    0.058  0.090  0.091  0.238
 
band    15 # energy    7.01966537 # occ.  0.00000000
 
ion      s      p      d    tot
    1  0.000  0.008  0.139  0.147
    2  0.000  0.008  0.139  0.147
tot    0.000  0.015  0.278  0.293
 
band    16 # energy    7.23089815 # occ.  0.00000000
 
ion      s      p      d    tot
    1  0.014  0.082  0.048  0.144
    2  0.014  0.082  0.048  0.144
tot    0.027  0.164  0.096  0.288
 

 k-point     6 :    0.19230769 0.00000000 0.00000000     weight = 0.00887574

band     1 # energy  -15.99063150 # occ.  2.00000000
 
ion      s      p      d    tot
    1  0.269  0.014  0.000  0.284
    2  0.269  0.014  0.000  0.284
tot    0.538  0.028  0.001  0.567
 
band     2 # energy  -10.21759624 # occ.  2.00000000
 
ion      s      p      d    tot
    1  0.316  0.017  0.002  0.335
    2  0.316  0.017  0.002  0.335
tot    0.631  0.035  0.003  0.669
 
band     3 # energy   -5.57339051 # occ.  2.00000000
 
ion      s      p      d    tot
    1  0.010  0.209  0.010  0.229
    2  0.010  0.209  0.010  0.229
tot    0.019  0.419  0.020  0.458
 
band     4 # energy   -3.82812606 # occ.  2.00000000
 
ion      s      p      d    tot
    1  0.000  0.264  0.012  0.277
    2  0.000  0.264  0.012  0.277
tot    0.000  0.529  0.025  0.554
 
band     5 # energy   -3.40474515 # occ.  2.00000000
 
ion      s      p      d    tot
    1  0.014  0.209  0.001  0.224
    2  0.014  0.209  0.001  0.224
tot    0.028  0.418  0.003  0.449
 
band     6 # energy   -0.95414465 # occ.  0.00000000
 
ion      s      p      d    tot
    1  0.051  0.165  0.015  0.231
    2  0.051  0.165  0.015  0.231
tot    0.102  0.329  0.031  0.462
 
band     7 # energy    1.21041447 # occ.  0.00000000
 
ion      s      p      d    tot
    1  0.000  0.289  0.012  0.301
    2  0.000  0.289  0.012  0.301
tot    0.000  0.577  0.025  0.602
 
band     8 # energy    1.21269302 # occ.  0.00000000
 
ion      s      p      d    tot
    1  0.060  0.186  0.005  0.252
    2  0.060  0.186  0.005  0.252
tot    0.120  0.372  0.011  0.504
 
band     9 # energy    2.43191035 # occ.  0.00000000
 
ion      s      p      d    tot
    1  0.001  0.019  0.012  0.032
    2  0.001  0.019  0.012  0.032
tot    0.002  0.037  0.024  0.063
 
band    10 # energy    2.62761210 # occ.  0.00000000
 
ion      s      p      d    tot
    1  0.002  0.044  0.004  0.050
    2  0.002  0.044  0.004  0.050
tot    0.004  0.088  0.008  0.099
 
band    11 # energy    3.83544854 # occ.  0.00000000
 
ion      s      p      d    tot
    1  0.005  0.037  0.010  0.052
    2  0.005  0.037  0.010  0.052
tot    0.010  0.075  0.019  0.104
 
band    12 # energy    4.75623268 # occ.  0.00000000
 
ion      s      p      d    tot
    1  0.007  0.005  0.023  0.035
    2  0.007  0.005  0.023  0.035
tot    0.014  0.010  0.047  0.071
 
band    13 # energy    5.28737615 # occ.  0.00000000
 
ion      s      p      d    tot
    1  0.003  0.032  0.058  0.093
    2  0.003  0.032  0.058  0.093
tot    0.006  0.063  0.117  0.186
 
band    14 # energy    6.28106010 # occ.  0.00000000
 
ion      s      p      d    tot
    1  0.021  0.038  0.070  0.128
    2  0.021  0.038  0.070  0.128
tot    0.041  0.076  0.139  0.256
 
band    15 # energy    7.17936841 # occ.  0.00000000
 
ion      s      p      d    tot
    1  0.000  0.004  0.142  0.145
    2  0.000  0.004  0.142  0.145
tot    0.000  0.008  0.283  0.291
 
band    16 # energy    7.38314388 # occ.  0.00000000
 
ion      s      p      d    tot
    1  0.014  0.075  0.028  0.118
    2  0.014  0.075  0.028  0.118
tot    0.029  0.150  0.056  0.235
 

 k-point     7 :    0.23076923-0.00000000 0.00000000     weight = 0.00887574

band     1 # energy  -15.78231734 # occ.  2.00000000
 
ion      s      p      d    tot
    1  0.270  0.016  0.001  0.286
    2  0.270  0.016  0.001  0.286
tot    0.539  0.031  0.001  0.572
 
band     2 # energy  -10.30845786 # occ.  2.00000000
 
ion      s      p      d    tot
    1  0.324  0.016  0.002  0.343
    2  0.324  0.016  0.002  0.343
tot    0.649  0.032  0.004  0.686
 
band     3 # energy   -6.02811507 # occ.  2.00000000
 
ion      s      p      d    tot
    1  0.004  0.204  0.008  0.216
    2  0.004  0.204  0.008  0.216
tot    0.007  0.408  0.017  0.431
 
band     4 # energy   -4.05173538 # occ.  2.00000000
 
ion      s      p      d    tot
    1  0.000  0.261  0.012  0.272
    2  0.000  0.261  0.012  0.272
tot    0.000  0.522  0.023  0.545
 
band     5 # energy   -3.40895041 # occ.  2.00000000
 
ion      s      p      d    tot
    1  0.020  0.214  0.001  0.235
    2  0.020  0.214  0.001  0.235
tot    0.039  0.429  0.002  0.471
 
band     6 # energy   -1.19834335 # occ.  0.00000000
 
ion      s      p      d    tot
    1  0.049  0.153  0.016  0.217
    2  0.049  0.153  0.016  0.217
tot    0.097  0.306  0.031  0.435
 
band     7 # energy    1.31035759 # occ.  0.00000000
 
ion      s      p      d    tot
    1  0.048  0.175  0.012  0.235
    2  0.048  0.175  0.012  0.235
tot    0.095  0.350  0.024  0.470
 
band     8 # energy    1.34623256 # occ.  0.00000000
 
ion      s      p      d    tot
    1  0.000  0.290  0.012  0.301
    2  0.000  0.290  0.012  0.301
tot    0.000  0.579  0.024  0.603
 
band     9 # energy    2.59652177 # occ.  0.00000000
 
ion      s      p      d    tot
    1  0.002  0.011  0.014  0.027
    2  0.002  0.011  0.014  0.027
tot    0.003  0.023  0.027  0.053
 
band    10 # energy    2.85851237 # occ.  0.00000000
 
ion      s      p      d    tot
    1  0.001  0.040  0.002  0.044
    2  0.001  0.040  0.002  0.044
tot    0.002  0.080  0.005  0.087
 
band    11 # energy    4.02745099 # occ.  0.00000000
 
ion      s      p      d    tot
    1  0.005  0.049  0.011  0.064
    2  0.005  0.049  0.011  0.064
tot    0.009  0.097  0.022  0.129
 
band    12 # energy    4.89546621 # occ.  0.00000000
 
ion      s      p      d    tot
    1  0.012  0.011  0.025  0.048
    2  0.012  0.011  0.025  0.048
tot    0.024  0.022  0.050  0.096
 
band    13 # energy    5.46040158 # occ.  0.00000000
 
ion      s      p      d    tot
    1  0.001  0.049  0.037  0.087
    2  0.001  0.049  0.037  0.087
tot    0.002  0.099  0.074  0.175
 
band    14 # energy    6.14961313 # occ.  0.00000000
 
ion      s      p      d    tot
    1  0.023  0.029  0.085  0.136
    2  0.023  0.029  0.085  0.136
tot    0.045  0.057  0.169  0.272
 
band    15 # energy    7.46425524 # occ.  0.00000000
 
ion      s      p      d    tot
    1  0.000  0.004  0.144  0.148
    2  0.000  0.004  0.144  0.148
tot    0.000  0.008  0.288  0.295
 
band    16 # energy    7.53179444 # occ.  0.00000000
 
ion      s      p      d    tot
    1  0.015  0.063  0.023  0.101
    2  0.015  0.063  0.023  0.101
tot    0.029  0.126  0.046  0.201
 

 k-point     8 :    0.26923077 0.00000000 0.00000000     weight = 0.00887574

band     1 # energy  -15.54089205 # occ.  2.00000000
 
ion      s      p      d    tot
    1  0.271  0.017  0.001  0.289
    2  0.271  0.017  0.001  0.289
tot    0.541  0.034  0.002  0.577
 
band     2 # energy  -10.47291905 # occ.  2.00000000
 
ion      s      p      d    tot
    1  0.328  0.017  0.003  0.348
    2  0.328  0.017  0.003  0.348
tot    0.656  0.034  0.006  0.696
 
band     3 # energy   -6.36086648 # occ.  2.00000000
 
ion      s      p      d    tot
    1  0.002  0.197  0.007  0.206
    2  0.002  0.197  0.007  0.206
tot    0.005  0.395  0.013  0.413
 
band     4 # energy   -4.25904495 # occ.  2.00000000
 
ion      s      p      d    tot
    1  0.000  0.258  0.011  0.269
    2  0.000  0.258  0.011  0.269
tot    0.000  0.516  0.022  0.537
 
band     5 # energy   -3.47934548 # occ.  2.00000000
 
ion      s      p      d    tot
    1  0.028  0.217  0.001  0.246
    2  0.028  0.217  0.001  0.246
tot    0.055  0.434  0.002  0.491
 
band     6 # energy   -1.35988731 # occ.  0.00000000
 
ion      s      p      d    tot
    1  0.044  0.145  0.016  0.205
    2  0.044  0.145  0.016  0.205
tot    0.088  0.290  0.033  0.411
 
band     7 # energy    1.20860697 # occ.  0.00000000
 
ion      s      p      d    tot
    1  0.034  0.160  0.021  0.215
    2  0.034  0.160  0.021  0.215
tot    0.068  0.320  0.042  0.430
 
band     8 # energy    1.43630041 # occ.  0.00000000
 
ion      s      p      d    tot
    1  0.000  0.287  0.012  0.299
    2  0.000  0.287  0.012  0.299
tot    0.000  0.574  0.024  0.598
 
band     9 # energy    2.82554774 # occ.  0.00000000
 
ion      s      p      d    tot
    1  0.004  0.008  0.013  0.024
    2  0.004  0.008  0.013  0.024
tot    0.009  0.015  0.025  0.049
 
band    10 # energy    3.10238418 # occ.  0.00000000
 
ion      s      p      d    tot
    1  0.001  0.038  0.003  0.042
    2  0.001  0.038  0.003  0.042
tot    0.002  0.076  0.005  0.084
 
band    11 # energy    4.19636105 # occ.  0.00000000
 
ion      s      p      d    tot
    1  0.004  0.052  0.016  0.072
    2  0.004  0.052  0.016  0.072
tot    0.007  0.105  0.032  0.145
 
band    12 # energy    5.12269377 # occ.  0.00000000
 
ion      s      p      d    tot
    1  0.013  0.020  0.024  0.057
    2  0.013  0.020  0.024  0.057
tot    0.026  0.040  0.047  0.114
 
band    13 # energy    5.54683041 # occ.  0.00000000
 
ion      s      p      d    tot
    1  0.002  0.039  0.026  0.067
    2  0.002  0.039  0.026  0.067
tot    0.004  0.077  0.053  0.134
 
band    14 # energy    6.38222572 # occ.  0.00000000
 
ion      s      p      d    tot
    1  0.024  0.052  0.082  0.158
    2  0.024  0.052  0.082  0.158
tot    0.048  0.104  0.165  0.316
 
band    15 # energy    7.55511278 # occ.  0.00000000
 
ion      s      p      d    tot
    1  0.019  0.040  0.023  0.082
    2  0.019  0.040  0.023  0.082
tot    0.038  0.079  0.046  0.163
 
band    16 # energy    7.87618916 # occ.  0.00000000
 
ion      s      p      d    tot
    1  0.000  0.008  0.146  0.153
    2  0.000  0.008  0.146  0.153
tot    0.000  0.015  0.291  0.306
 

 k-point     9 :    0.30769231 0.00000000 0.00000000     weight = 0.00887574

band     1 # energy  -15.27021037 # occ.  2.00000000
 
ion      s      p      d    tot
    1  0.272  0.018  0.001  0.292
    2  0.272  0.018  0.001  0.292
tot    0.545  0.037  0.002  0.584
 
band     2 # energy  -10.71965705 # occ.  2.00000000
 
ion      s      p      d    tot
    1  0.324  0.020  0.003  0.348
    2  0.324  0.020  0.003  0.348
tot    0.649  0.041  0.007  0.696
 
band     3 # energy   -6.55808624 # occ.  2.00000000
 
ion      s      p      d    tot
    1  0.009  0.190  0.005  0.203
    2  0.009  0.190  0.005  0.203
tot    0.017  0.380  0.010  0.407
 
band     4 # energy   -4.44289848 # occ.  2.00000000
 
ion      s      p      d    tot
    1  0.000  0.256  0.010  0.266
    2  0.000  0.256  0.010  0.266
tot    0.000  0.511  0.020  0.532
 
band     5 # energy   -3.63086810 # occ.  2.00000000
 
ion      s      p      d    tot
    1  0.036  0.215  0.001  0.251
    2  0.036  0.215  0.001  0.251
tot    0.071  0.430  0.002  0.503
 
band     6 # energy   -1.41732980 # occ.  0.00000000
 
ion      s      p      d    tot
    1  0.038  0.142  0.018  0.198
    2  0.038  0.142  0.018  0.198
tot    0.076  0.284  0.035  0.396
 
band     7 # energy    0.98864035 # occ.  0.00000000
 
ion      s      p      d    tot
    1  0.024  0.148  0.027  0.198
    2  0.024  0.148  0.027  0.198
tot    0.048  0.296  0.053  0.397
 
band     8 # energy    1.48555642 # occ.  0.00000000
 
ion      s      p      d    tot
    1  0.000  0.283  0.012  0.295
    2  0.000  0.283  0.012  0.295
tot    0.000  0.565  0.025  0.590
 
band     9 # energy    3.12992303 # occ.  0.00000000
 
ion      s      p      d    tot
    1  0.007  0.007  0.011  0.025
    2  0.007  0.007  0.011  0.025
tot    0.013  0.015  0.022  0.050
 
band    10 # energy    3.34333504 # occ.  0.00000000
 
ion      s      p      d    tot
    1  0.002  0.043  0.006  0.051
    2  0.002  0.043  0.006  0.051
tot    0.004  0.086  0.013  0.102
 
band    11 # energy    4.28609308 # occ.  0.00000000
 
ion      s      p      d    tot
    1  0.002  0.043  0.025  0.071
    2  0.002  0.043  0.025  0.071
tot    0.005  0.086  0.051  0.141
 
band    12 # energy    5.36648329 # occ.  0.00000000
 
ion      s      p      d    tot
    1  0.007  0.029  0.026  0.062
    2  0.007  0.029  0.026  0.062
tot    0.015  0.058  0.052  0.125
 
band    13 # energy    5.65769733 # occ.  0.00000000
 
ion      s      p      d    tot
    1  0.008  0.018  0.014  0.040
    2  0.008  0.018  0.014  0.040
tot    0.016  0.035  0.028  0.079
 
band    14 # energy    6.89896769 # occ.  0.00000000
 
ion      s      p      d    tot
    1  0.018  0.089  0.069  0.176
    2  0.018  0.089  0.069  0.176
tot    0.036  0.178  0.138  0.352
 
band    15 # energy    7.40487101 # occ.  0.00000000
 
ion      s      p      d    tot
    1  0.028  0.015  0.022  0.064
    2  0.028  0.015  0.022  0.064
tot    0.056  0.029  0.044  0.129
 
band    16 # energy    8.40419872 # occ.  0.00000000
 
ion      s      p      d    tot
    1  0.000  0.014  0.147  0.161
    2  0.000  0.014  0.147  0.161
tot    0.000  0.027  0.294  0.322
 

 k-point    10 :    0.34615385-0.00000000 0.00000000     weight = 0.00887574

band     1 # energy  -14.97672903 # occ.  2.00000000
 
ion      s      p      d    tot
    1  0.275  0.020  0.001  0.296
    2  0.275  0.020  0.001  0.296
tot    0.549  0.040  0.003  0.592
 
band     2 # energy  -11.03623272 # occ.  2.00000000
 
ion      s      p      d    tot
    1  0.315  0.025  0.004  0.343
    2  0.315  0.025  0.004  0.343
tot    0.629  0.051  0.007  0.687
 
band     3 # energy   -6.62988076 # occ.  2.00000000
 
ion      s      p      d    tot
    1  0.021  0.182  0.003  0.206
    2  0.021  0.182  0.003  0.206
tot    0.042  0.363  0.007  0.412
 
band     4 # energy   -4.59842212 # occ.  2.00000000
 
ion      s      p      d    tot
    1  0.000  0.254  0.010  0.263
    2  0.000  0.254  0.010  0.263
tot    0.000  0.508  0.019  0.527
 
band     5 # energy   -3.84926167 # occ.  2.00000000
 
ion      s      p      d    tot
    1  0.041  0.210  0.001  0.251
    2  0.041  0.210  0.001  0.251
tot    0.081  0.419  0.002  0.502
 
band     6 # energy   -1.38256675 # occ.  0.00000000
 
ion      s      p      d    tot
    1  0.034  0.143  0.020  0.196
    2  0.034  0.143  0.020  0.196
tot    0.067  0.285  0.039  0.392
 
band     7 # energy    0.73502866 # occ.  0.00000000
 
ion      s      p      d    tot
    1  0.017  0.143  0.029  0.189
    2  0.017  0.143  0.029  0.189
tot    0.034  0.287  0.057  0.378
 
band     8 # energy    1.50467057 # occ.  0.00000000
 
ion      s      p      d    tot
    1  0.000  0.277  0.013  0.291
    2  0.000  0.277  0.013  0.291
tot    0.000  0.555  0.027  0.581
 
band     9 # energy    3.49437134 # occ.  0.00000000
 
ion      s      p      d    tot