<?xml version="1.0" encoding="ISO-8859-1"?>
<modeling>
 <generator>
  <i name="program" type="string">vasp </i>
  <i name="version" type="string">6.4.2  </i>
  <i name="subversion" type="string">20Jul23 (build Nov 14 2023 12:59:38) complex                          parallel </i>
  <i name="platform" type="string">LinuxIFC </i>
  <i name="date" type="string">2023 12 17 </i>
  <i name="time" type="string">08:38:28 </i>
 </generator>
 <incar>
  <i type="string" name="PREC">Accurate</i>
  <i type="string" name="ALGO">Normal</i>
  <i type="logical" name="ADDGRID"> T  </i>
  <i type="int" name="ISPIN">     1</i>
  <i name="AMIX">      0.10000000</i>
  <i name="BMIX">      0.00010000</i>
  <i type="int" name="NELM">   200</i>
  <i type="int" name="NELMDL">   -12</i>
  <i type="int" name="NELMIN">     6</i>
  <i type="int" name="IBRION">     2</i>
  <i name="EDIFF">      0.00000100</i>
  <i name="EDIFFG">     -0.01000000</i>
  <i type="int" name="NSW">     0</i>
  <i type="int" name="ISIF">    -1</i>
  <i name="ENCUT">    234.78975000</i>
  <i type="int" name="NBANDS">    16</i>
  <i name="POTIM">      0.50000000</i>
  <i type="int" name="NEDOS">  6001</i>
  <i type="logical" name="LPLANE"> T  </i>
  <i type="int" name="ISMEAR">     0</i>
  <i name="SIGMA">      0.01000000</i>
  <i type="int" name="NWRITE">     1</i>
  <i type="logical" name="LWAVE"> F  </i>
  <i type="logical" name="LCHARG"> F  </i>
  <i type="int" name="LORBIT">    10</i>
  <i type="logical" name="LASPH"> T  </i>
  <i type="int" name="IVDW">     0</i>
 </incar>
 <primitive_cell>
  <structure name="primitive_cell" >
   <crystal>
    <varray name="basis" >
     <v>       3.60689254       0.00000000       0.00000000 </v>
     <v>      -1.80344627       3.12366057       0.00000000 </v>
     <v>       0.00000000       0.00000000      16.00000000 </v>
    </varray>
    <i name="volume">    180.26732792 </i>
    <varray name="rec_basis" >
     <v>       0.27724696       0.16006861       0.00000000 </v>
     <v>       0.00000000       0.32013722       0.00000000 </v>
     <v>       0.00000000       0.00000000       0.06250000 </v>
    </varray>
   </crystal>
   <varray name="positions" >
    <v>       0.66666667       0.33333333       0.45634314 </v>
    <v>       0.33333333       0.66666667       0.54365686 </v>
   </varray>
  </structure>
  <varray name="primitive_index" >
   <v type="int" >        1 </v>
   <v type="int" >        2 </v>
  </varray>
 </primitive_cell>
 <kpoints>
  <generation param="Gamma">
   <v type="int" name="divisions">      26       26        1 </v>
   <v name="usershift">      0.00000000       0.00000000       0.00000000 </v>
   <v name="genvec1">      0.03846154       0.00000000       0.00000000 </v>
   <v name="genvec2">      0.00000000       0.03846154       0.00000000 </v>
   <v name="genvec3">      0.00000000       0.00000000       1.00000000 </v>
   <v name="shift">      0.00000000       0.00000000       0.00000000 </v>
  </generation>
  <varray name="kpointlist" >
   <v>       0.00000000       0.00000000       0.00000000 </v>
   <v>       0.03846154       0.00000000       0.00000000 </v>
   <v>       0.07692308       0.00000000       0.00000000 </v>
   <v>       0.11538462      -0.00000000       0.00000000 </v>
   <v>       0.15384615       0.00000000       0.00000000 </v>
   <v>       0.19230769       0.00000000       0.00000000 </v>
   <v>       0.23076923      -0.00000000       0.00000000 </v>
   <v>       0.26923077       0.00000000       0.00000000 </v>
   <v>       0.30769231       0.00000000       0.00000000 </v>
   <v>       0.34615385      -0.00000000       0.00000000 </v>
   <v>       0.38461538       0.00000000       0.00000000 </v>
   <v>       0.42307692       0.00000000       0.00000000 </v>
   <v>       0.46153846      -0.00000000       0.00000000 </v>
   <v>       0.50000000       0.00000000       0.00000000 </v>
   <v>       0.03846154       0.03846154       0.00000000 </v>
   <v>       0.07692308       0.03846154       0.00000000 </v>
   <v>       0.11538462       0.03846154       0.00000000 </v>
   <v>       0.15384615       0.03846154       0.00000000 </v>
   <v>       0.19230769       0.03846154       0.00000000 </v>
   <v>       0.23076923       0.03846154       0.00000000 </v>
   <v>       0.26923077       0.03846154       0.00000000 </v>
   <v>       0.30769231       0.03846154       0.00000000 </v>
   <v>       0.34615385       0.03846154       0.00000000 </v>
   <v>       0.38461538       0.03846154       0.00000000 </v>
   <v>       0.42307692       0.03846154       0.00000000 </v>
   <v>       0.46153846       0.03846154       0.00000000 </v>
   <v>       0.07692308       0.07692308       0.00000000 </v>
   <v>       0.11538462       0.07692308       0.00000000 </v>
   <v>       0.15384615       0.07692308       0.00000000 </v>
   <v>       0.19230769       0.07692308       0.00000000 </v>
   <v>       0.23076923       0.07692308       0.00000000 </v>
   <v>       0.26923077       0.07692308       0.00000000 </v>
   <v>       0.30769231       0.07692308       0.00000000 </v>
   <v>       0.34615385       0.07692308       0.00000000 </v>
   <v>       0.38461538       0.07692308       0.00000000 </v>
   <v>       0.42307692       0.07692308       0.00000000 </v>
   <v>       0.46153846       0.07692308       0.00000000 </v>
   <v>       0.11538462       0.11538462       0.00000000 </v>
   <v>       0.15384615       0.11538462       0.00000000 </v>
   <v>       0.19230769       0.11538462       0.00000000 </v>
   <v>       0.23076923       0.11538462       0.00000000 </v>
   <v>       0.26923077       0.11538462       0.00000000 </v>
   <v>       0.30769231       0.11538462       0.00000000 </v>
   <v>       0.34615385       0.11538462       0.00000000 </v>
   <v>       0.38461538       0.11538462       0.00000000 </v>
   <v>       0.42307692       0.11538462       0.00000000 </v>
   <v>       0.15384615       0.15384615       0.00000000 </v>
   <v>       0.19230769       0.15384615       0.00000000 </v>
   <v>       0.23076923       0.15384615       0.00000000 </v>
   <v>       0.26923077       0.15384615       0.00000000 </v>
   <v>       0.30769231       0.15384615       0.00000000 </v>
   <v>       0.34615385       0.15384615       0.00000000 </v>
   <v>       0.38461538       0.15384615       0.00000000 </v>
   <v>       0.42307692       0.15384615       0.00000000 </v>
   <v>       0.19230769       0.19230769       0.00000000 </v>
   <v>       0.23076923       0.19230769       0.00000000 </v>
   <v>       0.26923077       0.19230769       0.00000000 </v>
   <v>       0.30769231       0.19230769       0.00000000 </v>
   <v>       0.34615385       0.19230769       0.00000000 </v>
   <v>       0.38461538       0.19230769       0.00000000 </v>
   <v>       0.23076923       0.23076923       0.00000000 </v>
   <v>       0.26923077       0.23076923       0.00000000 </v>
   <v>       0.30769231       0.23076923       0.00000000 </v>
   <v>       0.34615385       0.23076923       0.00000000 </v>
   <v>       0.38461538       0.23076923       0.00000000 </v>
   <v>       0.26923077       0.26923077       0.00000000 </v>
   <v>       0.30769231       0.26923077       0.00000000 </v>
   <v>       0.34615385       0.26923077       0.00000000 </v>
   <v>       0.30769231       0.30769231       0.00000000 </v>
   <v>       0.34615385       0.30769231       0.00000000 </v>
  </varray>
  <varray name="weights" >
   <v>       0.00147929 </v>
   <v>       0.00887574 </v>
   <v>       0.00887574 </v>
   <v>       0.00887574 </v>
   <v>       0.00887574 </v>
   <v>       0.00887574 </v>
   <v>       0.00887574 </v>
   <v>       0.00887574 </v>
   <v>       0.00887574 </v>
   <v>       0.00887574 </v>
   <v>       0.00887574 </v>
   <v>       0.00887574 </v>
   <v>       0.00887574 </v>
   <v>       0.00443787 </v>
   <v>       0.00887574 </v>
   <v>       0.01775148 </v>
   <v>       0.01775148 </v>
   <v>       0.01775148 </v>
   <v>       0.01775148 </v>
   <v>       0.01775148 </v>
   <v>       0.01775148 </v>
   <v>       0.01775148 </v>
   <v>       0.01775148 </v>
   <v>       0.01775148 </v>
   <v>       0.01775148 </v>
   <v>       0.01775148 </v>
   <v>       0.00887574 </v>
   <v>       0.01775148 </v>
   <v>       0.01775148 </v>
   <v>       0.01775148 </v>
   <v>       0.01775148 </v>
   <v>       0.01775148 </v>
   <v>       0.01775148 </v>
   <v>       0.01775148 </v>
   <v>       0.01775148 </v>
   <v>       0.01775148 </v>
   <v>       0.00887574 </v>
   <v>       0.00887574 </v>
   <v>       0.01775148 </v>
   <v>       0.01775148 </v>
   <v>       0.01775148 </v>
   <v>       0.01775148 </v>
   <v>       0.01775148 </v>
   <v>       0.01775148 </v>
   <v>       0.01775148 </v>
   <v>       0.01775148 </v>
   <v>       0.00887574 </v>
   <v>       0.01775148 </v>
   <v>       0.01775148 </v>
   <v>       0.01775148 </v>
   <v>       0.01775148 </v>
   <v>       0.01775148 </v>
   <v>       0.01775148 </v>
   <v>       0.00887574 </v>
   <v>       0.00887574 </v>
   <v>       0.01775148 </v>
   <v>       0.01775148 </v>
   <v>       0.01775148 </v>
   <v>       0.01775148 </v>
   <v>       0.01775148 </v>
   <v>       0.00887574 </v>
   <v>       0.01775148 </v>
   <v>       0.01775148 </v>
   <v>       0.01775148 </v>
   <v>       0.00887574 </v>
   <v>       0.00887574 </v>
   <v>       0.01775148 </v>
   <v>       0.01775148 </v>
   <v>       0.00887574 </v>
   <v>       0.00887574 </v>
  </varray>
 </kpoints>
 <parameters>
  <separator name="general" >
   <i type="string" name="SYSTEM">unknown system</i>
   <i type="logical" name="LCOMPAT"> F  </i>
  </separator>
  <separator name="electronic" >
   <i type="string" name="PREC">accura</i>
   <i name="ENMAX">    234.78975000</i>
   <i name="ENAUG">    462.75800000</i>
   <i name="EDIFF">      0.00000100</i>
   <i type="int" name="IALGO">    38</i>
   <i type="int" name="IWAVPR">    10</i>
   <i type="int" name="NBANDS">    16</i>
   <i type="int" name="NBANDSLOW">    -1</i>
   <i type="int" name="NBANDSHIGH">    -1</i>
   <i name="NELECT">     10.00000000</i>
   <i type="int" name="TURBO">     0</i>
   <i type="int" name="IRESTART">     0</i>
   <i type="int" name="NREBOOT">     0</i>
   <i type="int" name="NMIN">     0</i>
   <i name="EREF">      0.00000000</i>
   <separator name="electronic smearing" >
    <i type="int" name="ISMEAR">     0</i>
    <i name="SIGMA">      0.01000000</i>
    <i name="KSPACING">      0.50000000</i>
    <i type="logical" name="KGAMMA"> T  </i>
    <i type="logical" name="KBLOWUP"> T  </i>
   </separator>
   <separator name="electronic projectors" >
    <i type="logical" name="LREAL"> F  </i>
    <v name="ROPT">      0.00000000</v>
    <i type="int" name="LMAXPAW">  -100</i>
    <i type="int" name="LMAXMIX">     2</i>
    <i type="logical" name="NLSPLINE"> F  </i>
   </separator>
   <separator name="electronic startup" >
    <i type="int" name="ISTART">     0</i>
    <i type="int" name="ICHARG">     2</i>
    <i type="int" name="INIWAV">     1</i>
   </separator>
   <separator name="electronic spin" >
    <i type="int" name="ISPIN">     1</i>
    <i type="logical" name="LNONCOLLINEAR"> F  </i>
    <v name="MAGMOM">      1.00000000      1.00000000</v>
    <i name="NUPDOWN">     -1.00000000</i>
    <i type="logical" name="LSORBIT"> F  </i>
    <v name="SAXIS">      0.00000000      0.00000000      1.00000000</v>
    <i type="logical" name="LSPIRAL"> F  </i>
    <v name="QSPIRAL">      0.00000000      0.00000000      0.00000000</v>
    <i type="logical" name="LZEROZ"> F  </i>
   </separator>
   <separator name="electronic exchange-correlation" >
    <i type="logical" name="LASPH"> T  </i>
    <i type="logical" name="LMETAGGA"> F  </i>
   </separator>
   <separator name="electronic convergence" >
    <i type="int" name="NELM">   200</i>
    <i type="int" name="NELMDL">   -12</i>
    <i type="int" name="NELMIN">     6</i>
    <i name="ENINI">    234.78975000</i>
    <separator name="electronic convergence detail" >
     <i type="logical" name="LDIAG"> T  </i>
     <i type="logical" name="LSUBROT"> F  </i>
     <i name="WEIMIN">      0.00000000</i>
     <i name="EBREAK">      0.00000002</i>
     <i name="DEPER">      0.30000000</i>
     <i type="int" name="NRMM">     4</i>
     <i name="TIME">      0.40000000</i>
    </separator>
   </separator>
   <separator name="electronic mixer" >
    <i name="AMIX">      0.10000000</i>
    <i name="BMIX">      0.00010000</i>
    <i name="AMIN">      0.10000000</i>
    <i name="AMIX_MAG">      0.40000000</i>
    <i name="BMIX_MAG">      0.00010000</i>
    <separator name="electronic mixer details" >
     <i type="int" name="IMIX">     4</i>
     <i type="logical" name="MIXFIRST"> F  </i>
     <i type="int" name="MAXMIX">   -45</i>
     <i name="WC">    100.00000000</i>
     <i type="int" name="INIMIX">     1</i>
     <i type="int" name="MIXPRE">     1</i>
     <i type="int" name="MREMOVE">     5</i>
    </separator>
   </separator>
   <separator name="electronic dipolcorrection" >
    <i type="logical" name="LDIPOL"> F  </i>
    <i type="logical" name="LMONO"> F  </i>
    <i type="int" name="IDIPOL">     0</i>
    <i name="EPSILON">      1.00000000</i>
    <v name="DIPOL">   -100.00000000   -100.00000000   -100.00000000</v>
    <i name="EFIELD">      0.00000000</i>
   </separator>
  </separator>
  <separator name="grids" >
   <i type="int" name="NGX">    18</i>
   <i type="int" name="NGY">    18</i>
   <i type="int" name="NGZ">    80</i>
   <i type="int" name="NGXF">    36</i>
   <i type="int" name="NGYF">    36</i>
   <i type="int" name="NGZF">   160</i>
   <i type="logical" name="ADDGRID"> T  </i>
  </separator>
  <separator name="ionic" >
   <i type="int" name="NSW">     0</i>
   <i type="int" name="IBRION">    -1</i>
   <i type="int" name="MDALGO">     0</i>
   <i type="int" name="ISIF">    -1</i>
   <i name="PSTRESS">      0.00000000</i>
   <i name="EDIFFG">     -0.01000000</i>
   <i type="int" name="NFREE">     1</i>
   <i name="POTIM">      0.50000000</i>
   <i name="SMASS">     -3.00000000</i>
   <i name="SCALEE">      1.00000000</i>
  </separator>
  <separator name="ionic md" >
   <i name="TEBEG">      0.00010000</i>
   <i name="TEEND">      0.00010000</i>
   <i type="int" name="NBLOCK">     1</i>
   <i type="int" name="KBLOCK">     1</i>
   <i type="int" name="NPACO">   256</i>
   <i name="APACO">     10.00000000</i>
  </separator>
  <separator name="symmetry" >
   <i type="int" name="ISYM">     2</i>
   <i name="SYMPREC">      0.00001000</i>
  </separator>
  <separator name="dos" >
   <i type="int" name="LORBIT">    10</i>
   <v name="RWIGS">     -1.00000000</v>
   <i type="int" name="NEDOS">  6001</i>
   <i name="EMIN">     10.00000000</i>
   <i name="EMAX">    -10.00000000</i>
   <i name="EFERMI">      0.00000000</i>
  </separator>
  <separator name="writing" >
   <i type="int" name="NWRITE">     1</i>
   <i type="logical" name="LWAVE"> F  </i>
   <i type="logical" name="LDOWNSAMPLE"> F  </i>
   <i type="logical" name="LCHARG"> F  </i>
   <i type="logical" name="LPARD"> F  </i>
   <i type="logical" name="LVTOT"> F  </i>
   <i type="logical" name="LVHAR"> F  </i>
   <i type="logical" name="LELF"> F  </i>
   <i type="logical" name="LOPTICS"> F  </i>
   <v name="STM">      0.00000000      0.00000000      0.00000000      0.00000000      0.00000000      0.00000000      0.00000000</v>
  </separator>
  <separator name="performance" >
   <i type="int" name="NPAR">     4</i>
   <i type="int" name="NSIM">     4</i>
   <i type="int" name="NBLK">    -1</i>
   <i type="logical" name="LPLANE"> T  </i>
   <i type="logical" name="LSCALAPACK"> T  </i>
   <i type="logical" name="LSCAAWARE"> F  </i>
   <i type="logical" name="LSCALU"> F  </i>
   <i type="logical" name="LASYNC"> F  </i>
   <i type="logical" name="LORBITALREAL"> F  </i>
  </separator>
  <separator name="miscellaneous" >
   <i type="int" name="IDIOT">     3</i>
   <i type="int" name="PHON_NSTRUCT">    -1</i>
   <i type="logical" name="LMUSIC"> F  </i>
   <v name="POMASS">     74.92200000</v>
   <v name="DARWINR">      0.00000000</v>
   <v name="DARWINV">      1.00000000</v>
   <i type="logical" name="LCORR"> T  </i>
  </separator>
  <i type="logical" name="GGA_COMPAT"> T  </i>
  <i type="logical" name="LBERRY"> F  </i>
  <i type="int" name="ICORELEVEL">     0</i>
  <i type="logical" name="LDAU"> F  </i>
  <i type="int" name="I_CONSTRAINED_M">     0</i>
  <separator name="electronic exchange-correlation" >
   <i type="string" name="GGA">--</i>
   <i type="int" name="VOSKOWN">     0</i>
   <i type="logical" name="LHFCALC"> F  </i>
   <i type="string" name="PRECFOCK"></i>
   <i type="logical" name="LSYMGRAD"> F  </i>
   <i type="logical" name="LHFONE"> F  </i>
   <i type="logical" name="LRHFCALC"> F  </i>
   <i type="logical" name="LTHOMAS"> F  </i>
   <i type="logical" name="LMODELHF"> F  </i>
   <i type="logical" name="LFOCKACE"> F  </i>
   <i name="ENCUT4O">     -1.00000000</i>
   <i type="int" name="EXXOEP">     0</i>
   <i type="int" name="FOURORBIT">     0</i>
   <i name="AEXX">      0.00000000</i>
   <i name="HFALPHA">      0.00000000</i>
   <i name="MCALPHA">      0.00000000</i>
   <i name="ALDAX">      1.00000000</i>
   <i name="AGGAX">      1.00000000</i>
   <i name="ALDAC">      1.00000000</i>
   <i name="AGGAC">      1.00000000</i>
   <i type="int" name="NKREDX">     1</i>
   <i type="int" name="NKREDY">     1</i>
   <i type="int" name="NKREDZ">     1</i>
   <i type="logical" name="SHIFTRED"> F  </i>
   <i type="logical" name="ODDONLY"> F  </i>
   <i type="logical" name="EVENONLY"> F  </i>
   <i type="int" name="LMAXFOCK">     0</i>
   <i type="int" name="NMAXFOCKAE">     0</i>
   <i type="logical" name="LFOCKAEDFT"> F  </i>
   <i name="HFSCREEN">      0.00000000</i>
   <i name="HFSCREENC">      0.00000000</i>
   <i type="int" name="NBANDSGWLOW">     0</i>
  </separator>
  <separator name="vdW DFT" >
   <i type="logical" name="LUSE_VDW"> F  </i>
   <i type="int" name="IVDW_NL">     1</i>
   <i type="logical" name="LSPIN_VDW"> F  </i>
   <i name="Zab_VDW">     -0.84910000</i>
   <i name="PARAM1">      0.12340000</i>
   <i name="PARAM2">      1.00000000</i>
   <i name="PARAM3">      0.00000000</i>
  </separator>
  <separator name="model GW" >
   <i type="int" name="MODEL_GW">     0</i>
   <i name="MODEL_EPS0">     54.08019838</i>
   <i name="MODEL_ALPHA">      1.00000000</i>
  </separator>
  <separator name="linear response parameters" >
   <i type="logical" name="LEPSILON"> F  </i>
   <i type="logical" name="LRPA"> F  </i>
   <i type="logical" name="LNABLA"> F  </i>
   <i type="logical" name="LVEL"> F  </i>
   <i name="CSHIFT">      0.10000000</i>
   <i name="OMEGAMAX">     -1.00000000</i>
   <i name="DEG_THRESHOLD">      0.00200000</i>
   <i name="RTIME">     -0.10000000</i>
   <i name="WPLASMAI">      0.00000000</i>
   <v name="DFIELD">      0.00000000      0.00000000      0.00000000</v>
   <v name="WPLASMA">      0.00000000      0.00000000      0.00000000      0.00000000      0.00000000      0.00000000      0.00000000      0.00000000      0.00000000</v>
  </separator>
  <separator name="orbital magnetization" >
   <i type="logical" name="NUCIND"> F  </i>
   <v name="MAGPOS">      0.00000000      0.00000000      0.00000000</v>
   <i type="logical" name="LNICSALL"> T  </i>
   <i type="logical" name="ORBITALMAG"> F  </i>
   <i type="logical" name="LMAGBLOCH"> F  </i>
   <i type="logical" name="LCHIMAG"> F  </i>
   <i type="logical" name="LGAUGE"> T  </i>
   <i type="int" name="MAGATOM">     0</i>
   <v name="MAGDIPOL">      0.00000000      0.00000000      0.00000000</v>
   <v name="AVECCONST">      0.00000000      0.00000000      0.00000000</v>
  </separator>
  <separator name="response functions" >
   <i type="logical" name="LALL_IN_ONE"> F  </i>
   <i type="int" name="IALL_IN_ONE">    -1</i>
   <i type="int" name="NBANDS_WAVE">    -1</i>
   <i type="logical" name="LFINITE_TEMPERATURE"> F  </i>
   <i type="logical" name="LADDER"> F  </i>
   <i type="logical" name="LRPAFORCE"> F  </i>
   <i type="logical" name="LFXC"> F  </i>
   <i type="logical" name="LHARTREE"> T  </i>
   <i type="int" name="IBSE">     0</i>
   <v type="int" name="KPOINT">    -1     0     0     0</v>
   <i type="logical" name="LTCTC"> F  </i>
   <i type="logical" name="LTCTE"> F  </i>
   <i type="logical" name="LTETE"> F  </i>
   <i type="logical" name="LTRIPLET"> F  </i>
   <i type="logical" name="LFXCEPS"> F  </i>
   <i type="logical" name="LFXHEG"> F  </i>
   <i type="int" name="NATURALO">     2</i>
   <i type="logical" name="LHOLEGF"> F  </i>
   <i type="logical" name="L2ORDER"> F  </i>
   <i type="logical" name="LDMP1"> F  </i>
   <i type="logical" name="LMP2LT"> F  </i>
   <i type="logical" name="LSMP2LT"> F  </i>
   <i type="logical" name="LGWLF"> F  </i>
   <i name="ENCUTGW">     -1.60000002</i>
   <i name="ENCUTGWSOFT">     -1.60000002</i>
   <i name="ENCUTLF">     -1.00000000</i>
   <i type="logical" name="LESF_SPLINES"> F  </i>
   <i type="int" name="LMAXMP2">    -1</i>
   <i name="SCISSOR">      0.00000000</i>
   <i type="int" name="NOMEGA">     0</i>
   <i type="int" name="NOMEGAR">     0</i>
   <i type="int" name="NBANDSGW">    -1</i>
   <i type="int" name="NBANDSO">    -1</i>
   <i type="int" name="NBANDSV">    -1</i>
   <i type="int" name="NELMGW">     1</i>
   <i type="int" name="NELMHF">     1</i>
   <i type="int" name="DIM">     3</i>
   <i type="int" name="IESPILON">     4</i>
   <i type="int" name="ANTIRES">     0</i>
   <i name="OMEGAMAX">    -30.00000000</i>
   <i name="OMEGAMIN">    -30.00000000</i>
   <i name="OMEGATL">   -200.00000000</i>
   <i type="int" name="OMEGAGRID">     0</i>
   <i name="CSHIFT">     -0.10000000</i>
   <i type="logical" name="LSELFENERGY"> F  </i>
   <i type="logical" name="LSPECTRAL"> F  </i>
   <i type="logical" name="LSPECTRALGW"> F  </i>
   <i type="logical" name="LSINGLES"> F  </i>
   <i type="logical" name="LFERMIGW"> F  </i>
   <i type="logical" name="ODDONLYGW"> F  </i>
   <i type="logical" name="EVENONLYGW"> F  </i>
   <i type="int" name="NKREDLFX">     1</i>
   <i type="int" name="NKREDLFY">     1</i>
   <i type="int" name="NKREDLFZ">     1</i>
   <i type="int" name="MAXMEM">  2800</i>
   <i type="int" name="TELESCOPE">     0</i>
   <i type="int" name="NTAUPAR">    -1</i>
   <i type="int" name="NOMEGAPAR">    -1</i>
   <i name="DAMP_NEWTON">      0.80000001</i>
   <i name="LAMBDA">      1.00000000</i>
  </separator>
  <separator name="External order field" >
   <i name="OFIELD_KAPPA">      0.00000000</i>
   <v name="OFIELD_K">      0.00000000      0.00000000      0.00000000</v>
   <i name="OFIELD_Q6_NEAR">      0.00000000</i>
   <i name="OFIELD_Q6_FAR">      0.00000000</i>
   <i name="OFIELD_A">      0.00000000</i>
  </separator>
  <separator name="optional k-points parameters" >
   <i type="int" name="KPOINTS_OPT_MODE">     1</i>
   <i type="logical" name="LKPOINTS_OPT"> F  </i>
  </separator>
 </parameters>
 <atominfo>
  <atoms>       2 </atoms>
  <types>       1 </types>
  <array name="atoms" >
   <dimension dim="1">ion</dimension>
   <field type="string">element</field>
   <field type="int">atomtype</field>
   <set>
    <rc><c>As</c><c>   1</c></rc>
    <rc><c>As</c><c>   1</c></rc>
   </set>
  </array>
  <array name="atomtypes" >
   <dimension dim="1">type</dimension>
   <field type="int">atomspertype</field>
   <field type="string">element</field>
   <field>mass</field>
   <field>valence</field>
   <field type="string">pseudopotential</field>
   <set>
    <rc><c>   2</c><c>As</c><c>     74.92200000</c><c>      5.00000000</c><c>  PAW_PBE As_GW 20Mar2012               </c></rc>
   </set>
  </array>
 </atominfo>
 <structure name="initialpos" >
  <crystal>
   <varray name="basis" >
    <v>       3.60689254       0.00000000       0.00000000 </v>
    <v>      -1.80344627       3.12366057       0.00000000 </v>
    <v>       0.00000000       0.00000000      16.00000000 </v>
   </varray>
   <i name="volume">    180.26732792 </i>
   <varray name="rec_basis" >
    <v>       0.27724696       0.16006861       0.00000000 </v>
    <v>       0.00000000       0.32013722       0.00000000 </v>
    <v>       0.00000000       0.00000000       0.06250000 </v>
   </varray>
  </crystal>
  <varray name="positions" >
   <v>       0.66666667       0.33333333       0.45634314 </v>
   <v>       0.33333333       0.66666667       0.54365686 </v>
  </varray>
 </structure>
 <calculation>
  <scstep>
   <time name="dav">    0.39    0.39</time>
   <time name="total">    0.58    0.58</time>
   <energy>
    <i name="alphaZ">      5.26383816 </i>
    <i name="ewald">    378.22030483 </i>
    <i name="hartreedc">   -664.27977220 </i>
    <i name="XCdc">    -23.94414315 </i>
    <i name="pawpsdc">    294.12882363 </i>
    <i name="pawaedc">   -251.25503797 </i>
    <i name="eentropy">     -0.00000234 </i>
    <i name="bandstr">    -48.56945547 </i>
    <i name="atom">    340.36393574 </i>
    <i name="e_fr_energy">     29.92849124 </i>
    <i name="e_wo_entrp">     29.92849358 </i>
    <i name="e_0_energy">     29.92849241 </i>
   </energy>
  </scstep>
  <scstep>
   <time name="dav">    0.49    0.50</time>
   <time name="total">    0.50    0.50</time>
   <energy>
    <i name="e_fr_energy">     -6.06114781 </i>
    <i name="e_wo_entrp">     -6.06114781 </i>
    <i name="e_0_energy">     -6.06114781 </i>
   </energy>
  </scstep>
  <scstep>
   <time name="dav">    0.48    0.48</time>
   <time name="total">    0.48    0.48</time>
   <energy>
    <i name="e_fr_energy">     -9.17808500 </i>
    <i name="e_wo_entrp">     -9.17808500 </i>
    <i name="e_0_energy">     -9.17808500 </i>
   </energy>
  </scstep>
  <scstep>
   <time name="dav">    0.53    0.53</time>
   <time name="total">    0.53    0.53</time>
   <energy>
    <i name="e_fr_energy">     -9.40036163 </i>
    <i name="e_wo_entrp">     -9.40036163 </i>
    <i name="e_0_energy">     -9.40036163 </i>
   </energy>
  </scstep>
  <scstep>
   <time name="dav">    0.48    0.48</time>
   <time name="total">    0.48    0.48</time>
   <energy>
    <i name="e_fr_energy">     -9.40238952 </i>
    <i name="e_wo_entrp">     -9.40238952 </i>
    <i name="e_0_energy">     -9.40238952 </i>
   </energy>
  </scstep>
  <scstep>
   <time name="dav">    0.53    0.53</time>
   <time name="total">    0.53    0.53</time>
   <energy>
    <i name="e_fr_energy">     -9.40247099 </i>
    <i name="e_wo_entrp">     -9.40247099 </i>
    <i name="e_0_energy">     -9.40247099 </i>
   </energy>
  </scstep>
  <scstep>
   <time name="dav">    0.49    0.49</time>
   <time name="total">    0.49    0.49</time>
   <energy>
    <i name="e_fr_energy">     -9.40247157 </i>
    <i name="e_wo_entrp">     -9.40247157 </i>
    <i name="e_0_energy">     -9.40247157 </i>
   </energy>
  </scstep>
  <scstep>
   <time name="dav">    0.41    0.41</time>
   <time name="total">    0.41    0.41</time>
   <energy>
    <i name="e_fr_energy">     -9.40247159 </i>
    <i name="e_wo_entrp">     -9.40247159 </i>
    <i name="e_0_energy">     -9.40247159 </i>
   </energy>
  </scstep>
  <scstep>
   <time name="dav">    0.37    0.37</time>
   <time name="total">    0.37    0.37</time>
   <energy>
    <i name="e_fr_energy">     -9.40247159 </i>
    <i name="e_wo_entrp">     -9.40247159 </i>
    <i name="e_0_energy">     -9.40247159 </i>
   </energy>
  </scstep>
  <scstep>
   <time name="dav">    0.33    0.33</time>
   <time name="total">    0.34    0.34</time>
   <energy>
    <i name="e_fr_energy">     -9.40247159 </i>
    <i name="e_wo_entrp">     -9.40247159 </i>
    <i name="e_0_energy">     -9.40247159 </i>
   </energy>
  </scstep>
  <scstep>
   <time name="dav">    0.34    0.34</time>
   <time name="total">    0.34    0.34</time>
   <energy>
    <i name="e_fr_energy">     -9.40247159 </i>
    <i name="e_wo_entrp">     -9.40247159 </i>
    <i name="e_0_energy">     -9.40247159 </i>
   </energy>
  </scstep>
  <scstep>
   <time name="dav">    0.34    0.34</time>
   <time name="total">    0.37    0.37</time>
   <energy>
    <i name="e_fr_energy">     -9.40247159 </i>
    <i name="e_wo_entrp">     -9.40247159 </i>
    <i name="e_0_energy">     -9.40247159 </i>
   </energy>
  </scstep>
  <scstep>
   <time name="dav">    0.62    0.62</time>
   <time name="total">    0.92    0.92</time>
   <energy>
    <i name="e_fr_energy">     -9.38788019 </i>
    <i name="e_wo_entrp">     -9.38788019 </i>
    <i name="e_0_energy">     -9.38788019 </i>
   </energy>
  </scstep>
  <scstep>
   <time name="dav">    0.64    0.64</time>
   <time name="total">    0.96    0.96</time>
   <energy>
    <i name="e_fr_energy">     -9.34532829 </i>
    <i name="e_wo_entrp">     -9.34532829 </i>
    <i name="e_0_energy">     -9.34532829 </i>
   </energy>
  </scstep>
  <scstep>
   <time name="dav">    0.65    0.65</time>
   <time name="total">    0.96    0.96</time>
   <energy>
    <i name="e_fr_energy">     -9.34171625 </i>
    <i name="e_wo_entrp">     -9.34171625 </i>
    <i name="e_0_energy">     -9.34171625 </i>
   </energy>
  </scstep>
  <scstep>
   <time name="dav">    0.69    0.69</time>
   <time name="total">    1.00    1.00</time>
   <energy>
    <i name="e_fr_energy">     -9.34185951 </i>
    <i name="e_wo_entrp">     -9.34185951 </i>
    <i name="e_0_energy">     -9.34185951 </i>
   </energy>
  </scstep>
  <scstep>
   <time name="dav">    0.74    0.75</time>
   <time name="total">    1.06    1.06</time>
   <energy>
    <i name="e_fr_energy">     -9.34176149 </i>
    <i name="e_wo_entrp">     -9.34176149 </i>
    <i name="e_0_energy">     -9.34176149 </i>
   </energy>
  </scstep>
  <scstep>
   <time name="dav">    0.60    0.60</time>
   <time name="total">    0.91    0.91</time>
   <energy>
    <i name="e_fr_energy">     -9.34175159 </i>
    <i name="e_wo_entrp">     -9.34175159 </i>
    <i name="e_0_energy">     -9.34175159 </i>
   </energy>
  </scstep>
  <scstep>
   <time name="dav">    0.74    0.74</time>
   <time name="total">    1.06    1.06</time>
   <energy>
    <i name="e_fr_energy">     -9.34175287 </i>
    <i name="e_wo_entrp">     -9.34175287 </i>
    <i name="e_0_energy">     -9.34175287 </i>
   </energy>
  </scstep>
  <scstep>
   <time name="dav">    0.67    0.67</time>
   <time name="total">    0.99    1.00</time>
   <energy>
    <i name="e_fr_energy">     -9.34175389 </i>
    <i name="e_wo_entrp">     -9.34175389 </i>
    <i name="e_0_energy">     -9.34175389 </i>
   </energy>
  </scstep>
  <scstep>
   <time name="dav">    0.67    0.67</time>
   <time name="total">    0.96    0.96</time>
   <energy>
    <i name="alphaZ">      5.26383816 </i>
    <i name="ewald">    378.22030483 </i>
    <i name="hartreedc">   -670.07718462 </i>
    <i name="XCdc">    -23.49331819 </i>
    <i name="pawpsdc">    332.31907464 </i>
    <i name="pawaedc">   -289.59130000 </i>
    <i name="eentropy">     -0.00000000 </i>
    <i name="bandstr">    -82.34710445 </i>
    <i name="atom">    340.36393574 </i>
    <i name="e_fr_energy">     -9.34175389 </i>
    <i name="e_wo_entrp">     -9.34175389 </i>
    <i name="e_0_energy">     -9.34175389 </i>
   </energy>
  </scstep>
  <structure>
   <crystal>
    <varray name="basis" >
     <v>       3.60689254       0.00000000       0.00000000 </v>
     <v>      -1.80344627       3.12366057       0.00000000 </v>
     <v>       0.00000000       0.00000000      16.00000000 </v>
    </varray>
    <i name="volume">    180.26732792 </i>
    <varray name="rec_basis" >
     <v>       0.27724696       0.16006861       0.00000000 </v>
     <v>       0.00000000       0.32013722       0.00000000 </v>
     <v>       0.00000000       0.00000000       0.06250000 </v>
    </varray>
   </crystal>
   <varray name="positions" >
    <v>       0.66666667       0.33333333       0.45634314 </v>
    <v>       0.33333333       0.66666667       0.54365686 </v>
   </varray>
  </structure>
  <varray name="forces" >
   <v>       0.00000000       0.00000000       0.00000000 </v>
   <v>       0.00000000       0.00000000       0.00000000 </v>
  </varray>
  <varray name="stress" >
   <v>       0.00000000       0.00000000       0.00000000 </v>
   <v>       0.00000000       0.00000000       0.00000000 </v>
   <v>       0.00000000       0.00000000       0.00000000 </v>
  </varray>
  <energy>
   <i name="e_fr_energy">     -9.34175389 </i>
   <i name="e_wo_entrp">     -9.34175389 </i>
   <i name="e_0_energy">     -9.34175389 </i>
  </energy>
  <time name="totalsc">   14.23   14.37</time>
  <eigenvalues>
   <array>
    <dimension dim="1">band</dimension>
    <dimension dim="2">kpoint</dimension>
    <dimension dim="3">spin</dimension>
    <field>eigene</field>
    <field>occ</field>
    <set>
     <set comment="spin 1">
      <set comment="kpoint 1">
       <r>  -16.4751    1.0000 </r>
       <r>  -10.1873    1.0000 </r>
       <r>   -3.5630    1.0000 </r>
       <r>   -3.0141    1.0000 </r>
       <r>   -3.0141    1.0000 </r>
       <r>   -1.0920    0.0000 </r>
       <r>    0.4769    0.0000 </r>
       <r>    0.4769    0.0000 </r>
       <r>    1.9034    0.0000 </r>
       <r>    1.9965    0.0000 </r>
       <r>    3.3760    0.0000 </r>
       <r>    4.3041    0.0000 </r>
       <r>    5.8641    0.0000 </r>
       <r>    6.8853    0.0000 </r>
       <r>    7.0689    0.0000 </r>
       <r>    7.0689    0.0000 </r>
      </set>
      <set comment="kpoint 2">
       <r>  -16.4555    1.0000 </r>
       <r>  -10.1842    1.0000 </r>
       <r>   -3.5531    1.0000 </r>
       <r>   -3.2640    1.0000 </r>
       <r>   -3.0611    1.0000 </r>
       <r>   -0.8766    0.0000 </r>
       <r>    0.4247    0.0000 </r>
       <r>    0.5256    0.0000 </r>
       <r>    1.9316    0.0000 </r>
       <r>    2.0210    0.0000 </r>
       <r>    3.3988    0.0000 </r>
       <r>    4.3276    0.0000 </r>
       <r>    5.9528    0.0000 </r>
       <r>    6.5596    0.0000 </r>
       <r>    7.0433    0.0000 </r>
       <r>    7.3011    0.0000 </r>
      </set>
      <set comment="kpoint 3">
       <r>  -16.3967    1.0000 </r>
       <r>  -10.1768    1.0000 </r>
       <r>   -3.8043    1.0000 </r>
       <r>   -3.5250    1.0000 </r>
       <r>   -3.1914    1.0000 </r>
       <r>   -0.5080    0.0000 </r>
       <r>    0.3552    0.0000 </r>
       <r>    0.6578    0.0000 </r>
       <r>    2.0158    0.0000 </r>
       <r>    2.0924    0.0000 </r>
       <r>    3.4620    0.0000 </r>
       <r>    4.3976    0.0000 </r>
       <r>    6.0389    0.0000 </r>
       <r>    6.2412    0.0000 </r>
       <r>    6.9921    0.0000 </r>
       <r>    7.4266    0.0000 </r>
      </set>
      <set comment="kpoint 4">
       <r>  -16.2991    1.0000 </r>
       <r>  -10.1714    1.0000 </r>
       <r>   -4.4204    1.0000 </r>
       <r>   -3.4835    1.0000 </r>
       <r>   -3.3797    1.0000 </r>
       <r>   -0.4476    0.0000 </r>
       <r>    0.5494    0.0000 </r>
       <r>    0.8402    0.0000 </r>
       <r>    2.1454    0.0000 </r>
       <r>    2.2155    0.0000 </r>
       <r>    3.5561    0.0000 </r>
       <r>    4.5094    0.0000 </r>
       <r>    5.6218    0.0000 </r>
       <r>    6.4607    0.0000 </r>
       <r>    6.9682    0.0000 </r>
       <r>    7.2642    0.0000 </r>
      </set>
      <set comment="kpoint 5">
       <r>  -16.1634    1.0000 </r>
       <r>  -10.1793    1.0000 </r>
       <r>   -5.0255    1.0000 </r>
       <r>   -3.5990    1.0000 </r>
       <r>   -3.4379    1.0000 </r>
       <r>   -0.6746    0.0000 </r>
       <r>    0.9244    0.0000 </r>
       <r>    1.0350    0.0000 </r>
       <r>    2.2875    0.0000 </r>
       <r>    2.4042    0.0000 </r>
       <r>    3.6776    0.0000 </r>
       <r>    4.6434    0.0000 </r>
       <r>    5.3185    0.0000 </r>
       <r>    6.4813    0.0000 </r>
       <r>    7.0197    0.0000 </r>
       <r>    7.2309    0.0000 </r>
      </set>
      <set comment="kpoint 6">
       <r>  -15.9906    1.0000 </r>
       <r>  -10.2176    1.0000 </r>
       <r>   -5.5734    1.0000 </r>
       <r>   -3.8281    1.0000 </r>
       <r>   -3.4047    1.0000 </r>
       <r>   -0.9541    0.0000 </r>
       <r>    1.2104    0.0000 </r>
       <r>    1.2127    0.0000 </r>
       <r>    2.4319    0.0000 </r>
       <r>    2.6276    0.0000 </r>
       <r>    3.8354    0.0000 </r>
       <r>    4.7562    0.0000 </r>
       <r>    5.2874    0.0000 </r>
       <r>    6.2811    0.0000 </r>
       <r>    7.1794    0.0000 </r>
       <r>    7.3831    0.0000 </r>
      </set>
      <set comment="kpoint 7">
       <r>  -15.7823    1.0000 </r>
       <r>  -10.3085    1.0000 </r>
       <r>   -6.0281    1.0000 </r>
       <r>   -4.0517    1.0000 </r>
       <r>   -3.4090    1.0000 </r>
       <r>   -1.1983    0.0000 </r>
       <r>    1.3104    0.0000 </r>
       <r>    1.3462    0.0000 </r>
       <r>    2.5965    0.0000 </r>
       <r>    2.8585    0.0000 </r>
       <r>    4.0275    0.0000 </r>
       <r>    4.8955    0.0000 </r>
       <r>    5.4604    0.0000 </r>
       <r>    6.1496    0.0000 </r>
       <r>    7.4643    0.0000 </r>
       <r>    7.5318    0.0000 </r>
      </set>
      <set comment="kpoint 8">
       <r>  -15.5409    1.0000 </r>
       <r>  -10.4729    1.0000 </r>
       <r>   -6.3609    1.0000 </r>
       <r>   -4.2590    1.0000 </r>
       <r>   -3.4793    1.0000 </r>
       <r>   -1.3599    0.0000 </r>
       <r>    1.2086    0.0000 </r>
       <r>    1.4363    0.0000 </r>
       <r>    2.8255    0.0000 </r>
       <r>    3.1024    0.0000 </r>
       <r>    4.1964    0.0000 </r>
       <r>    5.1227    0.0000 </r>
       <r>    5.5468    0.0000 </r>
       <r>    6.3822    0.0000 </r>
       <r>    7.5551    0.0000 </r>
       <r>    7.8762    0.0000 </r>
      </set>
      <set comment="kpoint 9">
       <r>  -15.2702    1.0000 </r>
       <r>  -10.7197    1.0000 </r>
       <r>   -6.5581    1.0000 </r>
       <r>   -4.4429    1.0000 </r>
       <r>   -3.6309    1.0000 </r>
       <r>   -1.4173    0.0000 </r>
       <r>    0.9886    0.0000 </r>
       <r>    1.4856    0.0000 </r>
       <r>    3.1299    0.0000 </r>
       <r>    3.3433    0.0000 </r>
       <r>    4.2861    0.0000 </r>
       <r>    5.3665    0.0000 </r>
       <r>    5.6577    0.0000 </r>
       <r>    6.8990    0.0000 </r>
       <r>    7.4049    0.0000 </r>
       <r>    8.4042    0.0000 </r>
      </set>
      <set comment="kpoint 10">
       <r>  -14.9767    1.0000 </r>
       <r>  -11.0362    1.0000 </r>
       <r>   -6.6299    1.0000 </r>
       <r>   -4.5984    1.0000 </r>
       <r>   -3.8493    1.0000 </r>
       <r>   -1.3826    0.0000 </r>
       <r>    0.7350    0.0000 </r>
       <r>    1.5047    0.0000 </r>
       <r>    3.4944    0.0000 </r>
       <r>    3.5070    0.0000 </r>
       <r>    4.3600    0.0000 </r>
       <r>    5.5749    0.0000 </r>
       <r>    5.9692    0.0000 </r>
       <r>    7.0856    0.0000 </r>
       <r>    7.5426    0.0000 </r>
       <r>    8.1270    0.0000 </r>
      </set>
      <set comment="kpoint 11">
       <r>  -14.6721    1.0000 </r>
       <r>  -11.3907    1.0000 </r>
       <r>   -6.6059    1.0000 </r>
       <r>   -4.7222    1.0000 </r>
       <r>   -4.0984    1.0000 </r>
       <r>   -1.2894    0.0000 </r>
       <r>    0.4976    0.0000 </r>
       <r>    1.5060    0.0000 </r>
       <r>    3.5026    0.0000 </r>
       <r>    3.9098    0.0000 </r>
       <r>    4.5722    0.0000 </r>
       <r>    5.7955    0.0000 </r>
       <r>    6.3795    0.0000 </r>
       <r>    6.8945    0.0000 </r>
       <r>    7.3972    0.0000 </r>
       <r>    7.9669    0.0000 </r>
      </set>
      <set comment="kpoint 12">
       <r>  -14.3796    1.0000 </r>
       <r>  -11.7369    1.0000 </r>
       <r>   -6.5283    1.0000 </r>
       <r>   -4.8120    1.0000 </r>
       <r>   -4.3350    1.0000 </r>
       <r>   -1.1771    0.0000 </r>
       <r>    0.3032    0.0000 </r>
       <r>    1.4994    0.0000 </r>
       <r>    3.3989    0.0000 </r>
       <r>    4.3668    0.0000 </r>
       <r>    4.9176    0.0000 </r>
       <r>    5.9597    0.0000 </r>
       <r>    6.6514    0.0000 </r>
       <r>    6.8389    0.0000 </r>
       <r>    6.9387    0.0000 </r>
       <r>    7.5651    0.0000 </r>
      </set>
      <set comment="kpoint 13">
       <r>  -14.1465    1.0000 </r>
       <r>  -12.0093    1.0000 </r>
       <r>   -6.4466    1.0000 </r>
       <r>   -4.8665    1.0000 </r>
       <r>   -4.5109    1.0000 </r>
       <r>   -1.0847    0.0000 </r>
       <r>    0.1721    0.0000 </r>
       <r>    1.4925    0.0000 </r>
       <r>    3.3018    0.0000 </r>
       <r>    4.8555    0.0000 </r>
       <r>    5.2990    0.0000 </r>
       <r>    5.9062    0.0000 </r>
       <r>    6.2304    0.0000 </r>
       <r>    6.7218    0.0000 </r>
       <r>    7.3189    0.0000 </r>
       <r>    7.3711    0.0000 </r>
      </set>
      <set comment="kpoint 14">
       <r>  -14.0518    1.0000 </r>
       <r>  -12.1183    1.0000 </r>
       <r>   -6.4113    1.0000 </r>
       <r>   -4.8847    1.0000 </r>
       <r>   -4.5772    1.0000 </r>
       <r>   -1.0482    0.0000 </r>
       <r>    0.1249    0.0000 </r>
       <r>    1.4897    0.0000 </r>
       <r>    3.2644    0.0000 </r>
       <r>    5.2689    0.0000 </r>
       <r>    5.4063    0.0000 </r>
       <r>    5.7095    0.0000 </r>
       <r>    6.0507    0.0000 </r>
       <r>    6.5901    0.0000 </r>
       <r>    7.3639    0.0000 </r>
       <r>    7.8230    0.0000 </r>
      </set>
      <set comment="kpoint 15">
       <r>  -16.4162    1.0000 </r>
       <r>  -10.1789    1.0000 </r>
       <r>   -3.6409    1.0000 </r>
       <r>   -3.5341    1.0000 </r>
       <r>   -3.1583    1.0000 </r>
       <r>   -0.5775    0.0000 </r>
       <r>    0.3244    0.0000 </r>
       <r>    0.6391    0.0000 </r>
       <r>    1.9885    0.0000 </r>
       <r>    2.0684    0.0000 </r>
       <r>    3.4416    0.0000 </r>
       <r>    4.3745    0.0000 </r>
       <r>    6.0784    0.0000 </r>
       <r>    6.2669    0.0000 </r>
       <r>    6.9676    0.0000 </r>
       <r>    7.5105    0.0000 </r>
      </set>
      <set comment="kpoint 16">
       <r>  -16.3381    1.0000 </r>
       <r>  -10.1724    1.0000 </r>
       <r>   -4.1859    1.0000 </r>
       <r>   -3.4999    1.0000 </r>
       <r>   -3.3366    1.0000 </r>
       <r>   -0.3018    0.0000 </r>
       <r>    0.2573    0.0000 </r>
       <r>    0.8520    0.0000 </r>
       <r>    2.1009    0.0000 </r>
       <r>    2.1609    0.0000 </r>
       <r>    3.5189    0.0000 </r>
       <r>    4.4662    0.0000 </r>
       <r>    5.7751    0.0000 </r>
       <r>    6.4089    0.0000 </r>
       <r>    6.8531    0.0000 </r>
       <r>    7.4132    0.0000 </r>
      </set>
      <set comment="kpoint 17">
       <r>  -16.2214    1.0000 </r>
       <r>  -10.1734    1.0000 </r>
       <r>   -4.7706    1.0000 </r>
       <r>   -3.5665    1.0000 </r>
       <r>   -3.4511    1.0000 </r>
       <r>   -0.4187    0.0000 </r>
       <r>    0.5064    0.0000 </r>
       <r>    1.1063    0.0000 </r>
       <r>    2.2431    0.0000 </r>
       <r>    2.3132    0.0000 </r>
       <r>    3.6225    0.0000 </r>
       <r>    4.5942    0.0000 </r>
       <r>    5.4052    0.0000 </r>
       <r>    6.5434    0.0000 </r>
       <r>    6.8726    0.0000 </r>
       <r>    7.3005    0.0000 </r>
      </set>
      <set comment="kpoint 18">
       <r>  -16.0671    1.0000 </r>
       <r>  -10.1959    1.0000 </r>
       <r>   -5.3295    1.0000 </r>
       <r>   -3.8091    1.0000 </r>
       <r>   -3.4109    1.0000 </r>
       <r>   -0.6923    0.0000 </r>
       <r>    0.8182    0.0000 </r>
       <r>    1.3348    0.0000 </r>
       <r>    2.3847    0.0000 </r>
       <r>    2.5232    0.0000 </r>
       <r>    3.7537    0.0000 </r>
       <r>    4.7252    0.0000 </r>
       <r>    5.2201    0.0000 </r>
       <r>    6.4150    0.0000 </r>
       <r>    7.0854    0.0000 </r>
       <r>    7.3077    0.0000 </r>
      </set>
      <set comment="kpoint 19">
       <r>  -15.8765    1.0000 </r>
       <r>  -10.2598    1.0000 </r>
       <r>   -5.8195    1.0000 </r>
       <r>   -4.0514    1.0000 </r>
       <r>   -3.3917    1.0000 </r>
       <r>   -0.9617    0.0000 </r>
       <r>    1.0546    0.0000 </r>
       <r>    1.4591    0.0000 </r>
       <r>    2.5322    0.0000 </r>
       <r>    2.7510    0.0000 </r>
       <r>    3.9244    0.0000 </r>
       <r>    4.8357    0.0000 </r>
       <r>    5.3049    0.0000 </r>
       <r>    6.2427    0.0000 </r>
       <r>    7.3333    0.0000 </r>
       <r>    7.4466    0.0000 </r>
      </set>
      <set comment="kpoint 20">
       <r>  -15.6514    1.0000 </r>
       <r>  -10.3872    1.0000 </r>
       <r>   -6.2058    1.0000 </r>
       <r>   -4.2791    1.0000 </r>
       <r>   -3.4216    1.0000 </r>
       <r>   -1.1710    0.0000 </r>
       <r>    1.1907    0.0000 </r>
       <r>    1.4316    0.0000 </r>
       <r>    2.7229    0.0000 </r>
       <r>    2.9923    0.0000 </r>
       <r>    4.1151    0.0000 </r>
       <r>    5.0127    0.0000 </r>
       <r>    5.4820    0.0000 </r>
       <r>    6.2210    0.0000 </r>
       <r>    7.5075    0.0000 </r>
       <r>    7.7437    0.0000 </r>
      </set>
      <set comment="kpoint 21">
       <r>  -15.3949    1.0000 </r>
       <r>  -10.5939    1.0000 </r>
       <r>   -6.4650    1.0000 </r>
       <r>   -4.4828    1.0000 </r>
       <r>   -3.5250    1.0000 </r>
       <r>   -1.2865    0.0000 </r>
       <r>    1.1342    0.0000 </r>
       <r>    1.3867    0.0000 </r>
       <r>    2.9901    0.0000 </r>
       <r>    3.2458    0.0000 </r>
       <r>    4.2581    0.0000 </r>
       <r>    5.2563    0.0000 </r>
       <r>    5.5897    0.0000 </r>
       <r>    6.5212    0.0000 </r>
       <r>    7.4954    0.0000 </r>
       <r>    8.1997    0.0000 </r>
      </set>
      <set comment="kpoint 22">
       <r>  -15.1119    1.0000 </r>
       <r>  -10.8784    1.0000 </r>
       <r>   -6.5950    1.0000 </r>
       <r>   -4.6562    1.0000 </r>
       <r>   -3.7058    1.0000 </r>
       <r>   -1.3005    0.0000 </r>
       <r>    0.9004    0.0000 </r>
       <r>    1.4101    0.0000 </r>
       <r>    3.3260    0.0000 </r>
       <r>    3.4702    0.0000 </r>
       <r>    4.3305    0.0000 </r>
       <r>    5.4797    0.0000 </r>
       <r>    5.8143    0.0000 </r>
       <r>    6.9369    0.0000 </r>
       <r>    7.4302    0.0000 </r>
       <r>    8.3066    0.0000 </r>
      </set>
      <set comment="kpoint 23">
       <r>  -14.8109    1.0000 </r>
       <r>  -11.2180    1.0000 </r>
       <r>   -6.6162    1.0000 </r>
       <r>   -4.7939    1.0000 </r>
       <r>   -3.9406    1.0000 </r>
       <r>   -1.2342    0.0000 </r>
       <r>    0.6428    0.0000 </r>
       <r>    1.4268    0.0000 </r>
       <r>    3.5613    0.0000 </r>
       <r>    3.7171    0.0000 </r>
       <r>    4.4599    0.0000 </r>
       <r>    5.7025    0.0000 </r>
       <r>    6.1842    0.0000 </r>
       <r>    6.9697    0.0000 </r>
       <r>    7.5824    0.0000 </r>
       <r>    7.9468    0.0000 </r>
      </set>
      <set comment="kpoint 24">
       <r>  -14.5082    1.0000 </r>
       <r>  -11.5740    1.0000 </r>
       <r>   -6.5649    1.0000 </r>
       <r>   -4.8916    1.0000 </r>
       <r>   -4.1915    1.0000 </r>
       <r>   -1.1232    0.0000 </r>
       <r>    0.4102    0.0000 </r>
       <r>    1.4343    0.0000 </r>
       <r>    3.4909    0.0000 </r>
       <r>    4.1542    0.0000 </r>
       <r>    4.7492    0.0000 </r>
       <r>    5.9240    0.0000 </r>
       <r>    6.6174    0.0000 </r>
       <r>    6.8147    0.0000 </r>
       <r>    7.1307    0.0000 </r>
       <r>    7.8060    0.0000 </r>
      </set>
      <set comment="kpoint 25">
       <r>  -14.2368    1.0000 </r>
       <r>  -11.8927    1.0000 </r>
       <r>   -6.4859    1.0000 </r>
       <r>   -4.9456    1.0000 </r>
       <r>   -4.4144    1.0000 </r>
       <r>   -1.0066    0.0000 </r>
       <r>    0.2273    0.0000 </r>
       <r>    1.4382    0.0000 </r>
       <r>    3.3745    0.0000 </r>
       <r>    4.6308    0.0000 </r>
       <r>    5.1310    0.0000 </r>
       <r>    6.0202    0.0000 </r>
       <r>    6.4454    0.0000 </r>
       <r>    6.8124    0.0000 </r>
       <r>    7.1157    0.0000 </r>
       <r>    7.4226    0.0000 </r>
      </set>
      <set comment="kpoint 26">
       <r>  -14.0615    1.0000 </r>
       <r>  -12.0952    1.0000 </r>
       <r>   -6.4281    1.0000 </r>
       <r>   -4.9614    1.0000 </r>
       <r>   -4.5554    1.0000 </r>
       <r>   -0.9285    0.0000 </r>
       <r>    0.1214    0.0000 </r>
       <r>    1.4404    0.0000 </r>
       <r>    3.2984    0.0000 </r>
       <r>    5.1285    0.0000 </r>
       <r>    5.4629    0.0000 </r>
       <r>    5.7791    0.0000 </r>
       <r>    6.1229    0.0000 </r>
       <r>    6.6566    0.0000 </r>
       <r>    7.3246    0.0000 </r>
       <r>    7.6325    0.0000 </r>
      </set>
      <set comment="kpoint 27">
       <r>  -16.2408    1.0000 </r>
       <r>  -10.1721    1.0000 </r>
       <r>   -4.6616    1.0000 </r>
       <r>   -3.5891    1.0000 </r>
       <r>   -3.4555    1.0000 </r>
       <r>   -0.0069    0.0000 </r>
       <r>    0.0330    0.0000 </r>
       <r>    1.1446    0.0000 </r>
       <r>    2.2425    0.0000 </r>
       <r>    2.2684    0.0000 </r>
       <r>    3.6025    0.0000 </r>
       <r>    4.5772    0.0000 </r>
       <r>    5.4460    0.0000 </r>
       <r>    6.6600    0.0000 </r>
       <r>    6.6713    0.0000 </r>
       <r>    7.3777    0.0000 </r>
      </set>
      <set comment="kpoint 28">
       <r>  -16.1055    1.0000 </r>
       <r>  -10.1871    1.0000 </r>
       <r>   -5.1600    1.0000 </r>
       <r>   -3.8768    1.0000 </r>
       <r>   -3.4148    1.0000 </r>
       <r>   -0.2555    0.0000 </r>
       <r>    0.3356    0.0000 </r>
       <r>    1.4027    0.0000 </r>
       <r>    2.3906    0.0000 </r>
       <r>    2.4411    0.0000 </r>
       <r>    3.7043    0.0000 </r>
       <r>    4.7191    0.0000 </r>
       <r>    5.1738    0.0000 </r>
       <r>    6.5471    0.0000 </r>
       <r>    6.9509    0.0000 </r>
       <r>    7.3195    0.0000 </r>
      </set>
      <set comment="kpoint 29">
       <r>  -15.9332    1.0000 </r>
       <r>  -10.2340    1.0000 </r>
       <r>   -5.6299    1.0000 </r>
       <r>   -4.1687    1.0000 </r>
       <r>   -3.3830    1.0000 </r>
       <r>   -0.5351    0.0000 </r>
       <r>    0.6415    0.0000 </r>
       <r>    1.5619    0.0000 </r>
       <r>    2.5294    0.0000 </r>
       <r>    2.6583    0.0000 </r>
       <r>    3.8293    0.0000 </r>
       <r>    4.8435    0.0000 </r>
       <r>    5.1074    0.0000 </r>
       <r>    6.4467    0.0000 </r>
       <r>    7.2428    0.0000 </r>
       <r>    7.3405    0.0000 </r>
      </set>
      <set comment="kpoint 30">
       <r>  -15.7255    1.0000 </r>
       <r>  -10.3333    1.0000 </r>
       <r>   -6.0296    1.0000 </r>
       <r>   -4.4414    1.0000 </r>
       <r>   -3.3829    1.0000 </r>
       <r>   -0.7773    0.0000 </r>
       <r>    0.8824    0.0000 </r>
       <r>    1.5682    0.0000 </r>
       <r>    2.6869    0.0000 </r>
       <r>    2.8987    0.0000 </r>
       <r>    3.9959    0.0000 </r>
       <r>    4.9524    0.0000 </r>
       <r>    5.2794    0.0000 </r>
       <r>    6.3101    0.0000 </r>
       <r>    7.4488    0.0000 </r>
       <r>    7.6058    0.0000 </r>
      </set>
      <set comment="kpoint 31">
       <r>  -15.4847    1.0000 </r>
       <r>  -10.5037    1.0000 </r>
       <r>   -6.3270    1.0000 </r>
       <r>   -4.6822    1.0000 </r>
       <r>   -3.4398    1.0000 </r>
       <r>   -0.9475    0.0000 </r>
       <r>    1.0474    0.0000 </r>
       <r>    1.4113    0.0000 </r>
       <r>    2.9102    0.0000 </r>
       <r>    3.1613    0.0000 </r>
       <r>    4.1831    0.0000 </r>
       <r>    5.1473    0.0000 </r>
       <r>    5.5131    0.0000 </r>
       <r>    6.2494    0.0000 </r>
       <r>    7.5492    0.0000 </r>
       <r>    8.0347    0.0000 </r>
      </set>
      <set comment="kpoint 32">
       <r>  -15.2146    1.0000 </r>
       <r>  -10.7521    1.0000 </r>
       <r>   -6.5076    1.0000 </r>
       <r>   -4.8832    1.0000 </r>
       <r>   -3.5713    1.0000 </r>
       <r>   -1.0231    0.0000 </r>
       <r>    1.1338    0.0000 </r>
       <r>    1.1711    0.0000 </r>
       <r>    3.2098    0.0000 </r>
       <r>    3.4267    0.0000 </r>
       <r>    4.3228    0.0000 </r>
       <r>    5.3886    0.0000 </r>
       <r>    5.7334    0.0000 </r>
       <r>    6.4171    0.0000 </r>
       <r>    7.5949    0.0000 </r>
       <r>    8.2648    0.0000 </r>
      </set>
      <set comment="kpoint 33">
       <r>  -14.9215    1.0000 </r>
       <r>  -11.0662    1.0000 </r>
       <r>   -6.5798    1.0000 </r>
       <r>   -5.0373    1.0000 </r>
       <r>   -3.7730    1.0000 </r>
       <r>   -1.0037    0.0000 </r>
       <r>    0.8647    0.0000 </r>
       <r>    1.2154    0.0000 </r>
       <r>    3.5655    0.0000 </r>
       <r>    3.6298    0.0000 </r>
       <r>    4.4210    0.0000 </r>
       <r>    5.6231    0.0000 </r>
       <r>    6.0381    0.0000 </r>
       <r>    6.7062    0.0000 </r>
       <r>    7.6246    0.0000 </r>
       <r>    8.0360    0.0000 </r>
      </set>
      <set comment="kpoint 34">
       <r>  -14.6168    1.0000 </r>
       <r>  -11.4165    1.0000 </r>
       <r>   -6.5723    1.0000 </r>
       <r>   -5.1376    1.0000 </r>
       <r>   -4.0194    1.0000 </r>
       <r>   -0.9107    0.0000 </r>
       <r>    0.5846    0.0000 </r>
       <r>    1.2579    0.0000 </r>
       <r>    3.6343    0.0000 </r>
       <r>    3.9907    0.0000 </r>
       <r>    4.6309    0.0000 </r>
       <r>    5.8768    0.0000 </r>
       <r>    6.4344    0.0000 </r>
       <r>    6.8374    0.0000 </r>
       <r>    7.3940    0.0000 </r>
       <r>    7.9024    0.0000 </r>
      </set>
      <set comment="kpoint 35">
       <r>  -14.3231    1.0000 </r>
       <r>  -11.7595    1.0000 </r>
       <r>   -6.5236    1.0000 </r>
       <r>   -5.1781    1.0000 </r>
       <r>   -4.2722    1.0000 </r>
       <r>   -0.7745    0.0000 </r>
       <r>    0.3327    0.0000 </r>
       <r>    1.2913    0.0000 </r>
       <r>    3.5211    0.0000 </r>
       <r>    4.4492    0.0000 </r>
       <r>    4.9828    0.0000 </r>
       <r>    6.1046    0.0000 </r>
       <r>    6.6660    0.0000 </r>
       <r>    6.8601    0.0000 </r>
       <r>    6.9696    0.0000 </r>
       <r>    7.6528    0.0000 </r>
      </set>
      <set comment="kpoint 36">
       <r>  -14.0875    1.0000 </r>
       <r>  -12.0313    1.0000 </r>
       <r>   -6.4741    1.0000 </r>
       <r>   -5.1660    1.0000 </r>
       <r>   -4.4817    1.0000 </r>
       <r>   -0.6353    0.0000 </r>
       <r>    0.1326    0.0000 </r>
       <r>    1.3156    0.0000 </r>
       <r>    3.4068    0.0000 </r>
       <r>    4.9465    0.0000 </r>
       <r>    5.3892    0.0000 </r>
       <r>    6.0244    0.0000 </r>
       <r>    6.3134    0.0000 </r>
       <r>    6.7257    0.0000 </r>
       <r>    7.3183    0.0000 </r>
       <r>    7.4319    0.0000 </r>
      </set>
      <set comment="kpoint 37">
       <r>  -13.9911    1.0000 </r>
       <r>  -12.1408    1.0000 </r>
       <r>   -6.4539    1.0000 </r>
       <r>   -5.1463    1.0000 </r>
       <r>   -4.5709    1.0000 </r>
       <r>   -0.5665    0.0000 </r>
       <r>    0.0451    0.0000 </r>
       <r>    1.3249    0.0000 </r>
       <r>    3.3617    0.0000 </r>
       <r>    5.4324    0.0000 </r>
       <r>    5.4725    0.0000 </r>
       <r>    5.7810    0.0000 </r>
       <r>    6.0826    0.0000 </r>
       <r>    6.7400    0.0000 </r>
       <r>    7.2069    0.0000 </r>
       <r>    7.9301    0.0000 </r>
      </set>
      <set comment="kpoint 38">
       <r>  -15.9522    1.0000 </r>
       <r>  -10.2259    1.0000 </r>
       <r>   -5.5466    1.0000 </r>
       <r>   -4.2370    1.0000 </r>
       <r>   -3.3814    1.0000 </r>
       <r>   -0.1892    0.0000 </r>
       <r>    0.3067    0.0000 </r>
       <r>    1.6006    0.0000 </r>
       <r>    2.5764    0.0000 </r>
       <r>    2.5819    0.0000 </r>
       <r>    3.7889    0.0000 </r>
       <r>    4.8845    0.0000 </r>
       <r>    4.9962    0.0000 </r>
       <r>    6.5752    0.0000 </r>
       <r>    7.1396    0.0000 </r>
       <r>    7.3326    0.0000 </r>
      </set>
      <set comment="kpoint 39">
       <r>  -15.7627    1.0000 </r>
       <r>  -10.3075    1.0000 </r>
       <r>   -5.8972    1.0000 </r>
       <r>   -4.5882    1.0000 </r>
       <r>   -3.3677    1.0000 </r>
       <r>   -0.3447    0.0000 </r>
       <r>    0.5013    0.0000 </r>
       <r>    1.6739    0.0000 </r>
       <r>    2.7194    0.0000 </r>
       <r>    2.8086    0.0000 </r>
       <r>    3.8880    0.0000 </r>
       <r>    4.9458    0.0000 </r>
       <r>    5.1089    0.0000 </r>
       <r>    6.4936    0.0000 </r>
       <r>    7.3571    0.0000 </r>
       <r>    7.5218    0.0000 </r>
      </set>
      <set comment="kpoint 40">
       <r>  -15.5389    1.0000 </r>
       <r>  -10.4498    1.0000 </r>
       <r>   -6.1817    1.0000 </r>
       <r>   -4.8989    1.0000 </r>
       <r>   -3.3951    1.0000 </r>
       <r>   -0.5234    0.0000 </r>
       <r>    0.6996    0.0000 </r>
       <r>    1.6049    0.0000 </r>
       <r>    2.8995    0.0000 </r>
       <r>    3.0734    0.0000 </r>
       <r>    4.0409    0.0000 </r>
       <r>    5.0578    0.0000 </r>
       <r>    5.3735    0.0000 </r>
       <r>    6.2881    0.0000 </r>
       <r>    7.5241    0.0000 </r>
       <r>    7.9159    0.0000 </r>
      </set>
      <set comment="kpoint 41">
       <r>  -15.2838    1.0000 </r>
       <r>  -10.6640    1.0000 </r>
       <r>   -6.3800    1.0000 </r>
       <r>   -5.1532    1.0000 </r>
       <r>   -3.4843    1.0000 </r>
       <r>   -0.6448    0.0000 </r>
       <r>    0.8256    0.0000 </r>
       <r>    1.4276    0.0000 </r>
       <r>    3.1523    0.0000 </r>
       <r>    3.3608    0.0000 </r>
       <r>    4.2386    0.0000 </r>
       <r>    5.2770    0.0000 </r>
       <r>    5.6750    0.0000 </r>
       <r>    6.1199    0.0000 </r>
       <r>    7.6396    0.0000 </r>
       <r>    8.2243    0.0000 </r>
      </set>
      <set comment="kpoint 42">
       <r>  -15.0019    1.0000 </r>
       <r>  -10.9469    1.0000 </r>
       <r>   -6.4910    1.0000 </r>
       <r>   -5.3404    1.0000 </r>
       <r>   -3.6447    1.0000 </r>
       <r>   -0.6834    0.0000 </r>
       <r>    0.8492    0.0000 </r>
       <r>    1.2372    0.0000 </r>
       <r>    3.4748    0.0000 </r>
       <r>    3.6337    0.0000 </r>
       <r>    4.4090    0.0000 </r>
       <r>    5.5404    0.0000 </r>
       <r>    5.9453    0.0000 </r>
       <r>    6.2061    0.0000 </r>
       <r>    7.7149    0.0000 </r>
       <r>    8.1032    0.0000 </r>
      </set>
      <set comment="kpoint 43">
       <r>  -14.7014    1.0000 </r>
       <r>  -11.2788    1.0000 </r>
       <r>   -6.5343    1.0000 </r>
       <r>   -5.4501    1.0000 </r>
       <r>   -3.8664    1.0000 </r>
       <r>   -0.6395    0.0000 </r>
       <r>    0.7162    0.0000 </r>
       <r>    1.1568    0.0000 </r>
       <r>    3.7576    0.0000 </r>
       <r>    3.8851    0.0000 </r>
       <r>    4.5739    0.0000 </r>
       <r>    5.8051    0.0000 </r>
       <r>    6.2325    0.0000 </r>
       <r>    6.5300    0.0000 </r>
       <r>    7.7059    0.0000 </r>
       <r>    7.7827    0.0000 </r>
      </set>
      <set comment="kpoint 44">
       <r>  -14.3974    1.0000 </r>
       <r>  -11.6266    1.0000 </r>
       <r>   -6.5416    1.0000 </r>
       <r>   -5.4743    1.0000 </r>
       <r>   -4.1218    1.0000 </r>
       <r>   -0.5292    0.0000 </r>
       <r>    0.4900    0.0000 </r>
       <r>    1.1636    0.0000 </r>
       <r>    3.7199    0.0000 </r>
       <r>    4.3105    0.0000 </r>
       <r>    4.8678    0.0000 </r>
       <r>    6.0914    0.0000 </r>
       <r>    6.5165    0.0000 </r>
       <r>    6.8571    0.0000 </r>
       <r>    7.1644    0.0000 </r>
       <r>    7.8189    0.0000 </r>
      </set>
      <set comment="kpoint 45">
       <r>  -14.1222    1.0000 </r>
       <r>  -11.9412    1.0000 </r>
       <r>   -6.5396    1.0000 </r>
       <r>   -5.4231    1.0000 </r>
       <r>   -4.3693    1.0000 </r>
       <r>   -0.3721    0.0000 </r>
       <r>    0.2526    0.0000 </r>
       <r>    1.1893    0.0000 </r>
       <r>    3.5940    0.0000 </r>
       <r>    4.7904    0.0000 </r>
       <r>    5.2663    0.0000 </r>
       <r>    6.2849    0.0000 </r>
       <r>    6.5195    0.0000 </r>
       <r>    6.6484    0.0000 </r>
       <r>    7.2717    0.0000 </r>
       <r>    7.4831    0.0000 </r>
      </set>
      <set comment="kpoint 46">
       <r>  -13.9415    1.0000 </r>
       <r>  -12.1446    1.0000 </r>
       <r>   -6.5386    1.0000 </r>
       <r>   -5.3496    1.0000 </r>
       <r>   -4.5418    1.0000 </r>
       <r>   -0.1839    0.0000 </r>
       <r>    0.0260    0.0000 </r>
       <r>    1.2086    0.0000 </r>
       <r>    3.5055    0.0000 </r>
       <r>    5.3076    0.0000 </r>
       <r>    5.6712    0.0000 </r>
       <r>    5.8970    0.0000 </r>
       <r>    6.2141    0.0000 </r>
       <r>    6.7870    0.0000 </r>
       <r>    7.1056    0.0000 </r>
       <r>    7.7959    0.0000 </r>
      </set>
      <set comment="kpoint 47">
       <r>  -15.5571    1.0000 </r>
       <r>  -10.4319    1.0000 </r>
       <r>   -6.1118    1.0000 </r>
       <r>   -4.9975    1.0000 </r>
       <r>   -3.3818    1.0000 </r>
       <r>   -0.2600    0.0000 </r>
       <r>    0.4639    0.0000 </r>
       <r>    1.6942    0.0000 </r>
       <r>    2.9434    0.0000 </r>
       <r>    2.9968    0.0000 </r>
       <r>    3.9575    0.0000 </r>
       <r>    5.0215    0.0000 </r>
       <r>    5.3177    0.0000 </r>
       <r>    6.3603    0.0000 </r>
       <r>    7.4691    0.0000 </r>
       <r>    7.8923    0.0000 </r>
      </set>
      <set comment="kpoint 48">
       <r>  -15.3186    1.0000 </r>
       <r>  -10.6188    1.0000 </r>
       <r>   -6.2643    1.0000 </r>
       <r>   -5.3528    1.0000 </r>
       <r>   -3.4435    1.0000 </r>
       <r>   -0.2922    0.0000 </r>
       <r>    0.5019    0.0000 </r>
       <r>    1.6451    0.0000 </r>
       <r>    3.1683    0.0000 </r>
       <r>    3.2698    0.0000 </r>
       <r>    4.1023    0.0000 </r>
       <r>    5.1923    0.0000 </r>
       <r>    5.6036    0.0000 </r>
       <r>    6.1170    0.0000 </r>
       <r>    7.5263    0.0000 </r>
       <r>    8.3026    0.0000 </r>
      </set>
      <set comment="kpoint 49">
       <r>  -15.0507    1.0000 </r>
       <r>  -10.8703    1.0000 </r>
       <r>   -6.3629    1.0000 </r>
       <r>   -5.6204    1.0000 </r>
       <r>   -3.5670    1.0000 </r>
       <r>   -0.3441    0.0000 </r>
       <r>    0.5248    0.0000 </r>
       <r>    1.5470    0.0000 </r>
       <r>    3.4427    0.0000 </r>
       <r>    3.5796    0.0000 </r>
       <r>    4.3251    0.0000 </r>
       <r>    5.4398    0.0000 </r>
       <r>    5.9035    0.0000 </r>
       <r>    5.9421    0.0000 </r>
       <r>    7.5013    0.0000 </r>
       <r>    8.4318    0.0000 </r>
      </set>
      <set comment="kpoint 50">
       <r>  -14.7591    1.0000 </r>
       <r>  -11.1758    1.0000 </r>
       <r>   -6.4401    1.0000 </r>
       <r>   -5.7642    1.0000 </r>
       <r>   -3.7540    1.0000 </r>
       <r>   -0.3637    0.0000 </r>
       <r>    0.5127    0.0000 </r>
       <r>    1.4277    0.0000 </r>
       <r>    3.7679    0.0000 </r>
       <r>    3.8663    0.0000 </r>
       <r>    4.5519    0.0000 </r>
       <r>    5.7198    0.0000 </r>
       <r>    5.8798    0.0000 </r>
       <r>    6.3253    0.0000 </r>
       <r>    7.4413    0.0000 </r>
       <r>    8.1809    0.0000 </r>
      </set>
      <set comment="kpoint 51">
       <r>  -14.4543    1.0000 </r>
       <r>  -11.5124    1.0000 </r>
       <r>   -6.5271    1.0000 </r>
       <r>   -5.7656    1.0000 </r>
       <r>   -3.9902    1.0000 </r>
       <r>   -0.3474    0.0000 </r>
       <r>    0.4856    0.0000 </r>
       <r>    1.3149    0.0000 </r>
       <r>    3.9199    0.0000 </r>
       <r>    4.2193    0.0000 </r>
       <r>    4.8000    0.0000 </r>
       <r>    5.9956    0.0000 </r>
       <r>    6.0997    0.0000 </r>
       <r>    6.7435    0.0000 </r>
       <r>    7.3928    0.0000 </r>
       <r>    7.6922    0.0000 </r>
      </set>
      <set comment="kpoint 52">
       <r>  -14.1568    1.0000 </r>
       <r>  -11.8450    1.0000 </r>
       <r>   -6.6128    1.0000 </r>
       <r>   -5.6609    1.0000 </r>
       <r>   -4.2462    1.0000 </r>
       <r>   -0.3136    0.0000 </r>
       <r>    0.4626    0.0000 </r>
       <r>    1.2271    0.0000 </r>
       <r>    3.8485    0.0000 </r>
       <r>    4.6720    0.0000 </r>
       <r>    5.1557    0.0000 </r>
       <r>    6.2723    0.0000 </r>
       <r>    6.3137    0.0000 </r>
       <r>    6.9559    0.0000 </r>
       <r>    7.1779    0.0000 </r>
       <r>    7.6518    0.0000 </r>
      </set>
      <set comment="kpoint 53">
       <r>  -13.9127    1.0000 </r>
       <r>  -12.1154    1.0000 </r>
       <r>   -6.6726    1.0000 </r>
       <r>   -5.5201    1.0000 </r>
       <r>   -4.4718    1.0000 </r>
       <r>   -0.2840    0.0000 </r>
       <r>    0.4508    0.0000 </r>
       <r>    1.1729    0.0000 </r>
       <r>    3.7433    0.0000 </r>
       <r>    5.1720    0.0000 </r>
       <r>    5.5759    0.0000 </r>
       <r>    6.1791    0.0000 </r>
       <r>    6.3970    0.0000 </r>
       <r>    6.6122    0.0000 </r>
       <r>    7.2690    0.0000 </r>
       <r>    7.6715    0.0000 </r>
      </set>
      <set comment="kpoint 54">
       <r>  -13.8101    1.0000 </r>
       <r>  -12.2276    1.0000 </r>
       <r>   -6.6936    1.0000 </r>
       <r>   -5.4466    1.0000 </r>
       <r>   -4.5728    1.0000 </r>
       <r>   -0.2728    0.0000 </r>
       <r>    0.4479    0.0000 </r>
       <r>    1.1547    0.0000 </r>
       <r>    3.6992    0.0000 </r>
       <r>    5.6608    0.0000 </r>
       <r>    5.7518    0.0000 </r>
       <r>    5.9749    0.0000 </r>
       <r>    6.0247    0.0000 </r>
       <r>    6.7999    0.0000 </r>
       <r>    7.0326    0.0000 </r>
       <r>    8.1977    0.0000 </r>
      </set>
      <set comment="kpoint 55">
       <r>  -15.0670    1.0000 </r>
       <r>  -10.8439    1.0000 </r>
       <r>   -6.2795    1.0000 </r>
       <r>   -5.7581    1.0000 </r>
       <r>   -3.5411    1.0000 </r>
       <r>   -0.1254    0.0000 </r>
       <r>    0.3061    0.0000 </r>
       <r>    1.6962    0.0000 </r>
       <r>    3.4817    0.0000 </r>
       <r>    3.4972    0.0000 </r>
       <r>    4.2522    0.0000 </r>
       <r>    5.3932    0.0000 </r>
       <r>    5.8614    0.0000 </r>
       <r>    5.9280    0.0000 </r>
       <r>    7.3900    0.0000 </r>
       <r>    8.6540    0.0000 </r>
      </set>
      <set comment="kpoint 56">
       <r>  -14.7884    1.0000 </r>
       <r>  -11.1204    1.0000 </r>
       <r>   -6.2889    1.0000 </r>
       <r>   -6.0358    1.0000 </r>
       <r>   -3.6944    1.0000 </r>
       <r>   -0.0862    0.0000 </r>
       <r>    0.2175    0.0000 </r>
       <r>    1.7070    0.0000 </r>
       <r>    3.7683    0.0000 </r>
       <r>    3.8304    0.0000 </r>
       <r>    4.5005    0.0000 </r>
       <r>    5.6331    0.0000 </r>
       <r>    5.6850    0.0000 </r>
       <r>    6.2671    0.0000 </r>
       <r>    7.2224    0.0000 </r>
       <r>    8.6270    0.0000 </r>
      </set>
      <set comment="kpoint 57">
       <r>  -14.4898    1.0000 </r>
       <r>  -11.4348    1.0000 </r>
       <r>   -6.4779    1.0000 </r>
       <r>   -6.0010    1.0000 </r>
       <r>   -3.8998    1.0000 </r>
       <r>   -0.2121    0.0000 </r>
       <r>    0.3253    0.0000 </r>
       <r>    1.6487    0.0000 </r>
       <r>    4.0504    0.0000 </r>
       <r>    4.1805    0.0000 </r>
       <r>    4.7778    0.0000 </r>
       <r>    5.6736    0.0000 </r>
       <r>    5.8784    0.0000 </r>
       <r>    6.6688    0.0000 </r>
       <r>    7.1439    0.0000 </r>
       <r>    8.1198    0.0000 </r>
      </set>
      <set comment="kpoint 58">
       <r>  -14.1840    1.0000 </r>
       <r>  -11.7645    1.0000 </r>
       <r>   -6.6791    1.0000 </r>
       <r>   -5.8342    1.0000 </r>
       <r>   -4.1412    1.0000 </r>
       <r>   -0.3482    0.0000 </r>
       <r>    0.5034    0.0000 </r>
       <r>    1.5317    0.0000 </r>
       <r>    4.1402    0.0000 </r>
       <r>    4.5962    0.0000 </r>
       <r>    5.0785    0.0000 </r>
       <r>    5.8795    0.0000 </r>
       <r>    6.1265    0.0000 </r>
       <r>    7.1052    0.0000 </r>
       <r>    7.2064    0.0000 </r>
       <r>    7.5300    0.0000 </r>
      </set>
      <set comment="kpoint 59">
       <r>  -13.8997    1.0000 </r>
       <r>  -12.0711    1.0000 </r>
       <r>   -6.8181    1.0000 </r>
       <r>   -5.6375    1.0000 </r>
       <r>   -4.3861    1.0000 </r>
       <r>   -0.4459    0.0000 </r>
       <r>    0.7062    0.0000 </r>
       <r>    1.3750    0.0000 </r>
       <r>    4.0782    0.0000 </r>
       <r>    5.0713    0.0000 </r>
       <r>    5.4394    0.0000 </r>
       <r>    5.9992    0.0000 </r>
       <r>    6.4895    0.0000 </r>
       <r>    6.7906    0.0000 </r>
       <r>    7.4536    0.0000 </r>
       <r>    7.6243    0.0000 </r>
      </set>
      <set comment="kpoint 60">
       <r>  -13.7045    1.0000 </r>
       <r>  -12.2795    1.0000 </r>
       <r>   -6.8881    1.0000 </r>
       <r>   -5.4815    1.0000 </r>
       <r>   -4.5672    1.0000 </r>
       <r>   -0.4957    0.0000 </r>
       <r>    0.8985    0.0000 </r>
       <r>    1.2083    0.0000 </r>
       <r>    4.0145    0.0000 </r>
       <r>    5.5674    0.0000 </r>
       <r>    5.7496    0.0000 </r>
       <r>    6.0454    0.0000 </r>
       <r>    6.2118    0.0000 </r>
       <r>    6.7532    0.0000 </r>
       <r>    7.1699    0.0000 </r>
       <r>    8.0505    0.0000 </r>
      </set>
      <set comment="kpoint 61">
       <r>  -14.5018    1.0000 </r>
       <r>  -11.4073    1.0000 </r>
       <r>   -6.4370    1.0000 </r>
       <r>   -6.1073    1.0000 </r>
       <r>   -3.8675    1.0000 </r>
       <r>   -0.1420    0.0000 </r>
       <r>    0.2302    0.0000 </r>
       <r>    1.8123    0.0000 </r>
       <r>    4.0899    0.0000 </r>
       <r>    4.1713    0.0000 </r>
       <r>    4.7698    0.0000 </r>
       <r>    5.5131    0.0000 </r>
       <r>    5.8112    0.0000 </r>
       <r>    6.6447    0.0000 </r>
       <r>    7.0387    0.0000 </r>
       <r>    8.5810    0.0000 </r>
      </set>
      <set comment="kpoint 62">
       <r>  -14.1989    1.0000 </r>
       <r>  -11.7185    1.0000 </r>
       <r>   -6.7199    1.0000 </r>
       <r>   -5.9229    1.0000 </r>
       <r>   -4.0804    1.0000 </r>
       <r>   -0.3832    0.0000 </r>
       <r>    0.4785    0.0000 </r>
       <r>    1.8084    0.0000 </r>
       <r>    4.3875    0.0000 </r>
       <r>    4.5597    0.0000 </r>
       <r>    5.0574    0.0000 </r>
       <r>    5.5221    0.0000 </r>
       <r>    5.9310    0.0000 </r>
       <r>    7.0646    0.0000 </r>
       <r>    7.0786    0.0000 </r>
       <r>    7.9766    0.0000 </r>
      </set>
      <set comment="kpoint 63">
       <r>  -13.8956    1.0000 </r>
       <r>  -12.0328    1.0000 </r>
       <r>   -6.9287    1.0000 </r>
       <r>   -5.7040    1.0000 </r>
       <r>   -4.3168    1.0000 </r>
       <r>   -0.5691    0.0000 </r>
       <r>    0.7440    0.0000 </r>
       <r>    1.7012    0.0000 </r>
       <r>    4.4905    0.0000 </r>
       <r>    5.0049    0.0000 </r>
       <r>    5.3069    0.0000 </r>
       <r>    5.7302    0.0000 </r>
       <r>    6.1679    0.0000 </r>
       <r>    7.2087    0.0000 </r>
       <r>    7.4156    0.0000 </r>
       <r>    7.5460    0.0000 </r>
      </set>
      <set comment="kpoint 64">
       <r>  -13.6322    1.0000 </r>
       <r>  -12.3053    1.0000 </r>
       <r>   -7.0550    1.0000 </r>
       <r>   -5.4931    1.0000 </r>
       <r>   -4.5390    1.0000 </r>
       <r>   -0.6832    0.0000 </r>
       <r>    1.0130    0.0000 </r>
       <r>    1.5190    0.0000 </r>
       <r>    4.4594    0.0000 </r>
       <r>    5.4107    0.0000 </r>
       <r>    5.5389    0.0000 </r>
       <r>    6.0081    0.0000 </r>
       <r>    6.5762    0.0000 </r>
       <r>    6.7149    0.0000 </r>
       <r>    7.3632    0.0000 </r>
       <r>    7.8020    0.0000 </r>
      </set>
      <set comment="kpoint 65">
       <r>  -13.5121    1.0000 </r>
       <r>  -12.4287    1.0000 </r>
       <r>   -7.0972    1.0000 </r>
       <r>   -5.3886    1.0000 </r>
       <r>   -4.6475    1.0000 </r>
       <r>   -0.7214    0.0000 </r>
       <r>    1.2316    0.0000 </r>
       <r>    1.3280    0.0000 </r>
       <r>    4.4365    0.0000 </r>
       <r>    5.4471    0.0000 </r>
       <r>    6.0465    0.0000 </r>
       <r>    6.0966    0.0000 </r>
       <r>    6.2191    0.0000 </r>
       <r>    6.8931    0.0000 </r>
       <r>    7.1391    0.0000 </r>
       <r>    7.9479    0.0000 </r>
      </set>
      <set comment="kpoint 66">
       <r>  -13.8949    1.0000 </r>
       <r>  -12.0179    1.0000 </r>
       <r>   -6.9696    1.0000 </r>
       <r>   -5.7253    1.0000 </r>
       <r>   -4.2901    1.0000 </r>
       <r>   -0.6148    0.0000 </r>
       <r>    0.7442    0.0000 </r>
       <r>    1.8438    0.0000 </r>
       <r>    4.8059    0.0000 </r>
       <r>    4.9353    0.0000 </r>
       <r>    5.2540    0.0000 </r>
       <r>    5.5240    0.0000 </r>
       <r>    5.9917    0.0000 </r>
       <r>    7.2484    0.0000 </r>
       <r>    7.5112    0.0000 </r>
       <r>    7.7865    0.0000 </r>
      </set>
      <set comment="kpoint 67">
       <r>  -13.5960    1.0000 </r>
       <r>  -12.3142    1.0000 </r>
       <r>   -7.1491    1.0000 </r>
       <r>   -5.4976    1.0000 </r>
       <r>   -4.5146    1.0000 </r>
       <r>   -0.7892    0.0000 </r>
       <r>    1.0219    0.0000 </r>
       <r>    1.7574    0.0000 </r>
       <r>    4.9927    0.0000 </r>
       <r>    5.2571    0.0000 </r>
       <r>    5.4006    0.0000 </r>
       <r>    5.8256    0.0000 </r>
       <r>    6.3208    0.0000 </r>
       <r>    7.1769    0.0000 </r>
       <r>    7.4828    0.0000 </r>
       <r>    7.7527    0.0000 </r>
      </set>
      <set comment="kpoint 68">
       <r>  -13.3615    1.0000 </r>
       <r>  -12.5478    1.0000 </r>
       <r>   -7.2413    1.0000 </r>
       <r>   -5.3039    1.0000 </r>
       <r>   -4.7046    1.0000 </r>
       <r>   -0.8804    0.0000 </r>
       <r>    1.2715    0.0000 </r>
       <r>    1.5974    0.0000 </r>
       <r>    4.9928    0.0000 </r>
       <r>    5.2193    0.0000 </r>
       <r>    5.9412    0.0000 </r>
       <r>    6.2243    0.0000 </r>
       <r>    6.5533    0.0000 </r>
       <r>    6.8814    0.0000 </r>
       <r>    7.2675    0.0000 </r>
       <r>    7.5159    0.0000 </r>
      </set>
      <set comment="kpoint 69">
       <r>  -13.2997    1.0000 </r>
       <r>  -12.5981    1.0000 </r>
       <r>   -7.2922    1.0000 </r>
       <r>   -5.2696    1.0000 </r>
       <r>   -4.7265    1.0000 </r>
       <r>   -0.9373    0.0000 </r>
       <r>    1.2822    0.0000 </r>
       <r>    1.6964    0.0000 </r>
       <r>    5.1319    0.0000 </r>
       <r>    5.5434    0.0000 </r>
       <r>    5.6249    0.0000 </r>
       <r>    6.1631    0.0000 </r>
       <r>    6.6804    0.0000 </r>
       <r>    7.0095    0.0000 </r>
       <r>    7.2365    0.0000 </r>
       <r>    7.3821    0.0000 </r>
      </set>
      <set comment="kpoint 70">
       <r>  -13.1039    1.0000 </r>
       <r>  -12.7893    1.0000 </r>
       <r>   -7.3414    1.0000 </r>
       <r>   -5.1123    1.0000 </r>
       <r>   -4.8766    1.0000 </r>
       <r>   -0.9888    0.0000 </r>
       <r>    1.4519    0.0000 </r>
       <r>    1.5922    0.0000 </r>
       <r>    5.0808    0.0000 </r>
       <r>    5.5917    0.0000 </r>
       <r>    6.0241    0.0000 </r>
       <r>    6.5276    0.0000 </r>
       <r>    6.6396    0.0000 </r>
       <r>    6.9011    0.0000 </r>
       <r>    7.0665    0.0000 </r>
       <r>    7.3279    0.0000 </r>
      </set>
     </set>
    </set>
   </array>
  </eigenvalues>
  <separator name="orbital magnetization" >
   <v name="MAGDIPOLOUT">      0.00000000      0.00000000      0.00000000</v>
  </separator>
  <dos>
   <i name="efermi">     -2.97069489 </i>
   <total>
    <array>
     <dimension dim="1">gridpoints</dimension>
     <dimension dim="2">spin</dimension>
     <field>energy</field>
     <field>total</field>
     <field>integrated</field>
     <set>
      <set comment="spin 1">
       <r>   -17.7315     0.0000     0.0000 </r>
       <r>   -17.7269     0.0000     0.0000 </r>
       <r>   -17.7223     0.0000     0.0000 </r>
       <r>   -17.7177     0.0000     0.0000 </r>
       <r>   -17.7131     0.0000     0.0000 </r>
       <r>   -17.7085     0.0000     0.0000 </r>
       <r>   -17.7039     0.0000     0.0000 </r>
       <r>   -17.6993     0.0000     0.0000 </r>
       <r>   -17.6947     0.0000     0.0000 </r>
       <r>   -17.6901     0.0000     0.0000 </r>
       <r>   -17.6855     0.0000     0.0000 </r>
       <r>   -17.6809     0.0000     0.0000 </r>
       <r>   -17.6762     0.0000     0.0000 </r>
       <r>   -17.6716     0.0000     0.0000 </r>
       <r>   -17.6670     0.0000     0.0000 </r>
       <r>   -17.6624     0.0000     0.0000 </r>
       <r>   -17.6578     0.0000     0.0000 </r>
       <r>   -17.6532     0.0000     0.0000 </r>
       <r>   -17.6486     0.0000     0.0000 </r>
       <r>   -17.6440     0.0000     0.0000 </r>
       <r>   -17.6394     0.0000     0.0000 </r>
       <r>   -17.6348     0.0000     0.0000 </r>
       <r>   -17.6302     0.0000     0.0000 </r>
       <r>   -17.6256     0.0000     0.0000 </r>
       <r>   -17.6210     0.0000     0.0000 </r>
       <r>   -17.6164     0.0000     0.0000 </r>
       <r>   -17.6117     0.0000     0.0000 </r>
       <r>   -17.6071     0.0000     0.0000 </r>
       <r>   -17.6025     0.0000     0.0000 </r>
       <r>   -17.5979     0.0000     0.0000 </r>
       <r>   -17.5933     0.0000     0.0000 </r>
       <r>   -17.5887     0.0000     0.0000 </r>
       <r>   -17.5841     0.0000     0.0000 </r>
       <r>   -17.5795     0.0000     0.0000 </r>
       <r>   -17.5749     0.0000     0.0000 </r>
       <r>   -17.5703     0.0000     0.0000 </r>
       <r>   -17.5657     0.0000     0.0000 </r>
       <r>   -17.5611     0.0000     0.0000 </r>
       <r>   -17.5565     0.0000     0.0000 </r>
       <r>   -17.5519     0.0000     0.0000 </r>
       <r>   -17.5472     0.0000     0.0000 </r>
       <r>   -17.5426     0.0000     0.0000 </r>
       <r>   -17.5380     0.0000     0.0000 </r>
       <r>   -17.5334     0.0000     0.0000 </r>
       <r>   -17.5288     0.0000     0.0000 </r>
       <r>   -17.5242     0.0000     0.0000 </r>
       <r>   -17.5196     0.0000     0.0000 </r>
       <r>   -17.5150     0.0000     0.0000 </r>
       <r>   -17.5104     0.0000     0.0000 </r>
       <r>   -17.5058     0.0000     0.0000 </r>
       <r>   -17.5012     0.0000     0.0000 </r>
       <r>   -17.4966     0.0000     0.0000 </r>
       <r>   -17.4920     0.0000     0.0000 </r>
       <r>   -17.4874     0.0000     0.0000 </r>
       <r>   -17.4827     0.0000     0.0000 </r>
       <r>   -17.4781     0.0000     0.0000 </r>
       <r>   -17.4735     0.0000     0.0000 </r>
       <r>   -17.4689     0.0000     0.0000 </r>
       <r>   -17.4643     0.0000     0.0000 </r>
       <r>   -17.4597     0.0000     0.0000 </r>
       <r>   -17.4551     0.0000     0.0000 </r>
       <r>   -17.4505     0.0000     0.0000 </r>
       <r>   -17.4459     0.0000     0.0000 </r>
       <r>   -17.4413     0.0000     0.0000 </r>
       <r>   -17.4367     0.0000     0.0000 </r>
       <r>   -17.4321     0.0000     0.0000 </r>
       <r>   -17.4275     0.0000     0.0000 </r>
       <r>   -17.4229     0.0000     0.0000 </r>
[...]
       </set>
       <set comment="band 13">
        <r>  0.0004  0.0368  0.0207 </r>
        <r>  0.0004  0.0368  0.0207 </r>
       </set>
       <set comment="band 14">
        <r>  0.0053  0.0091  0.0112 </r>
        <r>  0.0053  0.0091  0.0112 </r>
       </set>
       <set comment="band 15">
        <r>  0.0005  0.0039  0.0360 </r>
        <r>  0.0005  0.0039  0.0360 </r>
       </set>
       <set comment="band 16">
        <r>  0.0012  0.0586  0.0100 </r>
        <r>  0.0012  0.0585  0.0099 </r>
       </set>
      </set>
      <set comment="kpoint 62">
       <set comment="band 1">
        <r>  0.2811  0.0231  0.0021 </r>
        <r>  0.2811  0.0231  0.0021 </r>
       </set>
       <set comment="band 2">
        <r>  0.3114  0.0262  0.0038 </r>
        <r>  0.3114  0.0262  0.0038 </r>
       </set>
       <set comment="band 3">
        <r>  0.0101  0.1933  0.0072 </r>
        <r>  0.0101  0.1933  0.0072 </r>
       </set>
       <set comment="band 4">
        <r>  0.0253  0.1895  0.0033 </r>
        <r>  0.0253  0.1895  0.0033 </r>
       </set>
       <set comment="band 5">
        <r>  0.0380  0.2159  0.0016 </r>
        <r>  0.0380  0.2159  0.0016 </r>
       </set>
       <set comment="band 6">
        <r>  0.0025  0.1820  0.0162 </r>
        <r>  0.0025  0.1820  0.0162 </r>
       </set>
       <set comment="band 7">
        <r>  0.0186  0.1681  0.0157 </r>
        <r>  0.0186  0.1681  0.0157 </r>
       </set>
       <set comment="band 8">
        <r>  0.0344  0.2367  0.0115 </r>
        <r>  0.0344  0.2367  0.0115 </r>
       </set>
       <set comment="band 9">
        <r>  0.0006  0.0592  0.0492 </r>
        <r>  0.0006  0.0592  0.0492 </r>
       </set>
       <set comment="band 10">
        <r>  0.0049  0.0173  0.0064 </r>
        <r>  0.0049  0.0173  0.0064 </r>
       </set>
       <set comment="band 11">
        <r>  0.0003  0.0214  0.0328 </r>
        <r>  0.0003  0.0214  0.0328 </r>
       </set>
       <set comment="band 12">
        <r>  0.0032  0.0343  0.0772 </r>
        <r>  0.0032  0.0343  0.0772 </r>
       </set>
       <set comment="band 13">
        <r>  0.0000  0.0299  0.0237 </r>
        <r>  0.0000  0.0299  0.0237 </r>
       </set>
       <set comment="band 14">
        <r>  0.0048  0.0096  0.0129 </r>
        <r>  0.0048  0.0096  0.0129 </r>
       </set>
       <set comment="band 15">
        <r>  0.0019  0.0045  0.0251 </r>
        <r>  0.0019  0.0045  0.0251 </r>
       </set>
       <set comment="band 16">
        <r>  0.0028  0.0250  0.0094 </r>
        <r>  0.0028  0.0250  0.0094 </r>
       </set>
      </set>
      <set comment="kpoint 63">
       <set comment="band 1">
        <r>  0.2852  0.0237  0.0024 </r>
        <r>  0.2852  0.0237  0.0024 </r>
       </set>
       <set comment="band 2">
        <r>  0.3045  0.0277  0.0037 </r>
        <r>  0.3045  0.0277  0.0037 </r>
       </set>
       <set comment="band 3">
        <r>  0.0105  0.1902  0.0067 </r>
        <r>  0.0105  0.1902  0.0067 </r>
       </set>
       <set comment="band 4">
        <r>  0.0301  0.1913  0.0031 </r>
        <r>  0.0301  0.1913  0.0031 </r>
       </set>
       <set comment="band 5">
        <r>  0.0396  0.2100  0.0018 </r>
        <r>  0.0396  0.2100  0.0018 </r>
       </set>
       <set comment="band 6">
        <r>  0.0014  0.1761  0.0163 </r>
        <r>  0.0014  0.1761  0.0163 </r>
       </set>
       <set comment="band 7">
        <r>  0.0181  0.1748  0.0161 </r>
        <r>  0.0181  0.1748  0.0161 </r>
       </set>
       <set comment="band 8">
        <r>  0.0298  0.2269  0.0130 </r>
        <r>  0.0298  0.2269  0.0130 </r>
       </set>
       <set comment="band 9">
        <r>  0.0022  0.0468  0.0594 </r>
        <r>  0.0022  0.0468  0.0594 </r>
       </set>
       <set comment="band 10">
        <r>  0.0057  0.0181  0.0109 </r>
        <r>  0.0057  0.0181  0.0109 </r>
       </set>
       <set comment="band 11">
        <r>  0.0000  0.0304  0.0277 </r>
        <r>  0.0000  0.0304  0.0277 </r>
       </set>
       <set comment="band 12">
        <r>  0.0019  0.0448  0.0557 </r>
        <r>  0.0019  0.0448  0.0557 </r>
       </set>
       <set comment="band 13">
        <r>  0.0008  0.0345  0.0306 </r>
        <r>  0.0008  0.0345  0.0306 </r>
       </set>
       <set comment="band 14">
        <r>  0.0052  0.0158  0.0123 </r>
        <r>  0.0052  0.0158  0.0123 </r>
       </set>
       <set comment="band 15">
        <r>  0.0021  0.0157  0.0177 </r>
        <r>  0.0021  0.0157  0.0177 </r>
       </set>
       <set comment="band 16">
        <r>  0.0035  0.0152  0.0122 </r>
        <r>  0.0035  0.0152  0.0122 </r>
       </set>
      </set>
      <set comment="kpoint 64">
       <set comment="band 1">
        <r>  0.2898  0.0238  0.0027 </r>
        <r>  0.2898  0.0238  0.0027 </r>
       </set>
       <set comment="band 2">
        <r>  0.2979  0.0290  0.0035 </r>
        <r>  0.2979  0.0290  0.0035 </r>
       </set>
       <set comment="band 3">
        <r>  0.0108  0.1883  0.0064 </r>
        <r>  0.0108  0.1883  0.0064 </r>
       </set>
       <set comment="band 4">
        <r>  0.0336  0.1944  0.0030 </r>
        <r>  0.0336  0.1944  0.0030 </r>
       </set>
       <set comment="band 5">
        <r>  0.0400  0.2041  0.0019 </r>
        <r>  0.0400  0.2041  0.0019 </r>
       </set>
       <set comment="band 6">
        <r>  0.0007  0.1730  0.0163 </r>
        <r>  0.0007  0.1730  0.0163 </r>
       </set>
       <set comment="band 7">
        <r>  0.0186  0.1839  0.0160 </r>
        <r>  0.0186  0.1839  0.0160 </r>
       </set>
       <set comment="band 8">
        <r>  0.0261  0.2148  0.0144 </r>
        <r>  0.0261  0.2148  0.0144 </r>
       </set>
       <set comment="band 9">
        <r>  0.0035  0.0359  0.0646 </r>
        <r>  0.0035  0.0359  0.0646 </r>
       </set>
       <set comment="band 10">
        <r>  0.0024  0.0308  0.0429 </r>
        <r>  0.0024  0.0308  0.0429 </r>
       </set>
       <set comment="band 11">
        <r>  0.0035  0.0240  0.0076 </r>
        <r>  0.0035  0.0240  0.0076 </r>
       </set>
       <set comment="band 12">
        <r>  0.0004  0.0471  0.0233 </r>
        <r>  0.0004  0.0471  0.0233 </r>
       </set>
       <set comment="band 13">
        <r>  0.0030  0.0470  0.0217 </r>
        <r>  0.0030  0.0470  0.0217 </r>
       </set>
       <set comment="band 14">
        <r>  0.0026  0.0216  0.0131 </r>
        <r>  0.0026  0.0216  0.0131 </r>
       </set>
       <set comment="band 15">
        <r>  0.0016  0.0136  0.0201 </r>
        <r>  0.0016  0.0136  0.0201 </r>
       </set>
       <set comment="band 16">
        <r>  0.0016  0.0236  0.0238 </r>
        <r>  0.0016  0.0236  0.0238 </r>
       </set>
      </set>
      <set comment="kpoint 65">
       <set comment="band 1">
        <r>  0.2925  0.0235  0.0029 </r>
        <r>  0.2925  0.0235  0.0029 </r>
       </set>
       <set comment="band 2">
        <r>  0.2944  0.0297  0.0033 </r>
        <r>  0.2944  0.0297  0.0033 </r>
       </set>
       <set comment="band 3">
        <r>  0.0110  0.1877  0.0063 </r>
        <r>  0.0110  0.1877  0.0063 </r>
       </set>
       <set comment="band 4">
        <r>  0.0350  0.1967  0.0030 </r>
        <r>  0.0350  0.1967  0.0030 </r>
       </set>
       <set comment="band 5">
        <r>  0.0399  0.2008  0.0019 </r>
        <r>  0.0399  0.2008  0.0019 </r>
       </set>
       <set comment="band 6">
        <r>  0.0004  0.1721  0.0163 </r>
        <r>  0.0004  0.1721  0.0163 </r>
       </set>
       <set comment="band 7">
        <r>  0.0158  0.1849  0.0159 </r>
        <r>  0.0158  0.1849  0.0159 </r>
       </set>
       <set comment="band 8">
        <r>  0.0279  0.2126  0.0151 </r>
        <r>  0.0279  0.2126  0.0151 </r>
       </set>
       <set comment="band 9">
        <r>  0.0039  0.0326  0.0657 </r>
        <r>  0.0039  0.0326  0.0657 </r>
       </set>
       <set comment="band 10">
        <r>  0.0009  0.0354  0.0473 </r>
        <r>  0.0009  0.0354  0.0473 </r>
       </set>
       <set comment="band 11">
        <r>  0.0046  0.0083  0.0118 </r>
        <r>  0.0046  0.0083  0.0118 </r>
       </set>
       <set comment="band 12">
        <r>  0.0053  0.0357  0.0032 </r>
        <r>  0.0053  0.0357  0.0032 </r>
       </set>
       <set comment="band 13">
        <r>  0.0001  0.0588  0.0106 </r>
        <r>  0.0001  0.0588  0.0106 </r>
       </set>
       <set comment="band 14">
        <r>  0.0001  0.0009  0.0107 </r>
        <r>  0.0001  0.0009  0.0107 </r>
       </set>
       <set comment="band 15">
        <r>  0.0006  0.0550  0.0232 </r>
        <r>  0.0006  0.0550  0.0232 </r>
       </set>
       <set comment="band 16">
        <r>  0.0022  0.0762  0.0728 </r>
        <r>  0.0022  0.0762  0.0728 </r>
       </set>
      </set>
      <set comment="kpoint 66">
       <set comment="band 1">
        <r>  0.2846  0.0240  0.0024 </r>
        <r>  0.2846  0.0240  0.0024 </r>
       </set>
       <set comment="band 2">
        <r>  0.3069  0.0268  0.0037 </r>
        <r>  0.3069  0.0268  0.0037 </r>
       </set>
       <set comment="band 3">
        <r>  0.0065  0.1916  0.0070 </r>
        <r>  0.0065  0.1916  0.0070 </r>
       </set>
       <set comment="band 4">
        <r>  0.0319  0.1894  0.0028 </r>
        <r>  0.0319  0.1894  0.0028 </r>
       </set>
       <set comment="band 5">
        <r>  0.0400  0.2114  0.0017 </r>
        <r>  0.0400  0.2114  0.0017 </r>
       </set>
       <set comment="band 6">
        <r>  0.0015  0.1749  0.0162 </r>
        <r>  0.0015  0.1749  0.0162 </r>
       </set>
       <set comment="band 7">
        <r>  0.0176  0.1712  0.0160 </r>
        <r>  0.0176  0.1712  0.0160 </r>
       </set>
       <set comment="band 8">
        <r>  0.0307  0.2363  0.0106 </r>
        <r>  0.0307  0.2363  0.0106 </r>
       </set>
       <set comment="band 9">
        <r>  0.0012  0.0684  0.0538 </r>
        <r>  0.0012  0.0684  0.0538 </r>
       </set>
       <set comment="band 10">
        <r>  0.0077  0.0210  0.0086 </r>
        <r>  0.0077  0.0210  0.0086 </r>
       </set>
       <set comment="band 11">
        <r>  0.0001  0.0302  0.0423 </r>
        <r>  0.0001  0.0302  0.0423 </r>
       </set>
       <set comment="band 12">
        <r>  0.0022  0.0342  0.0713 </r>
        <r>  0.0022  0.0342  0.0713 </r>
       </set>
       <set comment="band 13">
        <r>  0.0003  0.0104  0.0194 </r>
        <r>  0.0003  0.0104  0.0194 </r>
       </set>
       <set comment="band 14">
        <r>  0.0024  0.0137  0.0163 </r>
        <r>  0.0024  0.0137  0.0163 </r>
       </set>
       <set comment="band 15">
        <r>  0.0047  0.0093  0.0118 </r>
        <r>  0.0047  0.0093  0.0118 </r>
       </set>
       <set comment="band 16">
        <r>  0.0040  0.0223  0.0156 </r>
        <r>  0.0040  0.0223  0.0156 </r>
       </set>
      </set>
      <set comment="kpoint 67">
       <set comment="band 1">
        <r>  0.2886  0.0245  0.0027 </r>
        <r>  0.2886  0.0245  0.0027 </r>
       </set>
       <set comment="band 2">
        <r>  0.3021  0.0273  0.0036 </r>
        <r>  0.3021  0.0273  0.0036 </r>
       </set>
       <set comment="band 3">
        <r>  0.0048  0.1899  0.0066 </r>
        <r>  0.0048  0.1899  0.0066 </r>
       </set>
       <set comment="band 4">
        <r>  0.0361  0.1917  0.0026 </r>
        <r>  0.0361  0.1917  0.0026 </r>
       </set>
       <set comment="band 5">
        <r>  0.0412  0.2063  0.0019 </r>
        <r>  0.0412  0.2063  0.0019 </r>
       </set>
       <set comment="band 6">
        <r>  0.0007  0.1697  0.0161 </r>
        <r>  0.0007  0.1697  0.0161 </r>
       </set>
       <set comment="band 7">
        <r>  0.0174  0.1788  0.0160 </r>
        <r>  0.0174  0.1788  0.0160 </r>
       </set>
       <set comment="band 8">
        <r>  0.0267  0.2257  0.0118 </r>
        <r>  0.0267  0.2257  0.0118 </r>
       </set>
       <set comment="band 9">
        <r>  0.0051  0.0561  0.0580 </r>
        <r>  0.0051  0.0561  0.0580 </r>
       </set>
       <set comment="band 10">
        <r>  0.0004  0.0283  0.0481 </r>
        <r>  0.0004  0.0283  0.0481 </r>
       </set>
       <set comment="band 11">
        <r>  0.0066  0.0381  0.0159 </r>
        <r>  0.0066  0.0381  0.0159 </r>
       </set>
       <set comment="band 12">
        <r>  0.0006  0.0453  0.0483 </r>
        <r>  0.0006  0.0453  0.0483 </r>
       </set>
       <set comment="band 13">
        <r>  0.0011  0.0114  0.0197 </r>
        <r>  0.0011  0.0114  0.0197 </r>
       </set>
       <set comment="band 14">
        <r>  0.0048  0.0171  0.0092 </r>
        <r>  0.0048  0.0171  0.0092 </r>
       </set>
       <set comment="band 15">
        <r>  0.0007  0.0374  0.0205 </r>
        <r>  0.0007  0.0374  0.0205 </r>
       </set>
       <set comment="band 16">
        <r>  0.0018  0.0320  0.0124 </r>
        <r>  0.0018  0.0320  0.0124 </r>
       </set>
      </set>
      <set comment="kpoint 68">
       <set comment="band 1">
        <r>  0.2926  0.0246  0.0030 </r>
        <r>  0.2926  0.0246  0.0030 </r>
       </set>
       <set comment="band 2">
        <r>  0.2976  0.0278  0.0034 </r>
        <r>  0.2976  0.0278  0.0034 </r>
       </set>
       <set comment="band 3">
        <r>  0.0040  0.1890  0.0065 </r>
        <r>  0.0040  0.1890  0.0065 </r>
       </set>
       <set comment="band 4">
        <r>  0.0386  0.1949  0.0026 </r>
        <r>  0.0386  0.1949  0.0026 </r>
       </set>
       <set comment="band 5">
        <r>  0.0414  0.2018  0.0020 </r>
        <r>  0.0414  0.2018  0.0020 </r>
       </set>
       <set comment="band 6">
        <r>  0.0003  0.1671  0.0160 </r>
        <r>  0.0003  0.1671  0.0160 </r>
       </set>
       <set comment="band 7">
        <r>  0.0175  0.1871  0.0155 </r>
        <r>  0.0175  0.1871  0.0155 </r>
       </set>
       <set comment="band 8">
        <r>  0.0244  0.2144  0.0132 </r>
        <r>  0.0244  0.2144  0.0132 </r>
       </set>
       <set comment="band 9">
        <r>  0.0064  0.0521  0.0622 </r>
        <r>  0.0064  0.0521  0.0622 </r>
       </set>
       <set comment="band 10">
        <r>  0.0002  0.0252  0.0488 </r>
        <r>  0.0002  0.0252  0.0488 </r>
       </set>
       <set comment="band 11">
        <r>  0.0062  0.0447  0.0149 </r>
        <r>  0.0062  0.0447  0.0149 </r>
       </set>
       <set comment="band 12">
        <r>  0.0005  0.0583  0.0250 </r>
        <r>  0.0005  0.0583  0.0250 </r>
       </set>
       <set comment="band 13">
        <r>  0.0050  0.0168  0.0077 </r>
        <r>  0.0050  0.0168  0.0077 </r>
       </set>
       <set comment="band 14">
        <r>  0.0006  0.0219  0.0217 </r>
        <r>  0.0006  0.0219  0.0217 </r>
       </set>
       <set comment="band 15">
        <r>  0.0010  0.0169  0.0234 </r>
        <r>  0.0010  0.0169  0.0234 </r>
       </set>
       <set comment="band 16">
        <r>  0.0010  0.0635  0.0493 </r>
        <r>  0.0010  0.0635  0.0493 </r>
       </set>
      </set>
      <set comment="kpoint 69">
       <set comment="band 1">
        <r>  0.2922  0.0252  0.0030 </r>
        <r>  0.2922  0.0252  0.0030 </r>
       </set>
       <set comment="band 2">
        <r>  0.2993  0.0268  0.0034 </r>
        <r>  0.2993  0.0268  0.0034 </r>
       </set>
       <set comment="band 3">
        <r>  0.0016  0.1894  0.0065 </r>
        <r>  0.0016  0.1894  0.0065 </r>
       </set>
       <set comment="band 4">
        <r>  0.0396  0.1941  0.0024 </r>
        <r>  0.0396  0.1941  0.0024 </r>
       </set>
       <set comment="band 5">
        <r>  0.0420  0.2024  0.0020 </r>
        <r>  0.0420  0.2024  0.0020 </r>
       </set>
       <set comment="band 6">
        <r>  0.0003  0.1652  0.0159 </r>
        <r>  0.0003  0.1652  0.0159 </r>
       </set>
       <set comment="band 7">
        <r>  0.0178  0.1873  0.0154 </r>
        <r>  0.0178  0.1873  0.0154 </r>
       </set>
       <set comment="band 8">
        <r>  0.0233  0.2156  0.0126 </r>
        <r>  0.0233  0.2156  0.0126 </r>
       </set>
       <set comment="band 9">
        <r>  0.0000  0.0208  0.0498 </r>
        <r>  0.0000  0.0208  0.0498 </r>
       </set>
       <set comment="band 10">
        <r>  0.0117  0.0603  0.0384 </r>
        <r>  0.0117  0.0603  0.0384 </r>
       </set>
       <set comment="band 11">
        <r>  0.0037  0.0819  0.0531 </r>
        <r>  0.0037  0.0819  0.0531 </r>
       </set>
       <set comment="band 12">
        <r>  0.0002  0.0274  0.0292 </r>
        <r>  0.0002  0.0274  0.0292 </r>
       </set>
       <set comment="band 13">
        <r>  0.0019  0.0072  0.0111 </r>
        <r>  0.0019  0.0072  0.0111 </r>
       </set>
       <set comment="band 14">
        <r>  0.0048  0.0328  0.0327 </r>
        <r>  0.0048  0.0328  0.0327 </r>
       </set>
       <set comment="band 15">
        <r>  0.0006  0.0270  0.0045 </r>
        <r>  0.0006  0.0270  0.0045 </r>
       </set>
       <set comment="band 16">
        <r>  0.0003  0.0477  0.0315 </r>
        <r>  0.0003  0.0477  0.0315 </r>
       </set>
      </set>
      <set comment="kpoint 70">
       <set comment="band 1">
        <r>  0.2949  0.0254  0.0031 </r>
        <r>  0.2949  0.0254  0.0031 </r>
       </set>
       <set comment="band 2">
        <r>  0.2970  0.0266  0.0033 </r>
        <r>  0.2970  0.0266  0.0033 </r>
       </set>
       <set comment="band 3">
        <r>  0.0005  0.1892  0.0064 </r>
        <r>  0.0005  0.1892  0.0064 </r>
       </set>
       <set comment="band 4">
        <r>  0.0411  0.1966  0.0023 </r>
        <r>  0.0411  0.1966  0.0023 </r>
       </set>
       <set comment="band 5">
        <r>  0.0420  0.1996  0.0021 </r>
        <r>  0.0420  0.1996  0.0021 </r>
       </set>
       <set comment="band 6">
        <r>  0.0001  0.1637  0.0159 </r>
        <r>  0.0001  0.1637  0.0159 </r>
       </set>
       <set comment="band 7">
        <r>  0.0186  0.1950  0.0148 </r>
        <r>  0.0186  0.1950  0.0148 </r>
       </set>
       <set comment="band 8">
        <r>  0.0215  0.2071  0.0135 </r>
        <r>  0.0215  0.2071  0.0135 </r>
       </set>
       <set comment="band 9">
        <r>  0.0000  0.0178  0.0493 </r>
        <r>  0.0000  0.0178  0.0493 </r>
       </set>
       <set comment="band 10">
        <r>  0.0091  0.0739  0.0503 </r>
        <r>  0.0091  0.0739  0.0503 </r>
       </set>
       <set comment="band 11">
        <r>  0.0082  0.0937  0.0326 </r>
        <r>  0.0082  0.0937  0.0326 </r>
       </set>
       <set comment="band 12">
        <r>  0.0033  0.0180  0.0282 </r>
        <r>  0.0033  0.0180  0.0282 </r>
       </set>
       <set comment="band 13">
        <r>  0.0015  0.0250  0.0078 </r>
        <r>  0.0015  0.0250  0.0078 </r>
       </set>
       <set comment="band 14">
        <r>  0.0000  0.0616  0.0741 </r>
        <r>  0.0000  0.0616  0.0741 </r>
       </set>
       <set comment="band 15">
        <r>  0.0021  0.0204  0.0028 </r>
        <r>  0.0021  0.0204  0.0028 </r>
       </set>
       <set comment="band 16">
        <r>  0.0001  0.0018  0.0118 </r>
        <r>  0.0001  0.0018  0.0118 </r>
       </set>
      </set>
     </set>
    </set>
   </array>
  </projected>
 </calculation>
 <structure name="finalpos" >
  <crystal>
   <varray name="basis" >
    <v>       3.60689254       0.00000000       0.00000000 </v>
    <v>      -1.80344627       3.12366057       0.00000000 </v>
    <v>       0.00000000       0.00000000      16.00000000 </v>
   </varray>
   <i name="volume">    180.26732792 </i>
   <varray name="rec_basis" >
    <v>       0.27724696       0.16006861       0.00000000 </v>
    <v>       0.00000000       0.32013722       0.00000000 </v>
    <v>       0.00000000       0.00000000       0.06250000 </v>
   </varray>
  </crystal>
  <varray name="positions" >
   <v>       0.66666667       0.33333333       0.45634314 </v>
   <v>       0.33333333       0.66666667       0.54365686 </v>
  </varray>
 </structure>
</modeling>
