unknown system                          
           1
     3.606893    0.000000    0.000000
    -1.803446    3.123661    0.000000
     0.000000    0.000000   16.000000
   As
     2
Direct configuration=     1
   0.66666667  0.33333333  0.45634314
   0.33333333  0.66666667  0.54365686
