   2   2   1   0
  0.1352005E+03  0.3606893E-09  0.3606893E-09  0.2400000E-08  0.5000000E-15
  1.000000000000000E-004
  CAR 
 unknown system                          
      7.74411187    -18.44830295 6001     -3.75435611      1.00000000
    -18.448  0.0000E+00  0.0000E+00
    -18.444  0.0000E+00  0.0000E+00
    -18.440  0.0000E+00  0.0000E+00
    -18.435  0.0000E+00  0.0000E+00
    -18.431  0.0000E+00  0.0000E+00
    -18.426  0.0000E+00  0.0000E+00
    -18.422  0.0000E+00  0.0000E+00
    -18.418  0.0000E+00  0.0000E+00
    -18.413  0.0000E+00  0.0000E+00
    -18.409  0.0000E+00  0.0000E+00
    -18.405  0.0000E+00  0.0000E+00
    -18.400  0.0000E+00  0.0000E+00
    -18.396  0.0000E+00  0.0000E+00
    -18.392  0.0000E+00  0.0000E+00
    -18.387  0.0000E+00  0.0000E+00
    -18.383  0.0000E+00  0.0000E+00
    -18.378  0.0000E+00  0.0000E+00
    -18.374  0.0000E+00  0.0000E+00
    -18.370  0.0000E+00  0.0000E+00
    -18.365  0.0000E+00  0.0000E+00
    -18.361  0.0000E+00  0.0000E+00
    -18.357  0.0000E+00  0.0000E+00
    -18.352  0.0000E+00  0.0000E+00
    -18.348  0.0000E+00  0.0000E+00
    -18.344  0.0000E+00  0.0000E+00
    -18.339  0.0000E+00  0.0000E+00
    -18.335  0.0000E+00  0.0000E+00
    -18.330  0.0000E+00  0.0000E+00
    -18.326  0.0000E+00  0.0000E+00
    -18.322  0.0000E+00  0.0000E+00
    -18.317  0.0000E+00  0.0000E+00
    -18.313  0.0000E+00  0.0000E+00
    -18.309  0.0000E+00  0.0000E+00
    -18.304  0.0000E+00  0.0000E+00
    -18.300  0.0000E+00  0.0000E+00
    -18.296  0.0000E+00  0.0000E+00
    -18.291  0.0000E+00  0.0000E+00
    -18.287  0.0000E+00  0.0000E+00
    -18.282  0.0000E+00  0.0000E+00
    -18.278  0.0000E+00  0.0000E+00
    -18.274  0.0000E+00  0.0000E+00
    -18.269  0.0000E+00  0.0000E+00
    -18.265  0.0000E+00  0.0000E+00
    -18.261  0.0000E+00  0.0000E+00
    -18.256  0.0000E+00  0.0000E+00
    -18.252  0.0000E+00  0.0000E+00
    -18.247  0.0000E+00  0.0000E+00
    -18.243  0.0000E+00  0.0000E+00
    -18.239  0.0000E+00  0.0000E+00
    -18.234  0.0000E+00  0.0000E+00
    -18.230  0.0000E+00  0.0000E+00
    -18.226  0.0000E+00  0.0000E+00
    -18.221  0.0000E+00  0.0000E+00
    -18.217  0.0000E+00  0.0000E+00
    -18.213  0.0000E+00  0.0000E+00
    -18.208  0.0000E+00  0.0000E+00
    -18.204  0.0000E+00  0.0000E+00
    -18.199  0.0000E+00  0.0000E+00
    -18.195  0.0000E+00  0.0000E+00
    -18.191  0.0000E+00  0.0000E+00
    -18.186  0.0000E+00  0.0000E+00
    -18.182  0.0000E+00  0.0000E+00
    -18.178  0.0000E+00  0.0000E+00
    -18.173  0.0000E+00  0.0000E+00
    -18.169  0.0000E+00  0.0000E+00
    -18.165  0.0000E+00  0.0000E+00
    -18.160  0.0000E+00  0.0000E+00
    -18.156  0.0000E+00  0.0000E+00
    -18.151  0.0000E+00  0.0000E+00
    -18.147  0.0000E+00  0.0000E+00
    -18.143  0.0000E+00  0.0000E+00
    -18.138  0.0000E+00  0.0000E+00
    -18.134  0.0000E+00  0.0000E+00
    -18.130  0.0000E+00  0.0000E+00
    -18.125  0.0000E+00  0.0000E+00
    -18.121  0.0000E+00  0.0000E+00
    -18.117  0.0000E+00  0.0000E+00
    -18.112  0.0000E+00  0.0000E+00
    -18.108  0.0000E+00  0.0000E+00
    -18.103  0.0000E+00  0.0000E+00
    -18.099  0.0000E+00  0.0000E+00
    -18.095  0.0000E+00  0.0000E+00
    -18.090  0.0000E+00  0.0000E+00
    -18.086  0.0000E+00  0.0000E+00
    -18.082  0.0000E+00  0.0000E+00
    -18.077  0.0000E+00  0.0000E+00
    -18.073  0.0000E+00  0.0000E+00
    -18.069  0.0000E+00  0.0000E+00
    -18.064  0.0000E+00  0.0000E+00
    -18.060  0.0000E+00  0.0000E+00
    -18.055  0.0000E+00  0.0000E+00
    -18.051  0.0000E+00  0.0000E+00
    -18.047  0.0000E+00  0.0000E+00
    -18.042  0.0000E+00  0.0000E+00
    -18.038  0.0000E+00  0.0000E+00
    -18.034  0.0000E+00  0.0000E+00
    -18.029  0.0000E+00  0.0000E+00
    -18.025  0.0000E+00  0.0000E+00
    -18.020  0.0000E+00  0.0000E+00
    -18.016  0.0000E+00  0.0000E+00
    -18.012  0.0000E+00  0.0000E+00
    -18.007  0.0000E+00  0.0000E+00
    -18.003  0.0000E+00  0.0000E+00
    -17.999  0.0000E+00  0.0000E+00
    -17.994  0.0000E+00  0.0000E+00
    -17.990  0.0000E+00  0.0000E+00
    -17.986  0.0000E+00  0.0000E+00
    -17.981  0.0000E+00  0.0000E+00
    -17.977  0.0000E+00  0.0000E+00
    -17.972  0.0000E+00  0.0000E+00
    -17.968  0.0000E+00  0.0000E+00
    -17.964  0.0000E+00  0.0000E+00
    -17.959  0.0000E+00  0.0000E+00
    -17.955  0.0000E+00  0.0000E+00
    -17.951  0.0000E+00  0.0000E+00
    -17.946  0.0000E+00  0.0000E+00
    -17.942  0.0000E+00  0.0000E+00
    -17.938  0.0000E+00  0.0000E+00
    -17.933  0.0000E+00  0.0000E+00
    -17.929  0.0000E+00  0.0000E+00
    -17.924  0.0000E+00  0.0000E+00
    -17.920  0.0000E+00  0.0000E+00
    -17.916  0.0000E+00  0.0000E+00
    -17.911  0.0000E+00  0.0000E+00
    -17.907  0.0000E+00  0.0000E+00
    -17.903  0.0000E+00  0.0000E+00
    -17.898  0.0000E+00  0.0000E+00
    -17.894  0.0000E+00  0.0000E+00
    -17.890  0.0000E+00  0.0000E+00
    -17.885  0.0000E+00  0.0000E+00
    -17.881  0.0000E+00  0.0000E+00
    -17.876  0.0000E+00  0.0000E+00
    -17.872  0.0000E+00  0.0000E+00
    -17.868  0.0000E+00  0.0000E+00
    -17.863  0.0000E+00  0.0000E+00
    -17.859  0.0000E+00  0.0000E+00
    -17.855  0.0000E+00  0.0000E+00
    -17.850  0.0000E+00  0.0000E+00
    -17.846  0.0000E+00  0.0000E+00
    -17.842  0.0000E+00  0.0000E+00
    -17.837  0.0000E+00  0.0000E+00
    -17.833  0.0000E+00  0.0000E+00
    -17.828  0.0000E+00  0.0000E+00
    -17.824  0.0000E+00  0.0000E+00
    -17.820  0.0000E+00  0.0000E+00
    -17.815  0.0000E+00  0.0000E+00
    -17.811  0.0000E+00  0.0000E+00
    -17.807  0.0000E+00  0.0000E+00
    -17.802  0.0000E+00  0.0000E+00
    -17.798  0.0000E+00  0.0000E+00
    -17.793  0.0000E+00  0.0000E+00
    -17.789  0.0000E+00  0.0000E+00
    -17.785  0.0000E+00  0.0000E+00
    -17.780  0.0000E+00  0.0000E+00
    -17.776  0.0000E+00  0.0000E+00
    -17.772  0.0000E+00  0.0000E+00
    -17.767  0.0000E+00  0.0000E+00
    -17.763  0.0000E+00  0.0000E+00
    -17.759  0.0000E+00  0.0000E+00
    -17.754  0.0000E+00  0.0000E+00
    -17.750  0.0000E+00  0.0000E+00
    -17.745  0.0000E+00  0.0000E+00
    -17.741  0.0000E+00  0.0000E+00
    -17.737  0.0000E+00  0.0000E+00
    -17.732  0.0000E+00  0.0000E+00
    -17.728  0.0000E+00  0.0000E+00
    -17.724  0.0000E+00  0.0000E+00
    -17.719  0.0000E+00  0.0000E+00
    -17.715  0.0000E+00  0.0000E+00
    -17.711  0.0000E+00  0.0000E+00
    -17.706  0.0000E+00  0.0000E+00
    -17.702  0.0000E+00  0.0000E+00
    -17.697  0.0000E+00  0.0000E+00
    -17.693  0.0000E+00  0.0000E+00
    -17.689  0.0000E+00  0.0000E+00
    -17.684  0.0000E+00  0.0000E+00
    -17.680  0.0000E+00  0.0000E+00
    -17.676  0.0000E+00  0.0000E+00
    -17.671  0.0000E+00  0.0000E+00
    -17.667  0.0000E+00  0.0000E+00
    -17.663  0.0000E+00  0.0000E+00
    -17.658  0.0000E+00  0.0000E+00
    -17.654  0.0000E+00  0.0000E+00
    -17.649  0.0000E+00  0.0000E+00
    -17.645  0.0000E+00  0.0000E+00
    -17.641  0.0000E+00  0.0000E+00
    -17.636  0.0000E+00  0.0000E+00
    -17.632  0.0000E+00  0.0000E+00
    -17.628  0.0000E+00  0.0000E+00
    -17.623  0.0000E+00  0.0000E+00
    -17.619  0.0000E+00  0.0000E+00
    -17.615  0.0000E+00  0.0000E+00
    -17.610  0.0000E+00  0.0000E+00
    -17.606  0.0000E+00  0.0000E+00
    -17.601  0.0000E+00  0.0000E+00
    -17.597  0.0000E+00  0.0000E+00
    -17.593  0.0000E+00  0.0000E+00
    -17.588  0.0000E+00  0.0000E+00
    -17.584  0.0000E+00  0.0000E+00
    -17.580  0.0000E+00  0.0000E+00
    -17.575  0.0000E+00  0.0000E+00
    -17.571  0.0000E+00  0.0000E+00
    -17.566  0.0000E+00  0.0000E+00
    -17.562  0.0000E+00  0.0000E+00
    -17.558  0.0000E+00  0.0000E+00
    -17.553  0.0000E+00  0.0000E+00
    -17.549  0.0000E+00  0.0000E+00
    -17.545  0.0000E+00  0.0000E+00
    -17.540  0.0000E+00  0.0000E+00
    -17.536  0.0000E+00  0.0000E+00
    -17.532  0.0000E+00  0.0000E+00
    -17.527  0.0000E+00  0.0000E+00
    -17.523  0.0000E+00  0.0000E+00
    -17.518  0.0000E+00  0.0000E+00
    -17.514  0.0000E+00  0.0000E+00
    -17.510  0.0000E+00  0.0000E+00
    -17.505  0.0000E+00  0.0000E+00
    -17.501  0.0000E+00  0.0000E+00
    -17.497  0.0000E+00  0.0000E+00
    -17.492  0.0000E+00  0.0000E+00
    -17.488  0.0000E+00  0.0000E+00
    -17.484  0.0000E+00  0.0000E+00
    -17.479  0.0000E+00  0.0000E+00
    -17.475  0.0000E+00  0.0000E+00
    -17.470  0.0000E+00  0.0000E+00
    -17.466  0.0000E+00  0.0000E+00
    -17.462  0.0000E+00  0.0000E+00
    -17.457  0.0000E+00  0.0000E+00
    -17.453  0.0000E+00  0.0000E+00
    -17.449  0.0000E+00  0.0000E+00
    -17.444  0.0000E+00  0.0000E+00
    -17.440  0.0000E+00  0.0000E+00
    -17.436  0.0000E+00  0.0000E+00
    -17.431  0.0000E+00  0.0000E+00
    -17.427  0.0000E+00  0.0000E+00
    -17.422  0.0000E+00  0.0000E+00
    -17.418  0.0000E+00  0.0000E+00
    -17.414  0.0000E+00  0.0000E+00
    -17.409  0.0000E+00  0.0000E+00
    -17.405  0.0000E+00  0.0000E+00
    -17.401  0.0000E+00  0.0000E+00
    -17.396  0.0000E+00  0.0000E+00
    -17.392  0.0000E+00  0.0000E+00
    -17.388  0.0000E+00  0.0000E+00
    -17.383  0.0000E+00  0.0000E+00
    -17.379  0.0000E+00  0.0000E+00
    -17.374  0.0000E+00  0.0000E+00
    -17.370  0.0000E+00  0.0000E+00
    -17.366  0.0000E+00  0.0000E+00
    -17.361  0.0000E+00  0.0000E+00
    -17.357  0.0000E+00  0.0000E+00
    -17.353  0.0000E+00  0.0000E+00
    -17.348  0.0000E+00  0.0000E+00
    -17.344  0.0000E+00  0.0000E+00
    -17.339  0.0000E+00  0.0000E+00
    -17.335  0.0000E+00  0.0000E+00
    -17.331  0.0000E+00  0.0000E+00
    -17.326  0.0000E+00  0.0000E+00
    -17.322  0.0000E+00  0.0000E+00
    -17.318  0.0000E+00  0.0000E+00
    -17.313  0.5267E-14  0.2299E-16
    -17.309  0.6032E-12  0.2656E-14
    -17.305  0.4723E-10  0.2088E-12
    -17.300  0.2542E-08  0.1130E-10
    -17.296  0.9405E-07  0.4219E-09
    -17.291  0.2394E-05  0.1087E-07
    -17.287  0.4196E-04  0.1940E-06
    -17.283  0.5066E-03  0.2406E-05
    -17.278  0.4217E-02  0.2082E-04
    -17.274  0.2422E-01  0.1266E-03
    -17.270  0.9603E-01  0.5458E-03
    -17.265  0.2630E+00  0.1694E-02
    -17.261  0.4977E+00  0.3867E-02
    -17.257  0.6510E+00  0.6708E-02
    -17.252  0.5886E+00  0.9278E-02
    -17.248  0.3679E+00  0.1088E-01
    -17.243  0.1589E+00  0.1158E-01
    -17.239  0.4743E-01  0.1178E-01
    -17.235  0.9774E-02  0.1183E-01
    -17.230  0.1390E-02  0.1183E-01
    -17.226  0.1363E-03  0.1183E-01
    -17.222  0.9233E-05  0.1183E-01
    -17.217  0.1079E-05  0.1183E-01
    -17.213  0.1630E-04  0.1183E-01
    -17.209  0.2811E-03  0.1184E-01
    -17.204  0.3343E-02  0.1185E-01
    -17.200  0.2740E-01  0.1197E-01
    -17.195  0.1550E+00  0.1265E-01
    -17.191  0.6051E+00  0.1529E-01
    -17.187  0.1632E+01  0.2241E-01
    -17.182  0.3042E+01  0.3569E-01
    -17.178  0.3918E+01  0.5280E-01
    -17.174  0.3489E+01  0.6803E-01
    -17.169  0.2148E+01  0.7740E-01
    -17.165  0.9137E+00  0.8139E-01
    -17.161  0.2686E+00  0.8257E-01
    -17.156  0.5450E-01  0.8280E-01
    -17.152  0.7633E-02  0.8284E-01
    -17.147  0.7372E-03  0.8284E-01
    -17.143  0.4907E-04  0.8284E-01
    -17.139  0.2249E-05  0.8284E-01
    -17.134  0.7095E-07  0.8284E-01
    -17.130  0.1539E-08  0.8284E-01
    -17.126  0.2295E-10  0.8284E-01
    -17.121  0.2348E-12  0.8284E-01
    -17.117  0.1806E-14  0.8284E-01
    -17.112  0.0000E+00  0.8284E-01
    -17.108  0.0000E+00  0.8284E-01
    -17.104  0.0000E+00  0.8284E-01
    -17.099  0.0000E+00  0.8284E-01
    -17.095  0.0000E+00  0.8284E-01
    -17.091  0.0000E+00  0.8284E-01
    -17.086  0.0000E+00  0.8284E-01
    -17.082  0.9029E-15  0.8284E-01
    -17.078  0.1643E-12  0.8284E-01
    -17.073  0.1646E-10  0.8284E-01
    -17.069  0.1136E-08  0.8284E-01
    -17.064  0.5386E-07  0.8284E-01
    -17.060  0.1756E-05  0.8284E-01
    -17.056  0.3941E-04  0.8284E-01
    -17.051  0.6089E-03  0.8284E-01
    -17.047  0.6483E-02  0.8287E-01
    -17.043  0.4761E-01  0.8308E-01
    -17.038  0.2412E+00  0.8413E-01
    -17.034  0.8440E+00  0.8782E-01
    -17.030  0.2040E+01  0.9672E-01
    -17.025  0.3408E+01  0.1116E+00
    -17.021  0.3934E+01  0.1288E+00
    -17.016  0.3140E+01  0.1425E+00
    -17.012  0.1733E+01  0.1500E+00
    -17.008  0.6606E+00  0.1529E+00
    -17.003  0.1740E+00  0.1537E+00
    -16.999  0.3163E-01  0.1538E+00
    -16.995  0.3968E-02  0.1538E+00
    -16.990  0.3432E-03  0.1538E+00
    -16.986  0.2060E-04  0.1538E+00
    -16.982  0.5126E-05  0.1538E+00
    -16.977  0.8683E-04  0.1538E+00
    -16.973  0.1211E-02  0.1539E+00
    -16.968  0.1164E-01  0.1539E+00
    -16.964  0.7717E-01  0.1542E+00
    -16.960  0.3532E+00  0.1558E+00
    -16.955  0.1116E+01  0.1607E+00
    -16.951  0.2437E+01  0.1713E+00
    -16.947  0.3678E+01  0.1873E+00
    -16.942  0.3837E+01  0.2041E+00
    -16.938  0.2767E+01  0.2162E+00
    -16.934  0.1379E+01  0.2222E+00
    -16.929  0.4750E+00  0.2243E+00
    -16.925  0.1130E+00  0.2248E+00
    -16.920  0.1855E-01  0.2248E+00
    -16.916  0.2101E-02  0.2249E+00
    -16.912  0.1641E-03  0.2249E+00
    -16.907  0.8825E-05  0.2249E+00
    -16.903  0.3268E-06  0.2249E+00
    -16.899  0.8324E-08  0.2249E+00
    -16.894  0.1458E-09  0.2249E+00
    -16.890  0.1753E-11  0.2249E+00
    -16.885  0.1445E-13  0.2249E+00
    -16.881  0.0000E+00  0.2249E+00
    -16.877  0.0000E+00  0.2249E+00
    -16.872  0.0000E+00  0.2249E+00
    -16.868  0.0000E+00  0.2249E+00
    -16.864  0.0000E+00  0.2249E+00
    -16.859  0.0000E+00  0.2249E+00
    -16.855  0.0000E+00  0.2249E+00
    -16.851  0.0000E+00  0.2249E+00
    -16.846  0.0000E+00  0.2249E+00
    -16.842  0.0000E+00  0.2249E+00
    -16.837  0.0000E+00  0.2249E+00
    -16.833  0.0000E+00  0.2249E+00
    -16.829  0.0000E+00  0.2249E+00
    -16.824  0.0000E+00  0.2249E+00
    -16.820  0.0000E+00  0.2249E+00
    -16.816  0.0000E+00  0.2249E+00
    -16.811  0.0000E+00  0.2249E+00
    -16.807  0.0000E+00  0.2249E+00
    -16.803  0.0000E+00  0.2249E+00
    -16.798  0.0000E+00  0.2249E+00
    -16.794  0.0000E+00  0.2249E+00
    -16.789  0.0000E+00  0.2249E+00
    -16.785  0.0000E+00  0.2249E+00
    -16.781  0.0000E+00  0.2249E+00
    -16.776  0.0000E+00  0.2249E+00
    -16.772  0.3612E-13  0.2249E+00
    -16.768  0.4224E-11  0.2249E+00
    -16.763  0.3458E-09  0.2249E+00
    -16.759  0.1945E-07  0.2249E+00
    -16.755  0.7522E-06  0.2249E+00
    -16.750  0.2001E-04  0.2249E+00
    -16.746  0.3664E-03  0.2249E+00
    -16.741  0.4622E-02  0.2249E+00
    -16.737  0.4020E-01  0.2250E+00
    -16.733  0.2412E+00  0.2261E+00
    -16.728  0.9989E+00  0.2305E+00
    -16.724  0.2857E+01  0.2429E+00
    -16.720  0.5648E+01  0.2676E+00
    -16.715  0.7715E+01  0.3013E+00
    -16.711  0.7286E+01  0.3331E+00
    -16.707  0.4757E+01  0.3538E+00
    -16.702  0.2146E+01  0.3632E+00
    -16.698  0.6690E+00  0.3661E+00
    -16.693  0.1440E+00  0.3668E+00
    -16.689  0.2140E-01  0.3669E+00
    -16.685  0.2192E-02  0.3669E+00
    -16.680  0.1548E-03  0.3669E+00
    -16.676  0.7532E-05  0.3669E+00
    -16.672  0.2522E-06  0.3669E+00
    -16.667  0.5807E-08  0.3669E+00
    -16.663  0.9191E-10  0.3669E+00
    -16.658  0.9968E-12  0.3669E+00
    -16.654  0.7223E-14  0.3669E+00
    -16.650  0.0000E+00  0.3669E+00
    -16.645  0.0000E+00  0.3669E+00
    -16.641  0.0000E+00  0.3669E+00
    -16.637  0.0000E+00  0.3669E+00
    -16.632  0.0000E+00  0.3669E+00
    -16.628  0.0000E+00  0.3669E+00
    -16.624  0.9029E-15  0.3669E+00
    -16.619  0.1427E-12  0.3669E+00
    -16.615  0.1444E-10  0.3669E+00
    -16.610  0.1007E-08  0.3669E+00
    -16.606  0.4830E-07  0.3669E+00
    -16.602  0.1592E-05  0.3669E+00
    -16.597  0.3613E-04  0.3669E+00
    -16.593  0.5644E-03  0.3669E+00
    -16.589  0.6077E-02  0.3669E+00
    -16.584  0.4512E-01  0.3671E+00
    -16.580  0.2311E+00  0.3681E+00
    -16.576  0.8176E+00  0.3717E+00
    -16.571  0.1998E+01  0.3804E+00
    -16.567  0.3374E+01  0.3951E+00
    -16.562  0.3939E+01  0.4123E+00
    -16.558  0.3178E+01  0.4262E+00
    -16.554  0.1773E+01  0.4339E+00
    -16.549  0.6834E+00  0.4369E+00
    -16.545  0.1820E+00  0.4377E+00
    -16.541  0.3345E-01  0.4378E+00
    -16.536  0.4242E-02  0.4379E+00
    -16.532  0.3710E-03  0.4379E+00
    -16.528  0.2236E-04  0.4379E+00
    -16.523  0.9276E-06  0.4379E+00
    -16.519  0.2648E-07  0.4379E+00
    -16.514  0.5198E-09  0.4379E+00
    -16.510  0.7014E-11  0.4379E+00
    -16.506  0.6501E-13  0.4379E+00
    -16.501  0.0000E+00  0.4379E+00
    -16.497  0.0000E+00  0.4379E+00
    -16.493  0.0000E+00  0.4379E+00
    -16.488  0.0000E+00  0.4379E+00
    -16.484  0.0000E+00  0.4379E+00
    -16.480  0.0000E+00  0.4379E+00
    -16.475  0.0000E+00  0.4379E+00
    -16.471  0.0000E+00  0.4379E+00
    -16.466  0.0000E+00  0.4379E+00
    -16.462  0.0000E+00  0.4379E+00
    -16.458  0.0000E+00  0.4379E+00
    -16.453  0.0000E+00  0.4379E+00
    -16.449  0.0000E+00  0.4379E+00
    -16.445  0.0000E+00  0.4379E+00
    -16.440  0.0000E+00  0.4379E+00
    -16.436  0.0000E+00  0.4379E+00
    -16.431  0.0000E+00  0.4379E+00
    -16.427  0.0000E+00  0.4379E+00
    -16.423  0.0000E+00  0.4379E+00
    -16.418  0.0000E+00  0.4379E+00
    -16.414  0.0000E+00  0.4379E+00
    -16.410  0.0000E+00  0.4379E+00
    -16.405  0.0000E+00  0.4379E+00
    -16.401  0.0000E+00  0.4379E+00
    -16.397  0.7223E-14  0.4379E+00
    -16.392  0.9445E-12  0.4379E+00
    -16.388  0.8250E-10  0.4379E+00
    -16.383  0.4953E-08  0.4379E+00
    -16.379  0.2044E-06  0.4379E+00
    -16.375  0.5804E-05  0.4379E+00
    -16.370  0.1134E-03  0.4379E+00
    -16.366  0.1527E-02  0.4379E+00
    -16.362  0.1417E-01  0.4379E+00
    -16.357  0.9066E-01  0.4383E+00
    -16.353  0.4005E+00  0.4401E+00
    -16.349  0.1222E+01  0.4454E+00
    -16.344  0.2575E+01  0.4567E+00
    -16.340  0.3752E+01  0.4730E+00
    -16.335  0.3779E+01  0.4895E+00
    -16.331  0.2631E+01  0.5010E+00
    -16.327  0.1266E+01  0.5065E+00
    -16.322  0.4208E+00  0.5084E+00
    -16.318  0.9662E-01  0.5088E+00
    -16.314  0.1531E-01  0.5089E+00
    -16.309  0.1674E-02  0.5089E+00
    -16.305  0.1280E-03  0.5089E+00
    -16.301  0.5051E-04  0.5089E+00
    -16.296  0.7312E-03  0.5089E+00
    -16.292  0.8376E-02  0.5089E+00
    -16.287  0.6618E-01  0.5092E+00
    -16.283  0.3608E+00  0.5108E+00
    -16.279  0.1358E+01  0.5167E+00
    -16.274  0.3530E+01  0.5321E+00
    -16.270  0.6342E+01  0.5598E+00
    -16.266  0.7876E+01  0.5942E+00
    -16.261  0.6761E+01  0.6237E+00
    -16.257  0.4012E+01  0.6412E+00
    -16.253  0.1645E+01  0.6484E+00
    -16.248  0.4661E+00  0.6504E+00
    -16.244  0.9117E-01  0.6508E+00
    -16.239  0.1231E-01  0.6509E+00
    -16.235  0.1146E-02  0.6509E+00
    -16.231  0.7348E-04  0.6509E+00
    -16.226  0.3246E-05  0.6509E+00
    -16.222  0.9865E-07  0.6509E+00
    -16.218  0.2062E-08  0.6509E+00
    -16.213  0.2962E-10  0.6509E+00
    -16.209  0.2962E-12  0.6509E+00
    -16.204  0.0000E+00  0.6509E+00
    -16.200  0.0000E+00  0.6509E+00
    -16.196  0.0000E+00  0.6509E+00
    -16.191  0.0000E+00  0.6509E+00
    -16.187  0.0000E+00  0.6509E+00
    -16.183  0.0000E+00  0.6509E+00
    -16.178  0.0000E+00  0.6509E+00
    -16.174  0.0000E+00  0.6509E+00
    -16.170  0.0000E+00  0.6509E+00
    -16.165  0.0000E+00  0.6509E+00
    -16.161  0.0000E+00  0.6509E+00
    -16.156  0.0000E+00  0.6509E+00
    -16.152  0.0000E+00  0.6509E+00
    -16.148  0.0000E+00  0.6509E+00
    -16.143  0.0000E+00  0.6509E+00
    -16.139  0.0000E+00  0.6509E+00
    -16.135  0.0000E+00  0.6509E+00
    -16.130  0.0000E+00  0.6509E+00
    -16.126  0.0000E+00  0.6509E+00
    -16.122  0.0000E+00  0.6509E+00
    -16.117  0.0000E+00  0.6509E+00
    -16.113  0.0000E+00  0.6509E+00
    -16.108  0.3160E-13  0.6509E+00
    -16.104  0.3586E-11  0.6509E+00
    -16.100  0.2811E-09  0.6509E+00
    -16.095  0.1514E-07  0.6509E+00
    -16.091  0.5605E-06  0.6509E+00
    -16.087  0.1428E-04  0.6509E+00
    -16.082  0.2504E-03  0.6509E+00
    -16.078  0.3026E-02  0.6509E+00
    -16.074  0.2521E-01  0.6510E+00
    -16.069  0.1449E+00  0.6516E+00
    -16.065  0.5749E+00  0.6542E+00
    -16.060  0.1575E+01  0.6610E+00
    -16.056  0.2983E+01  0.6741E+00
    -16.052  0.3905E+01  0.6911E+00
    -16.047  0.3534E+01  0.7065E+00
    -16.043  0.2210E+01  0.7162E+00
    -16.039  0.9555E+00  0.7204E+00
    -16.034  0.2854E+00  0.7216E+00
    -16.030  0.5885E-01  0.7219E+00
    -16.026  0.8375E-02  0.7219E+00
    -16.021  0.8221E-03  0.7219E+00
    -16.017  0.5561E-04  0.7219E+00
    -16.012  0.2591E-05  0.7219E+00
    -16.008  0.8305E-07  0.7219E+00
    -16.004  0.1831E-08  0.7219E+00
    -15.999  0.2775E-10  0.7219E+00
    -15.995  0.2889E-12  0.7219E+00
    -15.991  0.1806E-14  0.7219E+00
    -15.986  0.0000E+00  0.7219E+00
    -15.982  0.0000E+00  0.7219E+00
    -15.977  0.0000E+00  0.7219E+00
    -15.973  0.0000E+00  0.7219E+00
    -15.969  0.0000E+00  0.7219E+00
    -15.964  0.0000E+00  0.7219E+00
    -15.960  0.0000E+00  0.7219E+00
    -15.956  0.0000E+00  0.7219E+00
    -15.951  0.0000E+00  0.7219E+00
    -15.947  0.0000E+00  0.7219E+00
    -15.943  0.0000E+00  0.7219E+00
    -15.938  0.0000E+00  0.7219E+00
    -15.934  0.0000E+00  0.7219E+00
    -15.929  0.0000E+00  0.7219E+00
    -15.925  0.0000E+00  0.7219E+00
    -15.921  0.0000E+00  0.7219E+00
    -15.916  0.0000E+00  0.7219E+00
    -15.912  0.0000E+00  0.7219E+00
    -15.908  0.0000E+00  0.7219E+00
    -15.903  0.0000E+00  0.7219E+00
    -15.899  0.0000E+00  0.7219E+00
    -15.895  0.0000E+00  0.7219E+00
    -15.890  0.1445E-13  0.7219E+00
    -15.886  0.1876E-11  0.7219E+00
    -15.881  0.1640E-09  0.7219E+00
    -15.877  0.9853E-08  0.7219E+00
    -15.873  0.4069E-06  0.7219E+00
    -15.868  0.1156E-04  0.7219E+00
    -15.864  0.2260E-03  0.7219E+00
    -15.860  0.3043E-02  0.7219E+00
    -15.855  0.2825E-01  0.7220E+00
    -15.851  0.1809E+00  0.7228E+00
    -15.847  0.7995E+00  0.7263E+00
    -15.842  0.2440E+01  0.7370E+00
    -15.838  0.5147E+01  0.7594E+00
    -15.833  0.7502E+01  0.7922E+00
    -15.829  0.7559E+01  0.8252E+00
    -15.825  0.5265E+01  0.8482E+00
    -15.820  0.2535E+01  0.8592E+00
    -15.816  0.8431E+00  0.8629E+00
    -15.812  0.1937E+00  0.8638E+00
    -15.807  0.3071E-01  0.8639E+00
    -15.803  0.3359E-02  0.8639E+00
    -15.799  0.2533E-03  0.8639E+00
    -15.794  0.1315E-04  0.8639E+00
    -15.790  0.4703E-06  0.8639E+00
    -15.785  0.1157E-07  0.8639E+00
    -15.781  0.1955E-09  0.8639E+00
    -15.777  0.2272E-11  0.8639E+00
    -15.772  0.1806E-13  0.8639E+00
    -15.768  0.0000E+00  0.8639E+00
    -15.764  0.0000E+00  0.8639E+00
    -15.759  0.1174E-12  0.8639E+00
    -15.755  0.1267E-10  0.8639E+00
    -15.750  0.9472E-09  0.8639E+00
    -15.746  0.4866E-07  0.8639E+00
    -15.742  0.1719E-05  0.8639E+00
    -15.737  0.4178E-04  0.8639E+00
    -15.733  0.6993E-03  0.8639E+00
    -15.729  0.8063E-02  0.8639E+00
    -15.724  0.6411E-01  0.8642E+00
    -15.720  0.3517E+00  0.8658E+00
    -15.716  0.1332E+01  0.8716E+00
    -15.711  0.3484E+01  0.8868E+00
    -15.707  0.6299E+01  0.9143E+00
    -15.702  0.7871E+01  0.9486E+00
    -15.698  0.6799E+01  0.9783E+00
    -15.694  0.4060E+01  0.9960E+00
    -15.689  0.1675E+01  0.1003E+01
    -15.685  0.4776E+00  0.1005E+01
    -15.681  0.9401E-01  0.1006E+01
    -15.676  0.1277E-01  0.1006E+01
    -15.672  0.1196E-02  0.1006E+01
    -15.668  0.7721E-04  0.1006E+01
    -15.663  0.3432E-05  0.1006E+01
    -15.659  0.1050E-06  0.1006E+01
    -15.654  0.2208E-08  0.1006E+01
    -15.650  0.3192E-10  0.1006E+01
    -15.646  0.3178E-12  0.1006E+01
    -15.641  0.0000E+00  0.1006E+01
    -15.637  0.0000E+00  0.1006E+01
    -15.633  0.0000E+00  0.1006E+01
    -15.628  0.0000E+00  0.1006E+01
    -15.624  0.0000E+00  0.1006E+01
    -15.620  0.0000E+00  0.1006E+01
    -15.615  0.0000E+00  0.1006E+01
    -15.611  0.0000E+00  0.1006E+01
    -15.606  0.0000E+00  0.1006E+01
    -15.602  0.0000E+00  0.1006E+01
    -15.598  0.0000E+00  0.1006E+01
    -15.593  0.0000E+00  0.1006E+01
    -15.589  0.0000E+00  0.1006E+01
    -15.585  0.0000E+00  0.1006E+01
    -15.580  0.0000E+00  0.1006E+01
    -15.576  0.0000E+00  0.1006E+01
    -15.572  0.0000E+00  0.1006E+01
    -15.567  0.0000E+00  0.1006E+01
    -15.563  0.0000E+00  0.1006E+01
    -15.558  0.0000E+00  0.1006E+01
    -15.554  0.0000E+00  0.1006E+01
    -15.550  0.0000E+00  0.1006E+01
    -15.545  0.0000E+00  0.1006E+01
    -15.541  0.0000E+00  0.1006E+01
    -15.537  0.0000E+00  0.1006E+01
    -15.532  0.0000E+00  0.1006E+01
    -15.528  0.0000E+00  0.1006E+01
    -15.523  0.0000E+00  0.1006E+01
    -15.519  0.0000E+00  0.1006E+01
    -15.515  0.0000E+00  0.1006E+01
    -15.510  0.3251E-13  0.1006E+01
    -15.506  0.3640E-11  0.1006E+01
    -15.502  0.2850E-09  0.1006E+01
    -15.497  0.1533E-07  0.1006E+01
    -15.493  0.5668E-06  0.1006E+01
    -15.489  0.1442E-04  0.1006E+01
    -15.484  0.2526E-03  0.1006E+01
    -15.480  0.3049E-02  0.1006E+01
    -15.475  0.2537E-01  0.1006E+01
    -15.471  0.1456E+00  0.1007E+01
    -15.467  0.5771E+00  0.1009E+01
    -15.462  0.1580E+01  0.1016E+01
    -15.458  0.2988E+01  0.1029E+01
    -15.454  0.3906E+01  0.1046E+01
    -15.449  0.3530E+01  0.1062E+01
    -15.445  0.2206E+01  0.1071E+01
    -15.441  0.9523E+00  0.1075E+01
    -15.436  0.2841E+00  0.1077E+01
    -15.432  0.5851E-01  0.1077E+01
    -15.427  0.8317E-02  0.1077E+01
    -15.423  0.8153E-03  0.1077E+01
    -15.419  0.5508E-04  0.1077E+01
    -15.414  0.2563E-05  0.1077E+01
    -15.410  0.8207E-07  0.1077E+01
    -15.406  0.1807E-08  0.1077E+01
    -15.401  0.2736E-10  0.1077E+01
    -15.397  0.2835E-12  0.1077E+01
    -15.393  0.1806E-14  0.1077E+01
    -15.388  0.0000E+00  0.1077E+01
    -15.384  0.0000E+00  0.1077E+01
    -15.379  0.0000E+00  0.1077E+01
    -15.375  0.0000E+00  0.1077E+01
    -15.371  0.0000E+00  0.1077E+01
    -15.366  0.0000E+00  0.1077E+01
    -15.362  0.0000E+00  0.1077E+01
    -15.358  0.0000E+00  0.1077E+01
    -15.353  0.0000E+00  0.1077E+01
    -15.349  0.0000E+00  0.1077E+01
    -15.345  0.0000E+00  0.1077E+01
    -15.340  0.2980E-13  0.1077E+01
    -15.336  0.3366E-11  0.1077E+01
    -15.331  0.2653E-09  0.1077E+01
    -15.327  0.1436E-07  0.1077E+01
    -15.323  0.5345E-06  0.1077E+01
    -15.318  0.1369E-04  0.1077E+01
    -15.314  0.2413E-03  0.1077E+01
    -15.310  0.2931E-02  0.1077E+01
    -15.305  0.2454E-01  0.1077E+01
    -15.301  0.1418E+00  0.1078E+01
    -15.296  0.5654E+00  0.1080E+01
    -15.292  0.1558E+01  0.1087E+01
    -15.288  0.2965E+01  0.1100E+01
    -15.283  0.3901E+01  0.1117E+01
    -15.279  0.3548E+01  0.1132E+01
    -15.275  0.2230E+01  0.1142E+01
    -15.270  0.9692E+00  0.1146E+01
    -15.266  0.2916E+00  0.1148E+01
    -15.262  0.6778E-01  0.1148E+01
    -15.257  0.6878E-01  0.1148E+01
    -15.253  0.3350E+00  0.1150E+01
    -15.248  0.1281E+01  0.1155E+01
    -15.244  0.3394E+01  0.1170E+01
    -15.240  0.6212E+01  0.1197E+01
    -15.235  0.7859E+01  0.1232E+01
    -15.231  0.6874E+01  0.1262E+01
    -15.227  0.4156E+01  0.1280E+01
    -15.222  0.1736E+01  0.1287E+01
    -15.218  0.5012E+00  0.1289E+01
    -15.214  0.9989E-01  0.1290E+01
    -15.209  0.1374E-01  0.1290E+01
    -15.205  0.1303E-02  0.1290E+01
    -15.200  0.8517E-04  0.1290E+01
    -15.196  0.3833E-05  0.1290E+01
    -15.192  0.1187E-06  0.1290E+01
    -15.187  0.2529E-08  0.1290E+01
    -15.183  0.3703E-10  0.1290E+01
    -15.179  0.3756E-12  0.1290E+01
    -15.174  0.0000E+00  0.1290E+01
    -15.170  0.0000E+00  0.1290E+01
    -15.166  0.0000E+00  0.1290E+01
    -15.161  0.7585E-13  0.1290E+01
    -15.157  0.8545E-11  0.1290E+01
    -15.152  0.6601E-09  0.1290E+01
    -15.148  0.3504E-07  0.1290E+01
    -15.144  0.1279E-05  0.1290E+01
    -15.139  0.3211E-04  0.1290E+01
    -15.135  0.5552E-03  0.1290E+01
    -15.131  0.6613E-02  0.1290E+01
    -15.126  0.5431E-01  0.1290E+01
    -15.122  0.3077E+00  0.1292E+01
    -15.118  0.1204E+01  0.1297E+01
    -15.113  0.3252E+01  0.1311E+01
    -15.109  0.6071E+01  0.1338E+01
    -15.104  0.7834E+01  0.1372E+01
    -15.100  0.6989E+01  0.1402E+01
    -15.096  0.4310E+01  0.1421E+01
    -15.091  0.1837E+01  0.1429E+01
    -15.087  0.5407E+00  0.1431E+01
    -15.083  0.1099E+00  0.1432E+01
    -15.078  0.1542E-01  0.1432E+01
    -15.074  0.1492E-02  0.1432E+01
    -15.069  0.9950E-04  0.1432E+01
    -15.065  0.4569E-05  0.1432E+01
    -15.061  0.1444E-06  0.1432E+01
    -15.056  0.3138E-08  0.1432E+01
    -15.052  0.4687E-10  0.1432E+01
    -15.048  0.4804E-12  0.1432E+01
    -15.043  0.3612E-14  0.1432E+01
    -15.039  0.0000E+00  0.1432E+01
    -15.035  0.0000E+00  0.1432E+01
    -15.030  0.0000E+00  0.1432E+01
    -15.026  0.0000E+00  0.1432E+01
    -15.021  0.0000E+00  0.1432E+01
    -15.017  0.0000E+00  0.1432E+01
    -15.013  0.0000E+00  0.1432E+01
    -15.008  0.0000E+00  0.1432E+01
    -15.004  0.0000E+00  0.1432E+01
    -15.000  0.0000E+00  0.1432E+01
    -14.995  0.0000E+00  0.1432E+01
    -14.991  0.0000E+00  0.1432E+01
    -14.987  0.4515E-14  0.1432E+01
    -14.982  0.5436E-12  0.1432E+01
    -14.978  0.4968E-10  0.1432E+01
    -14.973  0.3118E-08  0.1432E+01
    -14.969  0.1345E-06  0.1432E+01
    -14.965  0.3990E-05  0.1432E+01
    -14.960  0.8148E-04  0.1432E+01
    -14.956  0.1146E-02  0.1432E+01
    -14.952  0.1111E-01  0.1432E+01
    -14.947  0.7427E-01  0.1432E+01
    -14.943  0.3427E+00  0.1434E+01
    -14.939  0.1092E+01  0.1439E+01
    -14.934  0.2405E+01  0.1449E+01
    -14.930  0.3659E+01  0.1465E+01
    -14.925  0.3849E+01  0.1482E+01
    -14.921  0.2798E+01  0.1494E+01
    -14.917  0.1406E+01  0.1500E+01
    -14.912  0.4884E+00  0.1502E+01
    -14.908  0.1171E+00  0.1503E+01
    -14.904  0.1940E-01  0.1503E+01
    -14.899  0.2215E-02  0.1503E+01
    -14.895  0.1744E-03  0.1503E+01
    -14.890  0.9461E-05  0.1503E+01
    -14.886  0.3533E-06  0.1503E+01
    -14.882  0.9074E-08  0.1503E+01
    -14.877  0.1602E-09  0.1503E+01
    -14.873  0.1945E-11  0.1503E+01
    -14.869  0.1625E-13  0.1503E+01
    -14.864  0.0000E+00  0.1503E+01
    -14.860  0.0000E+00  0.1503E+01
    -14.856  0.0000E+00  0.1503E+01
    -14.851  0.0000E+00  0.1503E+01
    -14.847  0.0000E+00  0.1503E+01