    2    2    1    1
  0.1352005E+03  0.3606893E-09  0.3606893E-09  0.2400000E-08  0.5000000E-15
  1.000000000000000E-004
  CAR 
 unknown system                          
     10     21     16
 
  0.0000000E+00  0.0000000E+00  0.0000000E+00  0.5917160E-02
      1        -17.257739   1.000000
      2        -10.969901   1.000000
      3         -4.345359   1.000000
      4         -3.796825   1.000000
      5         -3.796823   1.000000
      6         -1.874786   0.000000
      7         -0.305865   0.000000
      8         -0.305865   0.000000
      9          1.051116   0.000000
     10          1.284331   0.000000
     11          1.801634   0.000000
     12          2.197362   0.000000
     13          3.068497   0.000000
     14          3.651165   0.000000
     15          4.765857   0.000000
     16          5.610920   0.000000
 
  0.7692308E-01  0.0000000E+00  0.0000000E+00  0.3550296E-01
      1        -17.179342   1.000000
      2        -10.959428   1.000000
      3         -4.586948   1.000000
      4         -4.307394   1.000000
      5         -3.973993   1.000000
      6         -1.290731   0.000000
      7         -0.427373   0.000000
      8         -0.124807   0.000000
      9          1.162311   0.000000
     10          1.379202   0.000000
     11          1.893111   0.000000
     12          2.291373   0.000000
     13          3.153814   0.000000
     14          3.743644   0.000000
     15          4.866785   0.000000
     16          5.412282   0.000000
 
  0.1538462E+00  0.0000000E+00  0.0000000E+00  0.3550296E-01
      1        -16.946104   1.000000
      2        -10.961923   1.000000
      3         -5.808083   1.000000
      4         -4.381636   1.000000
      5         -4.220287   1.000000
      6         -1.457246   0.000000
      7          0.141073   0.000000
      8          0.252495   0.000000
      9          1.458777   0.000000
     10          1.663165   0.000000
     11          2.160025   0.000000
     12          2.564024   0.000000
     13          3.360494   0.000000
     14          3.997059   0.000000
     15          4.492679   0.000000
     16          5.361163   0.000000
 
  0.2307692E+00 -0.4163336E-16  0.0000000E+00  0.3550296E-01
      1        -16.564985   1.000000
      2        -11.091147   1.000000
      3         -6.810773   1.000000
      4         -4.834381   1.000000
      5         -4.191415   1.000000
      6         -1.981108   0.000000
      7          0.527567   0.000000
      8          0.563489   0.000000
      9          1.772006   0.000000
     10          2.126735   0.000000
     11          2.605529   0.000000
     12          2.975494   0.000000
     13          3.673435   0.000000
     14          4.296973   0.000000
     15          4.678860   0.000000
     16          5.320257   0.000000
 
  0.3076923E+00  0.0000000E+00  0.0000000E+00  0.3550296E-01
      1        -16.052879   1.000000
      2        -11.502345   1.000000
      3         -7.340649   1.000000
      4         -5.225457   1.000000
      5         -4.413256   1.000000
      6         -2.199983   0.000000
      7          0.206116   0.000000
      8          0.702931   0.000000
      9          2.304613   0.000000
     10          2.613319   0.000000
     11          3.162177   0.000000
     12          3.581065   0.000000
     13          3.881127   0.000000
     14          4.820074   0.000000
     15          5.032342   0.000000
     16          6.071166   0.000000
 
  0.3846154E+00 -0.5551115E-16  0.0000000E+00  0.3550296E-01
      1        -15.454833   1.000000
      2        -12.173396   1.000000
      3         -7.388508   1.000000
      4         -5.504832   1.000000
      5         -4.880972   1.000000
      6         -2.072157   0.000000
      7         -0.285079   0.000000
      8          0.723295   0.000000
      9          2.727562   0.000000
     10          3.087141   0.000000
     11          3.789831   0.000000
     12          4.235757   0.000000
     13          4.405362   0.000000
     14          5.350474   0.000000
     15          5.800413   0.000000
     16          6.117446   0.000000
 
  0.4615385E+00 -0.8326673E-16  0.0000000E+00  0.3550296E-01
      1        -14.929191   1.000000
      2        -12.792046   1.000000
      3         -7.229200   1.000000
      4         -5.649204   1.000000
      5         -5.293490   1.000000
      6         -1.867504   0.000000
      7         -0.610514   0.000000
      8          0.709720   0.000000
      9          2.519828   0.000000
     10          4.039886   0.000000
     11          4.563101   0.000000
     12          4.973130   0.000000
     13          5.239275   0.000000
     14          5.396239   0.000000
     15          5.609621   0.000000
     16          6.049546   0.000000
 
  0.7692308E-01  0.7692308E-01  0.0000000E+00  0.3550296E-01
      1        -17.023482   1.000000
      2        -10.954785   1.000000
      3         -5.444178   1.000000
      4         -4.371708   1.000000
      5         -4.237783   1.000000
      6         -0.789696   0.000000
      7         -0.749541   0.000000
      8          0.361132   0.000000
      9          1.386605   0.000000
     10          1.554939   0.000000
     11          2.068887   0.000000
     12          2.476550   0.000000
     13          3.291549   0.000000
     14          3.924046   0.000000
     15          4.586975   0.000000
     16          5.415443   0.000000
 
  0.1538462E+00  0.7692308E-01  0.0000000E+00  0.7100592E-01
      1        -16.715915   1.000000
      2        -11.016629   1.000000
      3         -6.412556   1.000000
      4         -4.951370   1.000000
      5         -4.165327   1.000000
      6         -1.317809   0.000000
      7         -0.141251   0.000000
      8          0.777865   0.000000
      9          1.705950   0.000000
     10          1.916431   0.000000
     11          2.414479   0.000000
     12          2.823760   0.000000
     13          3.474710   0.000000
     14          4.205885   0.000000
     15          4.368983   0.000000
     16          5.557996   0.000000
 
  0.2307692E+00  0.7692308E-01  0.0000000E+00  0.7100592E-01
      1        -16.267406   1.000000
      2        -11.286407   1.000000
      3         -7.109590   1.000000
      4         -5.464836   1.000000
      5         -4.222221   1.000000
      6         -1.730205   0.000000
      7          0.264790   0.000000
      8          0.628678   0.000000
      9          2.085256   0.000000
     10          2.432285   0.000000
     11          2.931604   0.000000
     12          3.325053   0.000000
     13          3.772979   0.000000
     14          4.576642   0.000000
     15          4.840413   0.000000
     16          5.457593   0.000000
 
  0.3076923E+00  0.7692308E-01  0.0000000E+00  0.7100592E-01
      1        -15.704196   1.000000
      2        -11.848937   1.000000
      3         -7.362429   1.000000
      4         -5.819926   1.000000
      5         -4.555487   1.000000
      6         -1.786439   0.000000
      7          0.082099   0.000000
      8          0.432799   0.000000
      9          2.747878   0.000000
     10          2.869283   0.000000
     11          3.523174   0.000000
     12          3.994817   0.000000
     13          4.076634   0.000000
     14          5.152388   0.000000
     15          5.441456   0.000000
     16          5.916299   0.000000
 
  0.3846154E+00  0.7692308E-01  0.0000000E+00  0.7100592E-01
      1        -15.105755   1.000000
      2        -12.542176   1.000000
      3         -7.306239   1.000000
      4         -5.960736   1.000000
      5         -5.054755   1.000000
      6         -1.557204   0.000000
      7         -0.449945   0.000000
      8          0.508700   0.000000
      9          2.740327   0.000000
     10          3.627248   0.000000
     11          4.246605   0.000000
     12          4.681358   0.000000
     13          4.947812   0.000000
     14          5.607274   0.000000
     15          5.963408   0.000000
     16          6.138806   0.000000
 
  0.4615385E+00  0.7692308E-01  0.0000000E+00  0.3550296E-01
      1        -14.773816   1.000000
      2        -12.923500   1.000000
      3         -7.236556   1.000000
      4         -5.928858   1.000000
      5         -5.353464   1.000000
      6         -1.349116   0.000000
      7         -0.737499   0.000000
      8          0.542369   0.000000
      9          2.579398   0.000000
     10          4.634865   0.000000
     11          4.655625   0.000000
     12          5.017323   0.000000
     13          5.348579   0.000000
     14          5.601717   0.000000
     15          5.786898   0.000000
     16          6.023869   0.000000
 
  0.1538462E+00  0.1538462E+00  0.0000000E+00  0.3550296E-01
      1        -16.339730   1.000000
      2        -11.214544   1.000000
      3         -6.894363   1.000000
      4         -5.780143   1.000000
      5         -4.164161   1.000000
      6         -1.042626   0.000000
      7         -0.318778   0.000000
      8          0.911034   0.000000
      9          2.101713   0.000000
     10          2.271823   0.000000
     11          2.810886   0.000000
     12          3.264935   0.000000
     13          3.512072   0.000000
     14          4.458198   0.000000
     15          4.694369   0.000000
     16          5.574993   0.000000
 
  0.2307692E+00  0.1538462E+00  0.0000000E+00  0.7100592E-01
      1        -15.833337   1.000000
      2        -11.653030   1.000000
      3         -7.145452   1.000000
      4         -6.403075   1.000000
      5         -4.349414   1.000000
      6         -1.126801   0.000000
      7         -0.257920   0.000000
      8          0.764283   0.000000
      9          2.623990   0.000000
     10          2.825473   0.000000
     11          3.377589   0.000000
     12          3.841046   0.000000
     13          3.924614   0.000000
     14          4.965810   0.000000
     15          5.127204   0.000000
     16          5.323710   0.000000
 
  0.3076923E+00  0.1538462E+00  0.0000000E+00  0.7100592E-01
      1        -15.236951   1.000000
      2        -12.295149   1.000000
      3         -7.309676   1.000000
      4         -6.548213   1.000000
      5         -4.772700   1.000000
      6         -1.130057   0.000000
      7         -0.297032   0.000000
      8          0.532279   0.000000
      9          3.146052   0.000000
     10          3.393366   0.000000
     11          4.035975   0.000000
     12          4.462390   0.000000
     13          4.680867   0.000000
     14          5.333261   0.000000
     15          5.600001   0.000000
     16          6.130391   0.000000
 
  0.3846154E+00  0.1538462E+00  0.0000000E+00  0.7100592E-01
      1        -14.695356   1.000000
      2        -12.898115   1.000000
      3         -7.455182   1.000000
      4         -6.302577   1.000000
      5         -5.254257   1.000000
      6         -1.066601   0.000000
      7         -0.331801   0.000000
      8          0.390299   0.000000
      9          2.961260   0.000000
     10          4.351038   0.000000
     11          4.852318   0.000000
     12          5.318655   0.000000
     13          5.387652   0.000000
     14          5.595495   0.000000
     15          5.690834   0.000000
     16          6.229941   0.000000
 
  0.2307692E+00  0.2307692E+00  0.0000000E+00  0.3550296E-01
      1        -15.284508   1.000000
      2        -12.189945   1.000000
      3         -7.219615   1.000000
      4         -6.889808   1.000000
      5         -4.649942   1.000000
      6         -0.924550   0.000000
      7         -0.552304   0.000000
      8          1.029747   0.000000
      9          3.327705   0.000000
     10          3.341193   0.000000
     11          3.981819   0.000000
     12          4.369043   0.000000
     13          4.593458   0.000000
     14          4.746165   0.000000
     15          5.386160   0.000000
     16          6.038920   0.000000
 
  0.3076923E+00  0.2307692E+00  0.0000000E+00  0.7100592E-01
      1        -14.678253   1.000000
      2        -12.815507   1.000000
      3         -7.711363   1.000000
      4         -6.486451   1.000000
      5         -5.099234   1.000000
      6         -1.351700   0.000000
      7         -0.038520   0.000000
      8          0.918585   0.000000
      9          3.710518   0.000000
     10          4.184861   0.000000
     11          4.564226   0.000000
     12          4.928405   0.000000
     13          5.096516   0.000000
     14          5.519750   0.000000
     15          5.741370   0.000000
     16          6.470252   0.000000
 
  0.3846154E+00  0.2307692E+00  0.0000000E+00  0.3550296E-01
      1        -14.294810   1.000000
      2        -13.211384   1.000000
      3         -7.879877   1.000000
      4         -6.171144   1.000000
      5         -5.429935   1.000000
      6         -1.504102   0.000000
      7          0.448989   0.000000
      8          0.545389   0.000000
      9          3.654162   0.000000
     10          4.668258   0.000000
     11          5.230218   0.000000
     12          5.278412   0.000000
     13          5.471962   0.000000
     14          6.038169   0.000000
     15          6.121550   0.000000
     16          6.553548   0.000000
 
  0.3076923E+00  0.3076923E+00  0.0000000E+00  0.3550296E-01
      1        -14.082349   1.000000
      2        -13.380729   1.000000
      3         -8.074893   1.000000
      4         -6.052001   1.000000
      5         -5.508871   1.000000
      6         -1.719819   0.000000
      7          0.499751   0.000000
      8          0.913910   0.000000
      9          4.351264   0.000000
     10          4.756095   0.000000
     11          4.847989   0.000000
     12          5.340157   0.000000
     13          5.893484   0.000000
     14          6.187523   0.000000
     15          6.304926   0.000000
     16          6.406771   0.000000
