 running   16 mpi-ranks, on    1 nodes
 distrk:  each k-point on   16 cores,    1 groups
 distr:  one band on    1 cores,   16 groups
 vasp.6.4.2 20Jul23 (build Nov 14 2023 12:59:38) complex                        
  
 POSCAR found type information on POSCAR As
 POSCAR found :  1 types and       2 ions
 Reading from existing POTCAR
 scaLAPACK will be used
 -----------------------------------------------------------------------------
|                                                                             |
|           W    W    AA    RRRRR   N    N  II  N    N   GGGG   !!!           |
|           W    W   A  A   R    R  NN   N  II  NN   N  G    G  !!!           |
|           W    W  A    A  R    R  N N  N  II  N N  N  G       !!!           |
|           W WW W  AAAAAA  RRRRR   N  N N  II  N  N N  G  GGG   !            |
|           WW  WW  A    A  R   R   N   NN  II  N   NN  G    G                |
|           W    W  A    A  R    R  N    N  II  N    N   GGGG   !!!           |
|                                                                             |
|     For optimal performance we recommend to set                             |
|       NCORE = 2 up to number-of-cores-per-socket                            |
|     NCORE specifies how many cores store one orbital (NPAR=cpu/NCORE).      |
|     This setting can greatly improve the performance of VASP for DFT.       |
|     The default, NCORE=1 might be grossly inefficient on modern             |
|     multi-core architectures or massively parallel machines. Do your        |
|     own testing! More info at https://www.vasp.at/wiki/index.php/NCORE      |
|     Unfortunately you need to use the default for GW and RPA                |
|     calculations (for HF NCORE is supported but not extensively tested      |
|     yet).                                                                   |
|                                                                             |
 -----------------------------------------------------------------------------

 Reading from existing POTCAR
 LDA part: xc-table for Pade appr. of Perdew
 POSCAR, INCAR and KPOINTS ok, starting setup
 FFT: planning ... GRIDC
 FFT: planning ... GRID_SOFT
 FFT: planning ... GRID
 WAVECAR not read
 entering main loop
       N       E                     dE             d eps       ncg     rms          rms(c)
DAV:   1     0.294859669915E+02    0.29486E+02   -0.23696E+03   672   0.218E+02
DAV:   2    -0.817562293036E+01   -0.37662E+02   -0.37116E+02   992   0.518E+01
DAV:   3    -0.936643613044E+01   -0.11908E+01   -0.11908E+01   720   0.142E+01
DAV:   4    -0.940225901140E+01   -0.35823E-01   -0.35823E-01  1248   0.231E+00
DAV:   5    -0.940248160883E+01   -0.22260E-03   -0.22260E-03   800   0.128E-01
DAV:   6    -0.940248468847E+01   -0.30796E-05   -0.30797E-05  1200   0.109E-02
DAV:   7    -0.940248470579E+01   -0.17319E-07   -0.17333E-07   976   0.742E-04
DAV:   8    -0.940248470603E+01   -0.24448E-09   -0.24806E-09  1056   0.744E-05
DAV:   9    -0.940248470610E+01   -0.67985E-10   -0.71146E-10   768   0.282E-05
DAV:  10    -0.940248470613E+01   -0.31207E-10   -0.32519E-10   656   0.181E-05
DAV:  11    -0.940248470614E+01   -0.14325E-10   -0.15662E-10   448   0.122E-05
DAV:  12    -0.940248470615E+01   -0.63665E-11   -0.74993E-11   464   0.838E-06    0.193E+00
DAV:  13    -0.938780482902E+01    0.14680E-01   -0.31703E-03  1056   0.164E-01    0.172E+00
DAV:  14    -0.934578053248E+01    0.42024E-01   -0.18881E-01  1072   0.126E+00    0.222E-01
DAV:  15    -0.934173128450E+01    0.40492E-02   -0.17712E-02  1136   0.372E-01    0.109E-01
DAV:  16    -0.934186107763E+01   -0.12979E-03   -0.84801E-04  1184   0.106E-01    0.482E-02
DAV:  17    -0.934174296241E+01    0.11812E-03   -0.73077E-04  1024   0.853E-02    0.262E-02
DAV:  18    -0.934175424878E+01   -0.11286E-04   -0.78701E-05  1072   0.275E-02    0.629E-03
DAV:  19    -0.934175366168E+01    0.58710E-06   -0.29866E-06   832   0.726E-03
   1 F= -.93417537E+01 E0= -.93417537E+01  d E =-.977423E-12
 Linear response reoptimize wavefunctions to high precision
DAV:   1    -0.934175368222E+01   -0.20546E-07   -0.20547E-07  1088   0.176E-03
DAV:   2    -0.934175368230E+01   -0.70713E-10   -0.70687E-10   896   0.905E-05
 Linear response G [H, r] |phi>, progress :
  Direction:   1
       N       E                     dE             d eps       ncg     rms
RMM:   1    -0.400012800679E+02   -0.40001E+02    0.14932E+02  1871   0.347E+01
RMM:   2    -0.367510422514E+02    0.32502E+01   -0.79207E+00  1381   0.111E+01
RMM:   3    -0.369491941054E+02   -0.19815E+00   -0.43827E-01  1377   0.280E+00
RMM:   4    -0.369705162722E+02   -0.21322E-01   -0.28590E-02  1444   0.700E-01
RMM:   5    -0.369717715919E+02   -0.12553E-02   -0.30980E-03  1445   0.228E-01
RMM:   6    -0.369719294604E+02   -0.15787E-03   -0.27537E-04  1469   0.600E-02
RMM:   7    -0.369719402035E+02   -0.10743E-04   -0.39744E-05  1482   0.206E-02
RMM:   8    -0.369719413899E+02   -0.11865E-05   -0.22730E-06  1468   0.480E-03
RMM:   9    -0.369719414470E+02   -0.57099E-07   -0.79791E-07  1350   0.162E-03
 Linear response G [H, r] |phi>, progress :
  Direction:   2
       N       E                     dE             d eps       ncg     rms
RMM:   1    -0.494274465505E+02   -0.49427E+02    0.27894E+01  1806   0.331E+01
RMM:   2    -0.442404082542E+02    0.51870E+01   -0.81327E+00  1369   0.102E+01
RMM:   3    -0.443891090110E+02   -0.14870E+00   -0.51910E-01  1327   0.243E+00
RMM:   4    -0.444018516216E+02   -0.12743E-01   -0.22126E-02  1442   0.564E-01
RMM:   5    -0.444025070756E+02   -0.65545E-03   -0.18511E-03  1440   0.171E-01
RMM:   6    -0.444025758632E+02   -0.68788E-04   -0.17338E-04  1472   0.498E-02
RMM:   7    -0.444025813717E+02   -0.55085E-05   -0.23399E-05  1482   0.165E-02
RMM:   8    -0.444025818616E+02   -0.48987E-06   -0.12206E-06  1449   0.395E-03
 Linear response G [H, r] |phi>, progress :
  Direction:   3
       N       E                     dE             d eps       ncg     rms
RMM:   1    -0.354560880366E+02   -0.35456E+02    0.26469E+02  1649   0.383E+01
RMM:   2    -0.405268594666E+02   -0.50708E+01   -0.54534E+00  1398   0.966E+00
RMM:   3    -0.406268872960E+02   -0.10003E+00   -0.42833E-01  1400   0.246E+00
RMM:   4    -0.406381735647E+02   -0.11286E-01   -0.25779E-02  1482   0.632E-01
RMM:   5    -0.406392325835E+02   -0.10590E-02   -0.36933E-03  1463   0.207E-01
RMM:   6    -0.406393388160E+02   -0.10623E-03   -0.20364E-04  1490   0.525E-02
RMM:   7    -0.406393471925E+02   -0.83765E-05   -0.31160E-05  1469   0.174E-02
RMM:   8    -0.406393478298E+02   -0.63728E-06   -0.14287E-06  1443   0.408E-03
 Linear response to external field (no local field effect), progress :
  Direction:   1
       N       E                     dE             d eps       ncg     rms          rms(c)
RMM:   1    -0.179455175387E+01   -0.17946E+01   -0.10324E+01  1724   0.289E+00
RMM:   2    -0.183533784764E+01   -0.40786E-01   -0.27640E-02  1388   0.593E-01
RMM:   3    -0.183631507656E+01   -0.97723E-03   -0.10152E-03  1397   0.109E-01
RMM:   4    -0.183635142949E+01   -0.36353E-04   -0.40549E-05  1406   0.239E-02
RMM:   5    -0.183635262854E+01   -0.11991E-05   -0.25867E-06  1409   0.619E-03
RMM:   6    -0.183635272005E+01   -0.91506E-07   -0.20077E-07  1392   0.168E-03
 change of polarisation eV/A/(eV/A) component  1 :     3.673    -1.462    -0.102
 dielectric tensor                  component  1 :     3.458    -0.978    -0.068
 Linear response to external field (no local field effect), progress :
  Direction:   2
       N       E                     dE             d eps       ncg     rms          rms(c)
RMM:   1    -0.214589771904E+01   -0.21459E+01   -0.12139E+01  1706   0.295E+00
RMM:   2    -0.221107920065E+01   -0.65181E-01   -0.34845E-02  1395   0.650E-01
RMM:   3    -0.221227157290E+01   -0.11924E-02   -0.13449E-03  1403   0.116E-01
RMM:   4    -0.221231888339E+01   -0.47310E-04   -0.49912E-05  1401   0.254E-02
RMM:   5    -0.221232029819E+01   -0.14148E-05   -0.29748E-06  1418   0.616E-03
RMM:   6    -0.221232039948E+01   -0.10129E-06   -0.18028E-07  1407   0.161E-03
 change of polarisation eV/A/(eV/A) component  2 :    -1.462     4.425     0.041
 dielectric tensor                  component  2 :    -0.978     3.961     0.028
 Linear response to external field (no local field effect), progress :
  Direction:   3
       N       E                     dE             d eps       ncg     rms          rms(c)
RMM:   1    -0.767216684825E+00   -0.76722E+00   -0.21849E+00  1652   0.229E+00
RMM:   2    -0.808466095896E+00   -0.41249E-01   -0.19786E-02  1379   0.560E-01
RMM:   3    -0.808917027794E+00   -0.45093E-03   -0.69539E-04  1347   0.907E-02
RMM:   4    -0.808932982803E+00   -0.15955E-04   -0.30012E-05  1399   0.221E-02
RMM:   5    -0.808933679914E+00   -0.69711E-06   -0.19836E-06  1422   0.512E-03
RMM:   6    -0.808933728264E+00   -0.48350E-07   -0.14006E-07  1391   0.149E-03
 change of polarisation eV/A/(eV/A) component  3 :    -0.102     0.041     1.618
 dielectric tensor                  component  3 :    -0.068     0.028     2.083
 Linear response to external field, progress :
  Direction:   1
       N       E                     dE             d eps       ncg     rms          rms(c)
RMM:   1    -0.196486207773E+01   -0.19649E+01   -0.11178E+01  3948   0.289E+00
RMM:   2    -0.202316206506E+01   -0.58300E-01   -0.31225E-02  3194   0.612E-01    0.226E+00
RMM:   3    -0.198719398454E+01    0.35968E-01   -0.57231E-03  2811   0.281E-01    0.197E+00
RMM:   4    -0.199183180245E+01   -0.46378E-02   -0.18013E-01  2760   0.152E+00    0.347E-01
RMM:   5    -0.200427569976E+01   -0.12444E-01   -0.35073E-03  2741   0.238E-01    0.128E-01
RMM:   6    -0.201097167820E+01   -0.66960E-02   -0.10110E-03  2828   0.119E-01    0.295E-02
RMM:   7    -0.201212482663E+01   -0.11531E-02   -0.47502E-05  3092   0.261E-02    0.166E-02
RMM:   8    -0.201402811337E+01   -0.19033E-02   -0.28974E-05  2843   0.188E-02    0.298E-03
RMM:   9    -0.201419468502E+01   -0.16657E-03   -0.95155E-07  3270   0.438E-03    0.220E-03
RMM:  10    -0.201425517691E+01   -0.60492E-04   -0.19756E-07  3097   0.230E-03    0.529E-04
RMM:  11    -0.201430917999E+01   -0.54003E-04    0.22468E-06  3014   0.695E-04    0.437E-04
RMM:  12    -0.201429486117E+01    0.14319E-04   -0.59513E-07  2473   0.352E-04    0.244E-05
RMM:  13    -0.201429453882E+01    0.32235E-06   -0.48722E-11  2109   0.190E-04    0.162E-05
 change of polarisation eV/A/(eV/A) component  1 :     3.766    -0.687    -0.028
 dielectric tensor                  component  1 :     3.520    -0.459    -0.019
 Linear response to external field, progress :
  Direction:   2
       N       E                     dE             d eps       ncg     rms          rms(c)
RMM:   1    -0.196985836129E+01   -0.19699E+01   -0.11228E+01  3987   0.284E+00
RMM:   2    -0.202326454036E+01   -0.53406E-01   -0.30306E-02  3269   0.602E-01    0.226E+00
RMM:   3    -0.198715602632E+01    0.36109E-01   -0.56586E-03  2859   0.280E-01    0.197E+00
RMM:   4    -0.199183777297E+01   -0.46817E-02   -0.18092E-01  2817   0.152E+00    0.347E-01
RMM:   5    -0.200476681331E+01   -0.12929E-01   -0.34522E-03  2773   0.238E-01    0.128E-01
RMM:   6    -0.201089806875E+01   -0.61313E-02   -0.10467E-03  2886   0.120E-01    0.294E-02
RMM:   7    -0.201208551286E+01   -0.11874E-02   -0.53095E-05  3167   0.266E-02    0.168E-02
RMM:   8    -0.201400479360E+01   -0.19193E-02   -0.41090E-05  2902   0.188E-02    0.305E-03
RMM:   9    -0.201413935725E+01   -0.13456E-03   -0.32984E-05  3394   0.376E-03    0.222E-03
RMM:  10    -0.201416156280E+01   -0.22206E-04   -0.63464E-06  3237   0.172E-03    0.126E-03
RMM:  11    -0.201428045123E+01   -0.11889E-03   -0.43383E-06  2922   0.162E-03    0.390E-04
RMM:  12    -0.201426414899E+01    0.16302E-04   -0.36293E-06  2606   0.349E-04    0.243E-04
RMM:  13    -0.201429027774E+01   -0.26129E-04    0.34637E-08  2636   0.354E-04    0.294E-05
RMM:  14    -0.201429154515E+01   -0.12674E-05   -0.27728E-11  1832   0.193E-04    0.202E-05
RMM:  15    -0.201429171035E+01   -0.16520E-06   -0.61150E-11  1693   0.197E-04    0.123E-05
 change of polarisation eV/A/(eV/A) component  2 :    -0.688     3.766    -0.000
 dielectric tensor                  component  2 :    -0.460     3.520    -0.000
 Linear response to external field, progress :
  Direction:   3
       N       E                     dE             d eps       ncg     rms          rms(c)
RMM:   1    -0.767216684825E+00   -0.76722E+00   -0.21849E+00  1652   0.229E+00
RMM:   2    -0.808466095896E+00   -0.41249E-01   -0.19786E-02  1379   0.560E-01    0.213E+00
RMM:   3    -0.219233477776E+00    0.58923E+00   -0.16182E-01  1159   0.850E-01    0.526E-01
RMM:   4    -0.162108983784E+00    0.57124E-01   -0.40101E-02  1210   0.408E-01    0.273E-01
RMM:   5    -0.155974977586E+00    0.61340E-02   -0.11431E-02  1165   0.321E-01    0.573E-02
RMM:   6    -0.156133520356E+00   -0.15854E-03   -0.70715E-04  1185   0.746E-02    0.486E-02
RMM:   7    -0.156335441492E+00   -0.20192E-03   -0.32999E-04  1252   0.598E-02    0.177E-02
RMM:   8    -0.156576743114E+00   -0.24130E-03   -0.90818E-05  1205   0.296E-02    0.101E-02
RMM:   9    -0.156567153365E+00    0.95897E-05   -0.36931E-06  1357   0.743E-03    0.316E-03
RMM:  10    -0.156569068308E+00   -0.19149E-05   -0.43172E-07  1269   0.259E-03    0.132E-03
RMM:  11    -0.156563151694E+00    0.59166E-05   -0.12517E-07  1253   0.125E-03    0.485E-04
RMM:  12    -0.156564472831E+00   -0.13211E-05   -0.21506E-08  1311   0.525E-04    0.804E-05
RMM:  13    -0.156564391391E+00    0.81440E-07   -0.89636E-11   944   0.162E-04    0.694E-05
 change of polarisation eV/A/(eV/A) component  3 :    -0.028     0.000     0.299
 dielectric tensor                  component  3 :    -0.019     0.000     1.200
 Born effective charges drift removed
