 vasp.6.4.2 20Jul23 (build Nov 14 2023 12:59:38) complex                        
  
 executed on             LinuxIFC date 2023.12.18  09:39:00
 running   16 mpi-ranks, on    1 nodes
 distrk:  each k-point on   16 cores,    1 groups
 distr:  one band on NCORE=   1 cores,   16 groups


--------------------------------------------------------------------------------------------------------


 INCAR:
   ENCUT = 234.789750
   ALGO = Normal
   NELM = 200
   NELMIN = 6
   NELMDL = -12
   EDIFF = 1.0E-6
   AMIX = 0.1
   BMIX = 0.0001
   PREC = Accurate
   IVDW = 0
   ISPIN = 1
   ADDGRID = .TRUE.
   LASPH = .TRUE.
   LEPSILON = .TRUE.
   NSW = 0
   EDIFFG = -0.010
   IBRION = 2
   ISIF = -1
   POTIM = 0.5
   STRESSTYPE = 2
   ISMEAR = 0
   SIGMA = 0.01
   LORBIT = 10
   NEDOS = 6001
   NWRITE = 1
   LWAVE = .FALSE.
   LCHARG = .FALSE.
   LPLANE = .TRUE.

 POTCAR:    PAW_PBE As_GW 20Mar2012               
 -----------------------------------------------------------------------------
|                                                                             |
|           W    W    AA    RRRRR   N    N  II  N    N   GGGG   !!!           |
|           W    W   A  A   R    R  NN   N  II  NN   N  G    G  !!!           |
|           W    W  A    A  R    R  N N  N  II  N N  N  G       !!!           |
|           W WW W  AAAAAA  RRRRR   N  N N  II  N  N N  G  GGG   !            |
|           WW  WW  A    A  R   R   N   NN  II  N   NN  G    G                |
|           W    W  A    A  R    R  N    N  II  N    N   GGGG   !!!           |
|                                                                             |
|     For optimal performance we recommend to set                             |
|       NCORE = 2 up to number-of-cores-per-socket                            |
|     NCORE specifies how many cores store one orbital (NPAR=cpu/NCORE).      |
|     This setting can greatly improve the performance of VASP for DFT.       |
|     The default, NCORE=1 might be grossly inefficient on modern             |
|     multi-core architectures or massively parallel machines. Do your        |
|     own testing! More info at https://www.vasp.at/wiki/index.php/NCORE      |
|     Unfortunately you need to use the default for GW and RPA                |
|     calculations (for HF NCORE is supported but not extensively tested      |
|     yet).                                                                   |
|                                                                             |
 -----------------------------------------------------------------------------

 POTCAR:    PAW_PBE As_GW 20Mar2012               
  local pseudopotential read in
  partial core-charges read in
  partial kinetic energy density read in
  kinetic energy density of atom read in
  atomic valenz-charges read in
  non local Contribution for L=           0  read in
    real space projection operators read in
  non local Contribution for L=           0  read in
    real space projection operators read in
  non local Contribution for L=           1  read in
    real space projection operators read in
  non local Contribution for L=           1  read in
    real space projection operators read in
  non local Contribution for L=           2  read in
    real space projection operators read in
    PAW grid and wavefunctions read in
 
   number of l-projection  operators is LMAX  =           5
   number of lm-projection operators is LMMAX =          13
 
  PAW_PBE As_GW 20Mar2012               :
 energy of atom  1       EATOM= -170.1867
 kinetic energy error for atom=    0.0047 (will be added to EATOM!!)
 
 
 POSCAR: pnictogen honeycomb monolayer
  positions in cartesian coordinates
  No initial velocities read in
 exchange correlation table for  LEXCH =        8
   RHO(1)=    0.500       N(1)  =     2000
   RHO(2)=  100.500       N(2)  =     4000
 


--------------------------------------------------------------------------------------------------------


 ion  position               nearest neighbor table
   1  0.667  0.333  0.304-   2 2.51   2 2.51   2 2.51
   2  0.333  0.667  0.362-   1 2.51   1 2.51   1 2.51
 
  LATTYP: Found a hexagonal cell.
 ALAT       =     3.6068925858
 C/A-ratio  =     6.6539270103
  
  Lattice vectors:
  
 A1 = (   3.6068925858,   0.0000000000,   0.0000000000)
 A2 = (  -1.8034462929,   3.1236606080,   0.0000000000)
 A3 = (   0.0000000000,   0.0000000000,  24.0000000000)


Analysis of symmetry for initial positions (statically):
=====================================================================
 Subroutine PRICEL returns:
 Original cell was already a primitive cell.
 

 Routine SETGRP: Setting up the symmetry group for a 
 hexagonal supercell.


 Subroutine GETGRP returns: Found 12 space group operations
 (whereof  6 operations were pure point group operations)
 out of a pool of 24 trial point group operations.


The static configuration has the point symmetry C_3v.
 The point group associated with its full space group is D_3d.


Analysis of symmetry for dynamics (positions and initial velocities):
=====================================================================
 Subroutine PRICEL returns:
 Original cell was already a primitive cell.
 

 Routine SETGRP: Setting up the symmetry group for a 
 hexagonal supercell.


 Subroutine GETGRP returns: Found 12 space group operations
 (whereof  6 operations were pure point group operations)
 out of a pool of 24 trial point group operations.


The dynamic configuration has the point symmetry C_3v.
 The point group associated with its full space group is D_3d.


 Subroutine INISYM returns: Found 12 space group operations
 (whereof  6 operations are pure point group operations),
 and found     1 'primitive' translations


----------------------------------------------------------------------------------------

                                     Primitive cell                                     

  volume of cell :     270.4010

  direct lattice vectors                    reciprocal lattice vectors
     3.606892586  0.000000000  0.000000000     0.277246959  0.160068606  0.000000000
    -1.803446293  3.123660608  0.000000000     0.000000000  0.320137213  0.000000000
     0.000000000  0.000000000 24.000000000     0.000000000  0.000000000  0.041666667

  length of vectors
     3.606892586  3.606892586 24.000000000     0.320137213  0.320137213  0.041666667

  position of ions in fractional coordinates (direct lattice)
     0.666666687  0.333333343  0.304228763
     0.333333343  0.666666686  0.362437924

  ion indices of the primitive-cell ions
   primitive index   ion index
                 1           1
                 2           2

----------------------------------------------------------------------------------------

 
 
 KPOINTS: kpoints                                 

Automatic generation of k-mesh.
 Grid dimensions read from file:
 generate k-points for:   13   13    1

 Generating k-lattice:

  Cartesian coordinates                     Fractional coordinates (reciprocal lattice)
     0.021326689  0.012312970  0.000000000     0.076923077  0.000000000  0.000000000
     0.000000000  0.024625939  0.000000000     0.000000000  0.076923077  0.000000000
     0.000000000  0.000000000  0.041666667     0.000000000  0.000000000  1.000000000

  Length of vectors
     0.024625939  0.024625939  0.041666667

  Shift w.r.t. Gamma in fractional coordinates (k-lattice)
     0.000000000  0.000000000  0.000000000

 
 Subroutine IBZKPT returns following result:
 ===========================================
 
 Found     21 irreducible k-points:
 
 Following reciprocal coordinates:
            Coordinates               Weight
  0.000000  0.000000  0.000000      1.000000
  0.076923  0.000000  0.000000      6.000000
  0.153846  0.000000  0.000000      6.000000
  0.230769 -0.000000  0.000000      6.000000
  0.307692  0.000000  0.000000      6.000000
  0.384615 -0.000000  0.000000      6.000000
  0.461538 -0.000000  0.000000      6.000000
  0.076923  0.076923  0.000000      6.000000
  0.153846  0.076923  0.000000     12.000000
  0.230769  0.076923  0.000000     12.000000
  0.307692  0.076923  0.000000     12.000000
  0.384615  0.076923  0.000000     12.000000
  0.461538  0.076923  0.000000      6.000000
  0.153846  0.153846  0.000000      6.000000
  0.230769  0.153846  0.000000     12.000000
  0.307692  0.153846  0.000000     12.000000
  0.384615  0.153846  0.000000     12.000000
  0.230769  0.230769  0.000000      6.000000
  0.307692  0.230769  0.000000     12.000000
  0.384615  0.230769  0.000000      6.000000
  0.307692  0.307692  0.000000      6.000000
 
 Following cartesian coordinates:
            Coordinates               Weight
  0.000000  0.000000  0.000000      1.000000
  0.021327  0.012313  0.000000      6.000000
  0.042653  0.024626  0.000000      6.000000
  0.063980  0.036939  0.000000      6.000000
  0.085307  0.049252  0.000000      6.000000
  0.106633  0.061565  0.000000      6.000000
  0.127960  0.073878  0.000000      6.000000
  0.021327  0.036939  0.000000      6.000000
  0.042653  0.049252  0.000000     12.000000
  0.063980  0.061565  0.000000     12.000000
  0.085307  0.073878  0.000000     12.000000
  0.106633  0.086191  0.000000     12.000000
  0.127960  0.098504  0.000000      6.000000
  0.042653  0.073878  0.000000      6.000000
  0.063980  0.086191  0.000000     12.000000
  0.085307  0.098504  0.000000     12.000000
  0.106633  0.110817  0.000000     12.000000
  0.063980  0.110817  0.000000      6.000000
  0.085307  0.123130  0.000000     12.000000
  0.106633  0.135443  0.000000      6.000000
  0.085307  0.147756  0.000000      6.000000
 
 
 Subroutine IBZKPT_HF returns following result:
 ==============================================
 
 Found    169 k-points in 1st BZ
 the following    169 k-points will be used (e.g. in the exchange kernel)
 Following reciprocal coordinates:   # in IRBZ
  0.000000  0.000000  0.000000    0.00591716   1 t-inv F
  0.076923  0.000000  0.000000    0.00591716   2 t-inv F
  0.153846  0.000000  0.000000    0.00591716   3 t-inv F
  0.230769 -0.000000  0.000000    0.00591716   4 t-inv F
  0.307692  0.000000  0.000000    0.00591716   5 t-inv F
  0.384615 -0.000000  0.000000    0.00591716   6 t-inv F
  0.461538 -0.000000  0.000000    0.00591716   7 t-inv F
  0.076923  0.076923  0.000000    0.00591716   8 t-inv F
  0.153846  0.076923  0.000000    0.00591716   9 t-inv F
  0.230769  0.076923  0.000000    0.00591716  10 t-inv F
  0.307692  0.076923  0.000000    0.00591716  11 t-inv F
  0.384615  0.076923  0.000000    0.00591716  12 t-inv F
  0.461538  0.076923  0.000000    0.00591716  13 t-inv F
  0.153846  0.153846  0.000000    0.00591716  14 t-inv F
  0.230769  0.153846  0.000000    0.00591716  15 t-inv F
  0.307692  0.153846  0.000000    0.00591716  16 t-inv F
  0.384615  0.153846  0.000000    0.00591716  17 t-inv F
  0.230769  0.230769  0.000000    0.00591716  18 t-inv F
  0.307692  0.230769  0.000000    0.00591716  19 t-inv F
  0.384615  0.230769  0.000000    0.00591716  20 t-inv F
  0.307692  0.307692  0.000000    0.00591716  21 t-inv F
 -0.076923  0.076923  0.000000    0.00591716   2 t-inv F
  0.000000 -0.076923  0.000000    0.00591716   2 t-inv F
 -0.076923  0.000000  0.000000    0.00591716   2 t-inv F
  0.076923 -0.076923  0.000000    0.00591716   2 t-inv F
  0.000000  0.076923  0.000000    0.00591716   2 t-inv F
 -0.153846  0.153846  0.000000    0.00591716   3 t-inv F
  0.000000 -0.153846  0.000000    0.00591716   3 t-inv F
 -0.153846  0.000000  0.000000    0.00591716   3 t-inv F
  0.153846 -0.153846  0.000000    0.00591716   3 t-inv F
  0.000000  0.153846  0.000000    0.00591716   3 t-inv F
 -0.230769  0.230769  0.000000    0.00591716   4 t-inv F
 -0.000000 -0.230769  0.000000    0.00591716   4 t-inv F
 -0.230769  0.000000  0.000000    0.00591716   4 t-inv F
  0.230769 -0.230769  0.000000    0.00591716   4 t-inv F
  0.000000  0.230769  0.000000    0.00591716   4 t-inv F
 -0.307692  0.307692  0.000000    0.00591716   5 t-inv F
  0.000000 -0.307692  0.000000    0.00591716   5 t-inv F
 -0.307692  0.000000  0.000000    0.00591716   5 t-inv F
  0.307692 -0.307692  0.000000    0.00591716   5 t-inv F
  0.000000  0.307692  0.000000    0.00591716   5 t-inv F
 -0.384615  0.384615  0.000000    0.00591716   6 t-inv F
 -0.000000 -0.384615  0.000000    0.00591716   6 t-inv F
 -0.384615  0.000000  0.000000    0.00591716   6 t-inv F
  0.384615 -0.384615  0.000000    0.00591716   6 t-inv F
  0.000000  0.384615  0.000000    0.00591716   6 t-inv F
 -0.461538  0.461538  0.000000    0.00591716   7 t-inv F
 -0.000000 -0.461538  0.000000    0.00591716   7 t-inv F
 -0.461538  0.000000  0.000000    0.00591716   7 t-inv F
  0.461538 -0.461538  0.000000    0.00591716   7 t-inv F
  0.000000  0.461538  0.000000    0.00591716   7 t-inv F
 -0.153846  0.076923  0.000000    0.00591716   8 t-inv F
  0.076923 -0.153846  0.000000    0.00591716   8 t-inv F
 -0.076923  0.153846  0.000000    0.00591716   8 t-inv F
  0.153846 -0.076923  0.000000    0.00591716   8 t-inv F
 -0.076923 -0.076923  0.000000    0.00591716   8 t-inv F
 -0.230769  0.153846  0.000000    0.00591716   9 t-inv F
  0.076923 -0.230769  0.000000    0.00591716   9 t-inv F
 -0.153846  0.230769  0.000000    0.00591716   9 t-inv F
  0.230769 -0.076923  0.000000    0.00591716   9 t-inv F
 -0.076923 -0.153846  0.000000    0.00591716   9 t-inv F
 -0.153846 -0.076923  0.000000    0.00591716   9 t-inv F
  0.230769 -0.153846  0.000000    0.00591716   9 t-inv F
 -0.076923  0.230769  0.000000    0.00591716   9 t-inv F
  0.153846 -0.230769  0.000000    0.00591716   9 t-inv F
 -0.230769  0.076923  0.000000    0.00591716   9 t-inv F
  0.076923  0.153846  0.000000    0.00591716   9 t-inv F
 -0.307692  0.230769  0.000000    0.00591716  10 t-inv F
  0.076923 -0.307692  0.000000    0.00591716  10 t-inv F
 -0.230769  0.307692  0.000000    0.00591716  10 t-inv F
  0.307692 -0.076923  0.000000    0.00591716  10 t-inv F
 -0.076923 -0.230769  0.000000    0.00591716  10 t-inv F
 -0.230769 -0.076923  0.000000    0.00591716  10 t-inv F
  0.307692 -0.230769  0.000000    0.00591716  10 t-inv F
 -0.076923  0.307692  0.000000    0.00591716  10 t-inv F
  0.230769 -0.307692  0.000000    0.00591716  10 t-inv F
 -0.307692  0.076923  0.000000    0.00591716  10 t-inv F
  0.076923  0.230769  0.000000    0.00591716  10 t-inv F
 -0.384615  0.307692  0.000000    0.00591716  11 t-inv F
  0.076923 -0.384615  0.000000    0.00591716  11 t-inv F
 -0.307692  0.384615  0.000000    0.00591716  11 t-inv F
  0.384615 -0.076923  0.000000    0.00591716  11 t-inv F
 -0.076923 -0.307692  0.000000    0.00591716  11 t-inv F
 -0.307692 -0.076923  0.000000    0.00591716  11 t-inv F
  0.384615 -0.307692  0.000000    0.00591716  11 t-inv F
 -0.076923  0.384615  0.000000    0.00591716  11 t-inv F
  0.307692 -0.384615  0.000000    0.00591716  11 t-inv F
 -0.384615  0.076923  0.000000    0.00591716  11 t-inv F
  0.076923  0.307692  0.000000    0.00591716  11 t-inv F
 -0.461538  0.384615  0.000000    0.00591716  12 t-inv F
  0.076923 -0.461538  0.000000    0.00591716  12 t-inv F
 -0.384615  0.461538  0.000000    0.00591716  12 t-inv F
  0.461538 -0.076923  0.000000    0.00591716  12 t-inv F
 -0.076923 -0.384615  0.000000    0.00591716  12 t-inv F
 -0.384615 -0.076923  0.000000    0.00591716  12 t-inv F
  0.461538 -0.384615  0.000000    0.00591716  12 t-inv F
 -0.076923  0.461538  0.000000    0.00591716  12 t-inv F
  0.384615 -0.461538  0.000000    0.00591716  12 t-inv F
 -0.461538  0.076923  0.000000    0.00591716  12 t-inv F
  0.076923  0.384615  0.000000    0.00591716  12 t-inv F
 -0.538462  0.461538  0.000000    0.00591716  13 t-inv F
  0.076923 -0.538462  0.000000    0.00591716  13 t-inv F
 -0.461538  0.538462  0.000000    0.00591716  13 t-inv F
  0.538462 -0.076923  0.000000    0.00591716  13 t-inv F
 -0.076923 -0.461538  0.000000    0.00591716  13 t-inv F
 -0.307692  0.153846  0.000000    0.00591716  14 t-inv F
  0.153846 -0.307692  0.000000    0.00591716  14 t-inv F
 -0.153846  0.307692  0.000000    0.00591716  14 t-inv F
  0.307692 -0.153846  0.000000    0.00591716  14 t-inv F
 -0.153846 -0.153846  0.000000    0.00591716  14 t-inv F
 -0.384615  0.230769  0.000000    0.00591716  15 t-inv F
  0.153846 -0.384615  0.000000    0.00591716  15 t-inv F
 -0.230769  0.384615  0.000000    0.00591716  15 t-inv F
  0.384615 -0.153846  0.000000    0.00591716  15 t-inv F
 -0.153846 -0.230769  0.000000    0.00591716  15 t-inv F
 -0.230769 -0.153846  0.000000    0.00591716  15 t-inv F
  0.384615 -0.230769  0.000000    0.00591716  15 t-inv F
 -0.153846  0.384615  0.000000    0.00591716  15 t-inv F
  0.230769 -0.384615  0.000000    0.00591716  15 t-inv F
 -0.384615  0.153846  0.000000    0.00591716  15 t-inv F
  0.153846  0.230769  0.000000    0.00591716  15 t-inv F
 -0.461538  0.307692  0.000000    0.00591716  16 t-inv F
  0.153846 -0.461538  0.000000    0.00591716  16 t-inv F
 -0.307692  0.461538  0.000000    0.00591716  16 t-inv F
  0.461538 -0.153846  0.000000    0.00591716  16 t-inv F
 -0.153846 -0.307692  0.000000    0.00591716  16 t-inv F
 -0.307692 -0.153846  0.000000    0.00591716  16 t-inv F
  0.461538 -0.307692  0.000000    0.00591716  16 t-inv F
 -0.153846  0.461538  0.000000    0.00591716  16 t-inv F
  0.307692 -0.461538  0.000000    0.00591716  16 t-inv F
 -0.461538  0.153846  0.000000    0.00591716  16 t-inv F
  0.153846  0.307692  0.000000    0.00591716  16 t-inv F
 -0.538462  0.384615  0.000000    0.00591716  17 t-inv F
  0.153846 -0.538462  0.000000    0.00591716  17 t-inv F
 -0.384615  0.538462  0.000000    0.00591716  17 t-inv F
  0.538462 -0.153846  0.000000    0.00591716  17 t-inv F
 -0.153846 -0.384615  0.000000    0.00591716  17 t-inv F
 -0.384615 -0.153846  0.000000    0.00591716  17 t-inv F
  0.538462 -0.384615  0.000000    0.00591716  17 t-inv F
 -0.153846  0.538462  0.000000    0.00591716  17 t-inv F
  0.384615 -0.538462  0.000000    0.00591716  17 t-inv F
 -0.538462  0.153846  0.000000    0.00591716  17 t-inv F
  0.153846  0.384615  0.000000    0.00591716  17 t-inv F
 -0.461538  0.230769  0.000000    0.00591716  18 t-inv F
  0.230769 -0.461538  0.000000    0.00591716  18 t-inv F
 -0.230769  0.461538  0.000000    0.00591716  18 t-inv F
  0.461538 -0.230769  0.000000    0.00591716  18 t-inv F
 -0.230769 -0.230769  0.000000    0.00591716  18 t-inv F
 -0.538462  0.307692  0.000000    0.00591716  19 t-inv F
  0.230769 -0.538462  0.000000    0.00591716  19 t-inv F
 -0.307692  0.538462  0.000000    0.00591716  19 t-inv F
  0.538462 -0.230769  0.000000    0.00591716  19 t-inv F
 -0.230769 -0.307692  0.000000    0.00591716  19 t-inv F
 -0.307692 -0.230769  0.000000    0.00591716  19 t-inv F
  0.538462 -0.307692  0.000000    0.00591716  19 t-inv F
 -0.230769  0.538462  0.000000    0.00591716  19 t-inv F
  0.307692 -0.538462  0.000000    0.00591716  19 t-inv F
 -0.538462  0.230769  0.000000    0.00591716  19 t-inv F
  0.230769  0.307692  0.000000    0.00591716  19 t-inv F
 -0.615385  0.384615  0.000000    0.00591716  20 t-inv F
  0.230769 -0.615385  0.000000    0.00591716  20 t-inv F
 -0.384615  0.615385  0.000000    0.00591716  20 t-inv F
  0.615385 -0.230769  0.000000    0.00591716  20 t-inv F
 -0.230769 -0.384615  0.000000    0.00591716  20 t-inv F
 -0.615385  0.307692  0.000000    0.00591716  21 t-inv F
  0.307692 -0.615385  0.000000    0.00591716  21 t-inv F
 -0.307692  0.615385  0.000000    0.00591716  21 t-inv F
  0.615385 -0.307692  0.000000    0.00591716  21 t-inv F
 -0.307692 -0.307692  0.000000    0.00591716  21 t-inv F


--------------------------------------------------------------------------------------------------------




 Dimension of arrays:
   k-points           NKPTS =     21   k-points in BZ     NKDIM =     21   number of bands    NBANDS=     16
   number of dos      NEDOS =   6001   number of ions     NIONS =      2
   non local maximal  LDIM  =      5   non local SUM 2l+1 LMDIM =     13
   total plane-waves  NPLWV =  38880
   max r-space proj   IRMAX =      1   max aug-charges    IRDMAX=  47793
   dimension x,y,z NGX =    18 NGY =   18 NGZ =  120
   dimension x,y,z NGXF=    36 NGYF=   36 NGZF=  240
   support grid    NGXF=    72 NGYF=   72 NGZF=  480
   ions per type =               2
   NGX,Y,Z   is equivalent  to a cutoff of   8.30,  8.30,  8.31 a.u.
   NGXF,Y,Z  is equivalent  to a cutoff of  16.59, 16.59, 16.62 a.u.

 SYSTEM =  unknown system                          
 POSCAR =  pnictogen honeycomb monolayer           

 Startparameter for this run:
   NWRITE =      1    write-flag & timer
   PREC   = accura    normal or accurate (medium, high low for compatibility)
   ISTART =      0    job   : 0-new  1-cont  2-samecut
   ICHARG =      2    charge: 1-file 2-atom 10-const
   ISPIN  =      1    spin polarized calculation?
   LNONCOLLINEAR =      F non collinear calculations
   LSORBIT =      F    spin-orbit coupling
   INIWAV =      1    electr: 0-lowe 1-rand  2-diag
   LASPH  =      T    aspherical Exc in radial PAW
 Electronic Relaxation 1
   ENCUT  =  234.8 eV  17.26 Ry    4.15 a.u.   4.51  4.51 29.99*2*pi/ulx,y,z
   ENINI  =  234.8     initial cutoff
   ENAUG  =  462.8 eV  augmentation charge cutoff
   NELM   =    200;   NELMIN=  6; NELMDL=-12     # of ELM steps 
   EDIFF  = 0.1E-05   stopping-criterion for ELM
   LREAL  =      F    real-space projection
   NLSPLINE    = F    spline interpolate recip. space projectors
   LCOMPAT=      F    compatible to vasp.4.4
   GGA_COMPAT  = T    GGA compatible to vasp.4.4-vasp.4.6
   LMAXPAW     = -100 max onsite density
   LMAXMIX     =    2 max onsite mixed and CHGCAR
   VOSKOWN=      0    Vosko Wilk Nusair interpolation
   ROPT   =    0.00000
 Ionic relaxation
   EDIFFG = -.1E-01   stopping-criterion for IOM
   NSW    =      0    number of steps for IOM
   NBLOCK =      1;   KBLOCK =      1    inner block; outer block 
   IBRION =     -1    ionic relax: 0-MD 1-quasi-New 2-CG
   NFREE  =      1    steps in history (QN), initial steepest desc. (CG)
   ISIF   =     -1    stress and relaxation
   IWAVPR =     10    prediction:  0-non 1-charg 2-wave 3-comb
   ISYM   =      2    0-nonsym 1-usesym 2-fastsym
   LCORR  =      T    Harris-Foulkes like correction to forces

   POTIM  = 0.5000    time-step for ionic-motion
   TEIN   =    0.0    initial temperature
   TEBEG  =    0.0;   TEEND  =   0.0 temperature during run
   SMASS  =  -3.00    Nose mass-parameter (am)
   estimated Nose-frequenzy (Omega)   =  0.10E-29 period in steps = 0.13E+47 mass=  -0.297E-27a.u.
   SCALEE = 1.0000    scale energy and forces
   NPACO  =    256;   APACO  = 10.0  distance and # of slots for P.C.
   PSTRESS=    0.0 pullay stress

  Mass of Ions in am
   POMASS =  74.92
  Ionic Valenz
   ZVAL   =   5.00
  Atomic Wigner-Seitz radii
   RWIGS  =  -1.00
  virtual crystal weights 
   VCA    =   1.00
   NELECT =      10.0000    total number of electrons
   NUPDOWN=      -1.0000    fix difference up-down

 DOS related values:
   EMIN   =  10.00;   EMAX   =-10.00  energy-range for DOS
   EFERMI =   0.00;   METHOD = LEGACY      
   ISMEAR =     0;   SIGMA  =   0.01  broadening in eV -4-tet -1-fermi 0-gaus

 Electronic relaxation 2 (details)
   IALGO  =     38    algorithm
   LDIAG  =      T    sub-space diagonalisation (order eigenvalues)
   LSUBROT=      F    optimize rotation matrix (better conditioning)
   TURBO    =      0    0=normal 1=particle mesh
   IRESTART =      0    0=no restart 2=restart with 2 vectors
   NREBOOT  =      0    no. of reboots
   NMIN     =      0    reboot dimension
   EREF     =   0.00    reference energy to select bands
   IMIX   =      4    mixing-type and parameters
     AMIX     =   0.10;   BMIX     =  0.00
     AMIX_MAG =   0.40;   BMIX_MAG =  0.00
     AMIN     =   0.10
     WC   =   100.;   INIMIX=   1;  MIXPRE=   1;  MAXMIX= -45

 Intra band minimization:
   WEIMIN = 0.0000     energy-eigenvalue tresh-hold
   EBREAK =  0.16E-07  absolut break condition
   DEPER  =   0.30     relativ break condition  

   TIME   =   0.40     timestep for ELM

  volume/ion in A,a.u.               =     135.20       912.38
  Fermi-wavevector in a.u.,A,eV,Ry     =   0.545430  1.030713  4.047645  0.297493
  Thomas-Fermi vector in A             =   1.574792
 
 Write flags
   LWAVE        =      F    write WAVECAR
   LDOWNSAMPLE  =      F    k-point downsampling of WAVECAR
   LCHARG       =      F    write CHGCAR
   LVTOT        =      F    write LOCPOT, total local potential
   LVHAR        =      F    write LOCPOT, Hartree potential only
   LELF         =      F    write electronic localiz. function (ELF)
   LORBIT       =     10    0 simple, 1 ext, 2 COOP (PROOUT), +10 PAW based schemes


 Dipole corrections
   LMONO  =      F    monopole corrections only (constant potential shift)
   LDIPOL =      F    correct potential (dipole corrections)
   IDIPOL =      0    1-x, 2-y, 3-z, 4-all directions 
   EPSILON=  1.0000000 bulk dielectric constant

 Exchange correlation treatment:
   GGA     =    --    GGA type
   LEXCH   =     8    internal setting for exchange type
   LIBXC   =     F    Libxc                    
   VOSKOWN =     0    Vosko Wilk Nusair interpolation
   LHFCALC =     F    Hartree Fock is set to
   LHFONE  =     F    Hartree Fock one center treatment
   AEXX    =    0.0000 exact exchange contribution

 Linear response parameters
   LEPSILON=     T    determine dielectric tensor
   LRPA    =     F    only Hartree local field effects (RPA)
   LNABLA  =     F    use nabla operator in PAW spheres
   LVEL    =     F    velocity operator in full k-point grid
   CSHIFT  =0.1000    complex shift for real part using Kramers Kronig
   OMEGAMAX=  -1.0    maximum frequency
   DEG_THRESHOLD= 0.2000000E-02 threshold for treating states as degnerate
   RTIME   =   -0.100 relaxation time in fs
  (WPLASMAI=    0.000 imaginary part of plasma frequency in eV, 0.658/RTIME)
   DFIELD  = 0.0000000 0.0000000 0.0000000 field for delta impulse in time
 
  Optional k-point grid parameters
   LKPOINTS_OPT  =     F    use optional k-point grid
   KPOINTS_OPT_MODE=     1    mode for optional k-point grid
 
 Orbital magnetization related:
   ORBITALMAG=     F  switch on orbital magnetization
   LCHIMAG   =     F  perturbation theory with respect to B field
   DQ        =  0.001000  dq finite difference perturbation B field
   LLRAUG    =     F  two centre corrections for induced B field
   LBONE     =     F  B-component reconstruction in AE one-centre
   LVGVCALC  =     T  calculate vGv susceptibility
   LVGVAPPL  =     F  apply vGv susceptibility instead of pGv for G=0

 Random number generation:
   RANDOM_GENERATOR = DEFAULT
   PCG_SEED         = not used


--------------------------------------------------------------------------------------------------------


 Static calculation
 charge density and potential will be updated during run
 non-spin polarized calculation
 Variant of blocked Davidson
 Davidson routine will perform the subspace rotation
 perform sub-space diagonalisation
    after iterative eigenvector-optimisation
 modified Broyden-mixing scheme, WC =      100.0
 initial mixing is a Kerker type mixing with AMIX =  0.1000 and BMIX =      0.0001
 Hartree-type preconditioning will be used
 using additional bands           11
 reciprocal scheme for non local part
 use partial core corrections
 calculate Harris-corrections to forces 
   (improved forces if not selfconsistent)
 use gradient corrections 
 use of overlap-Matrix (Vanderbilt PP)
 Gauss-broadening in eV      SIGMA  =   0.01


--------------------------------------------------------------------------------------------------------


  energy-cutoff  :      234.79
  volume of cell :      270.40
      direct lattice vectors                 reciprocal lattice vectors
     3.606892586  0.000000000  0.000000000     0.277246959  0.160068606  0.000000000
    -1.803446293  3.123660608  0.000000000     0.000000000  0.320137213  0.000000000
     0.000000000  0.000000000 24.000000000     0.000000000  0.000000000  0.041666667

  length of vectors
     3.606892586  3.606892586 24.000000000     0.320137213  0.320137213  0.041666667


 
 k-points in units of 2pi/SCALE and weight: kpoints                                 
   0.00000000  0.00000000  0.00000000       0.006
   0.02132669  0.01231297  0.00000000       0.036
   0.04265338  0.02462594  0.00000000       0.036
   0.06398007  0.03693891  0.00000000       0.036
   0.08530676  0.04925188  0.00000000       0.036
   0.10663345  0.06156485  0.00000000       0.036
   0.12796013  0.07387782  0.00000000       0.036
   0.02132669  0.03693891  0.00000000       0.036
   0.04265338  0.04925188  0.00000000       0.071
   0.06398007  0.06156485  0.00000000       0.071
   0.08530676  0.07387782  0.00000000       0.071
   0.10663345  0.08619079  0.00000000       0.071
   0.12796013  0.09850376  0.00000000       0.036
   0.04265338  0.07387782  0.00000000       0.036
   0.06398007  0.08619079  0.00000000       0.071
   0.08530676  0.09850376  0.00000000       0.071
   0.10663345  0.11081673  0.00000000       0.071
   0.06398007  0.11081673  0.00000000       0.036
   0.08530676  0.12312970  0.00000000       0.071
   0.10663345  0.13544267  0.00000000       0.036
   0.08530676  0.14775564  0.00000000       0.036
 
 k-points in reciprocal lattice and weights: kpoints                                 
   0.00000000  0.00000000  0.00000000       0.006
   0.07692308  0.00000000  0.00000000       0.036
   0.15384615  0.00000000  0.00000000       0.036
   0.23076923 -0.00000000  0.00000000       0.036
   0.30769231  0.00000000  0.00000000       0.036
   0.38461538 -0.00000000  0.00000000       0.036
   0.46153846 -0.00000000  0.00000000       0.036
   0.07692308  0.07692308  0.00000000       0.036
   0.15384615  0.07692308  0.00000000       0.071
   0.23076923  0.07692308  0.00000000       0.071
   0.30769231  0.07692308  0.00000000       0.071
   0.38461538  0.07692308  0.00000000       0.071
   0.46153846  0.07692308  0.00000000       0.036
   0.15384615  0.15384615  0.00000000       0.036
   0.23076923  0.15384615  0.00000000       0.071
   0.30769231  0.15384615  0.00000000       0.071
   0.38461538  0.15384615  0.00000000       0.071
   0.23076923  0.23076923  0.00000000       0.036
   0.30769231  0.23076923  0.00000000       0.071
   0.38461538  0.23076923  0.00000000       0.036
   0.30769231  0.30769231  0.00000000       0.036
 
 position of ions in fractional coordinates (direct lattice) 
   0.66666669  0.33333334  0.30422876
   0.33333334  0.66666669  0.36243792
 
 position of ions in cartesian coordinates  (Angst):
   1.80344635  1.04122023  7.30149031
   0.00000000  2.08244047  8.69851017
 


--------------------------------------------------------------------------------------------------------


 k-point   1 :   0.0000 0.0000 0.0000  plane waves:    2237
 k-point   2 :   0.0769 0.0000 0.0000  plane waves:    2227
 k-point   3 :   0.1538 0.0000 0.0000  plane waves:    2242
 k-point   4 :   0.2308-0.0000 0.0000  plane waves:    2242
 k-point   5 :   0.3077 0.0000 0.0000  plane waves:    2208
 k-point   6 :   0.3846-0.0000 0.0000  plane waves:    2206
 k-point   7 :   0.4615-0.0000 0.0000  plane waves:    2194
 k-point   8 :   0.0769 0.0769 0.0000  plane waves:    2245
 k-point   9 :   0.1538 0.0769 0.0000  plane waves:    2241
 k-point  10 :   0.2308 0.0769 0.0000  plane waves:    2235
 k-point  11 :   0.3077 0.0769 0.0000  plane waves:    2200
 k-point  12 :   0.3846 0.0769 0.0000  plane waves:    2197
 k-point  13 :   0.4615 0.0769 0.0000  plane waves:    2188
 k-point  14 :   0.1538 0.1538 0.0000  plane waves:    2233
 k-point  15 :   0.2308 0.1538 0.0000  plane waves:    2209
 k-point  16 :   0.3077 0.1538 0.0000  plane waves:    2200
 k-point  17 :   0.3846 0.1538 0.0000  plane waves:    2184
 k-point  18 :   0.2308 0.2308 0.0000  plane waves:    2177
 k-point  19 :   0.3077 0.2308 0.0000  plane waves:    2182
 k-point  20 :   0.3846 0.2308 0.0000  plane waves:    2190
 k-point  21 :   0.3077 0.3077 0.0000  plane waves:    2194

 maximum and minimum number of plane-waves per node :      2245     2177

 maximum number of plane-waves:      2245
 maximum index in each direction: 
   IXMAX=    4   IYMAX=    4   IZMAX=   29
   IXMIN=   -4   IYMIN=   -4   IZMIN=  -29


 serial   3D FFT for wavefunctions
 parallel 3D FFT for charge:
    minimum data exchange during FFTs selected (reduces bandwidth)


 total amount of memory used by VASP MPI-rank0    41905. kBytes
=======================================================================

   base      :      30000. kBytes
   nonl-proj :       4999. kBytes
   fftplans  :       3311. kBytes
   grid      :       2811. kBytes
   one-center:         16. kBytes
   wavefun   :        768. kBytes
 
     INWAV:  cpu time      0.0000: real time      0.0000
 Broyden mixing: mesh for mixing (old mesh)
   NGX =  9   NGY =  9   NGZ = 59
  (NGX  = 36   NGY  = 36   NGZ  =240)
  gives a total of   4779 points

 initial charge density was supplied:
 charge density of overlapping atoms calculated
 number of electron      10.0000000 magnetization 
 keeping initial charge density in first step


--------------------------------------------------------------------------------------------------------


 Maximum index for augmentation-charges         3084 (set IRDMAX)


--------------------------------------------------------------------------------------------------------


 First call to EWALD:  gamma=   0.274
 Maximum number of real-space cells 5x 5x 1
 Maximum number of reciprocal cells 2x 2x 9

    FEWALD:  cpu time      0.0013: real time      0.0013


--------------------------------------- Ionic step        1  -------------------------------------------




--------------------------------------- Iteration      1(   1)  ---------------------------------------


    POTLOK:  cpu time      0.0122: real time      0.0122
    SETDIJ:  cpu time      0.1513: real time      0.1514
     EDDAV:  cpu time      0.1165: real time      0.1165
       DOS:  cpu time      0.0010: real time      0.0010
    --------------------------------------------
      LOOP:  cpu time      0.2809: real time      0.2811

 eigenvalue-minimisations  :   672
 total energy-change (2. order) : 0.2948597E+02  (-0.2369634E+03)
 number of electron      10.0000000 magnetization 
 augmentation part       10.0000000 magnetization 

 Free energy of the ion-electron system (eV)
  ---------------------------------------------------
  alpha Z        PSCENC =         3.50922535
  Ewald energy   TEWEN  =       905.41950464
  -Hartree energ DENC   =     -1181.46406637
  -exchange      EXHF   =         0.00000000
  -V(xc)+E(xc)   XCENC  =       -23.94413354
  PAW double counting   =       294.12882363     -251.25503797
  entropy T*S    EENTRO =        -0.00012553
  eigenvalues    EBANDS =       -57.27215896
  atomic energy  EATOM  =       340.36393574
  Solvation  Ediel_sol  =         0.00000000
  ---------------------------------------------------
  free energy    TOTEN  =        29.48596699 eV

  energy without entropy =       29.48609252  energy(sigma->0) =       29.48602976


--------------------------------------------------------------------------------------------------------




--------------------------------------- Iteration      1(   2)  ---------------------------------------


     EDDAV:  cpu time      0.1665: real time      0.1678
       DOS:  cpu time      0.0003: real time      0.0003
    --------------------------------------------
      LOOP:  cpu time      0.1668: real time      0.1681

 eigenvalue-minimisations  :   992
 total energy-change (2. order) :-0.3766159E+02  (-0.3711580E+02)
 number of electron      10.0000000 magnetization 
 augmentation part       10.0000000 magnetization 

 Free energy of the ion-electron system (eV)
  ---------------------------------------------------
  alpha Z        PSCENC =         3.50922535
  Ewald energy   TEWEN  =       905.41950464
  -Hartree energ DENC   =     -1181.46406637
  -exchange      EXHF   =         0.00000000
  -V(xc)+E(xc)   XCENC  =       -23.94413354
  PAW double counting   =       294.12882363     -251.25503797
  entropy T*S    EENTRO =        -0.00000000
  eigenvalues    EBANDS =       -94.93387441
  atomic energy  EATOM  =       340.36393574
  Solvation  Ediel_sol  =         0.00000000
  ---------------------------------------------------
  free energy    TOTEN  =        -8.17562293 eV

  energy without entropy =       -8.17562293  energy(sigma->0) =       -8.17562293


--------------------------------------------------------------------------------------------------------




--------------------------------------- Iteration      1(   3)  ---------------------------------------


     EDDAV:  cpu time      0.1203: real time      0.1203
       DOS:  cpu time      0.0003: real time      0.0003
    --------------------------------------------
      LOOP:  cpu time      0.1206: real time      0.1207

 eigenvalue-minimisations  :   720
 total energy-change (2. order) :-0.1190813E+01  (-0.1190813E+01)
 number of electron      10.0000000 magnetization 
 augmentation part       10.0000000 magnetization 

 Free energy of the ion-electron system (eV)
  ---------------------------------------------------
  alpha Z        PSCENC =         3.50922535
  Ewald energy   TEWEN  =       905.41950464
  -Hartree energ DENC   =     -1181.46406637
  -exchange      EXHF   =         0.00000000
  -V(xc)+E(xc)   XCENC  =       -23.94413354
  PAW double counting   =       294.12882363     -251.25503797
  entropy T*S    EENTRO =        -0.00000000
  eigenvalues    EBANDS =       -96.12468761
  atomic energy  EATOM  =       340.36393574
  Solvation  Ediel_sol  =         0.00000000
  ---------------------------------------------------
  free energy    TOTEN  =        -9.36643613 eV

  energy without entropy =       -9.36643613  energy(sigma->0) =       -9.36643613


--------------------------------------------------------------------------------------------------------




--------------------------------------- Iteration      1(   4)  ---------------------------------------


     EDDAV:  cpu time      0.2204: real time      0.2205
       DOS:  cpu time      0.0003: real time      0.0003
    --------------------------------------------
      LOOP:  cpu time      0.2207: real time      0.2208

 eigenvalue-minimisations  :  1248
 total energy-change (2. order) :-0.3582288E-01  (-0.3582288E-01)
 number of electron      10.0000000 magnetization 
 augmentation part       10.0000000 magnetization 

 Free energy of the ion-electron system (eV)
  ---------------------------------------------------
  alpha Z        PSCENC =         3.50922535
  Ewald energy   TEWEN  =       905.41950464
  -Hartree energ DENC   =     -1181.46406637
  -exchange      EXHF   =         0.00000000
  -V(xc)+E(xc)   XCENC  =       -23.94413354
  PAW double counting   =       294.12882363     -251.25503797
  entropy T*S    EENTRO =        -0.00000000
  eigenvalues    EBANDS =       -96.16051049
  atomic energy  EATOM  =       340.36393574
  Solvation  Ediel_sol  =         0.00000000
  ---------------------------------------------------
  free energy    TOTEN  =        -9.40225901 eV

  energy without entropy =       -9.40225901  energy(sigma->0) =       -9.40225901


--------------------------------------------------------------------------------------------------------




--------------------------------------- Iteration      1(   5)  ---------------------------------------


     EDDAV:  cpu time      0.1346: real time      0.1347
       DOS:  cpu time      0.0003: real time      0.0003
    --------------------------------------------
      LOOP:  cpu time      0.1350: real time      0.1350

 eigenvalue-minimisations  :   800
 total energy-change (2. order) :-0.2225974E-03  (-0.2225976E-03)
 number of electron      10.0000000 magnetization 
 augmentation part       10.0000000 magnetization 

 Free energy of the ion-electron system (eV)
  ---------------------------------------------------
  alpha Z        PSCENC =         3.50922535
  Ewald energy   TEWEN  =       905.41950464
  -Hartree energ DENC   =     -1181.46406637
  -exchange      EXHF   =         0.00000000
  -V(xc)+E(xc)   XCENC  =       -23.94413354
  PAW double counting   =       294.12882363     -251.25503797
  entropy T*S    EENTRO =        -0.00000000
  eigenvalues    EBANDS =       -96.16073309
  atomic energy  EATOM  =       340.36393574
  Solvation  Ediel_sol  =         0.00000000
  ---------------------------------------------------
  free energy    TOTEN  =        -9.40248161 eV

  energy without entropy =       -9.40248161  energy(sigma->0) =       -9.40248161


--------------------------------------------------------------------------------------------------------




--------------------------------------- Iteration      1(   6)  ---------------------------------------


     EDDAV:  cpu time      0.2085: real time      0.2086
       DOS:  cpu time      0.0003: real time      0.0003
    --------------------------------------------
      LOOP:  cpu time      0.2088: real time      0.2089

 eigenvalue-minimisations  :  1200
 total energy-change (2. order) :-0.3079634E-05  (-0.3079684E-05)
 number of electron      10.0000000 magnetization 
 augmentation part       10.0000000 magnetization 

 Free energy of the ion-electron system (eV)
  ---------------------------------------------------
  alpha Z        PSCENC =         3.50922535
  Ewald energy   TEWEN  =       905.41950464
  -Hartree energ DENC   =     -1181.46406637
  -exchange      EXHF   =         0.00000000
  -V(xc)+E(xc)   XCENC  =       -23.94413354
  PAW double counting   =       294.12882363     -251.25503797
  entropy T*S    EENTRO =        -0.00000000
  eigenvalues    EBANDS =       -96.16073617
  atomic energy  EATOM  =       340.36393574
  Solvation  Ediel_sol  =         0.00000000
  ---------------------------------------------------
  free energy    TOTEN  =        -9.40248469 eV

  energy without entropy =       -9.40248469  energy(sigma->0) =       -9.40248469


--------------------------------------------------------------------------------------------------------




--------------------------------------- Iteration      1(   7)  ---------------------------------------


     EDDAV:  cpu time      0.1687: real time      0.1688
       DOS:  cpu time      0.0003: real time      0.0003
    --------------------------------------------
      LOOP:  cpu time      0.1690: real time      0.1691

 eigenvalue-minimisations  :   976
 total energy-change (2. order) :-0.1731894E-07  (-0.1733287E-07)
 number of electron      10.0000000 magnetization 
 augmentation part       10.0000000 magnetization 

 Free energy of the ion-electron system (eV)
  ---------------------------------------------------
  alpha Z        PSCENC =         3.50922535
  Ewald energy   TEWEN  =       905.41950464
  -Hartree energ DENC   =     -1181.46406637
  -exchange      EXHF   =         0.00000000
  -V(xc)+E(xc)   XCENC  =       -23.94413354
  PAW double counting   =       294.12882363     -251.25503797
  entropy T*S    EENTRO =        -0.00000000
  eigenvalues    EBANDS =       -96.16073619
  atomic energy  EATOM  =       340.36393574
  Solvation  Ediel_sol  =         0.00000000
  ---------------------------------------------------
  free energy    TOTEN  =        -9.40248471 eV

  energy without entropy =       -9.40248471  energy(sigma->0) =       -9.40248471


--------------------------------------------------------------------------------------------------------




--------------------------------------- Iteration      1(   8)  ---------------------------------------


     EDDAV:  cpu time      0.1856: real time      0.1858
       DOS:  cpu time      0.0003: real time      0.0003
    --------------------------------------------
      LOOP:  cpu time      0.1859: real time      0.1860

 eigenvalue-minimisations  :  1056
 total energy-change (2. order) :-0.2444835E-09  (-0.2480571E-09)
 number of electron      10.0000000 magnetization 
 augmentation part       10.0000000 magnetization 

 Free energy of the ion-electron system (eV)
  ---------------------------------------------------
  alpha Z        PSCENC =         3.50922535
  Ewald energy   TEWEN  =       905.41950464
  -Hartree energ DENC   =     -1181.46406637
  -exchange      EXHF   =         0.00000000
  -V(xc)+E(xc)   XCENC  =       -23.94413354
  PAW double counting   =       294.12882363     -251.25503797
  entropy T*S    EENTRO =        -0.00000000
  eigenvalues    EBANDS =       -96.16073619
  atomic energy  EATOM  =       340.36393574
  Solvation  Ediel_sol  =         0.00000000
  ---------------------------------------------------
  free energy    TOTEN  =        -9.40248471 eV

  energy without entropy =       -9.40248471  energy(sigma->0) =       -9.40248471


--------------------------------------------------------------------------------------------------------




--------------------------------------- Iteration      1(   9)  ---------------------------------------


     EDDAV:  cpu time      0.1376: real time      0.1377
       DOS:  cpu time      0.0003: real time      0.0003
    --------------------------------------------
      LOOP:  cpu time      0.1379: real time      0.1380

 eigenvalue-minimisations  :   768
 total energy-change (2. order) :-0.6798473E-10  (-0.7114556E-10)
 number of electron      10.0000000 magnetization 
 augmentation part       10.0000000 magnetization 

 Free energy of the ion-electron system (eV)
  ---------------------------------------------------
  alpha Z        PSCENC =         3.50922535
  Ewald energy   TEWEN  =       905.41950464
  -Hartree energ DENC   =     -1181.46406637
  -exchange      EXHF   =         0.00000000
  -V(xc)+E(xc)   XCENC  =       -23.94413354
  PAW double counting   =       294.12882363     -251.25503797
  entropy T*S    EENTRO =        -0.00000000
  eigenvalues    EBANDS =       -96.16073619
  atomic energy  EATOM  =       340.36393574
  Solvation  Ediel_sol  =         0.00000000
  ---------------------------------------------------
  free energy    TOTEN  =        -9.40248471 eV

  energy without entropy =       -9.40248471  energy(sigma->0) =       -9.40248471


--------------------------------------------------------------------------------------------------------




--------------------------------------- Iteration      1(  10)  ---------------------------------------


     EDDAV:  cpu time      0.1205: real time      0.1206
       DOS:  cpu time      0.0003: real time      0.0003
    --------------------------------------------
      LOOP:  cpu time      0.1208: real time      0.1209

 eigenvalue-minimisations  :   656
 total energy-change (2. order) :-0.3120704E-10  (-0.3251896E-10)
 number of electron      10.0000000 magnetization 
 augmentation part       10.0000000 magnetization 

 Free energy of the ion-electron system (eV)
  ---------------------------------------------------
  alpha Z        PSCENC =         3.50922535
  Ewald energy   TEWEN  =       905.41950464
  -Hartree energ DENC   =     -1181.46406637
  -exchange      EXHF   =         0.00000000
  -V(xc)+E(xc)   XCENC  =       -23.94413354
  PAW double counting   =       294.12882363     -251.25503797
  entropy T*S    EENTRO =        -0.00000000
  eigenvalues    EBANDS =       -96.16073619
  atomic energy  EATOM  =       340.36393574
  Solvation  Ediel_sol  =         0.00000000
  ---------------------------------------------------
  free energy    TOTEN  =        -9.40248471 eV

  energy without entropy =       -9.40248471  energy(sigma->0) =       -9.40248471


--------------------------------------------------------------------------------------------------------




--------------------------------------- Iteration      1(  11)  ---------------------------------------


     EDDAV:  cpu time      0.0879: real time      0.0879
       DOS:  cpu time      0.0003: real time      0.0003
    --------------------------------------------
      LOOP:  cpu time      0.0882: real time      0.0882

 eigenvalue-minimisations  :   448
 total energy-change (2. order) :-0.1432454E-10  (-0.1566162E-10)
 number of electron      10.0000000 magnetization 
 augmentation part       10.0000000 magnetization 

 Free energy of the ion-electron system (eV)
  ---------------------------------------------------
  alpha Z        PSCENC =         3.50922535
  Ewald energy   TEWEN  =       905.41950464
  -Hartree energ DENC   =     -1181.46406637
  -exchange      EXHF   =         0.00000000
  -V(xc)+E(xc)   XCENC  =       -23.94413354
  PAW double counting   =       294.12882363     -251.25503797
  entropy T*S    EENTRO =        -0.00000000
  eigenvalues    EBANDS =       -96.16073619
  atomic energy  EATOM  =       340.36393574
  Solvation  Ediel_sol  =         0.00000000
  ---------------------------------------------------
  free energy    TOTEN  =        -9.40248471 eV

  energy without entropy =       -9.40248471  energy(sigma->0) =       -9.40248471


--------------------------------------------------------------------------------------------------------




--------------------------------------- Iteration      1(  12)  ---------------------------------------


     EDDAV:  cpu time      0.0905: real time      0.0906
       DOS:  cpu time      0.0003: real time      0.0003
    CHARGE:  cpu time      0.0220: real time      0.0220
    MIXING:  cpu time      0.0006: real time      0.0006
    --------------------------------------------
      LOOP:  cpu time      0.1134: real time      0.1135

 eigenvalue-minimisations  :   464
 total energy-change (2. order) :-0.6366463E-11  (-0.7499264E-11)
 number of electron       9.9999999 magnetization 
 augmentation part       -1.6438933 magnetization 

 Broyden mixing:
  rms(total) = 0.19305E+00    rms(broyden)= 0.19293E+00
  rms(prec ) = 0.20395E+00
  weight for this iteration     100.00

 Free energy of the ion-electron system (eV)
  ---------------------------------------------------
  alpha Z        PSCENC =         3.50922535
  Ewald energy   TEWEN  =       905.41950464
  -Hartree energ DENC   =     -1181.46406637
  -exchange      EXHF   =         0.00000000
  -V(xc)+E(xc)   XCENC  =       -23.94413354
  PAW double counting   =       294.12882363     -251.25503797
  entropy T*S    EENTRO =        -0.00000000
  eigenvalues    EBANDS =       -96.16073619
  atomic energy  EATOM  =       340.36393574
  Solvation  Ediel_sol  =         0.00000000
  ---------------------------------------------------
  free energy    TOTEN  =        -9.40248471 eV

  energy without entropy =       -9.40248471  energy(sigma->0) =       -9.40248471


--------------------------------------------------------------------------------------------------------




--------------------------------------- Iteration      1(  13)  ---------------------------------------


    POTLOK:  cpu time      0.0112: real time      0.0112
    SETDIJ:  cpu time      0.1515: real time      0.1515
     EDDAV:  cpu time      0.1792: real time      0.1793
       DOS:  cpu time      0.0003: real time      0.0003
    CHARGE:  cpu time      0.0202: real time      0.0202
    MIXING:  cpu time      0.0006: real time      0.0006
    --------------------------------------------
      LOOP:  cpu time      0.3630: real time      0.3632

 eigenvalue-minimisations  :  1056
 total energy-change (2. order) : 0.1467988E-01  (-0.3170313E-03)
 number of electron       9.9999999 magnetization 
 augmentation part       -1.6406935 magnetization 

 Broyden mixing:
  rms(total) = 0.17208E+00    rms(broyden)= 0.17208E+00
  rms(prec ) = 0.18171E+00
  weight for this iteration     100.00

 eigenvalues of (default mixing * dielectric matrix)
  average eigenvalue GAMMA=   9.0729
  9.0729

 Free energy of the ion-electron system (eV)
  ---------------------------------------------------
  alpha Z        PSCENC =         3.50922535
  Ewald energy   TEWEN  =       905.41950464
  -Hartree energ DENC   =     -1182.39623243
  -exchange      EXHF   =         0.00000000
  -V(xc)+E(xc)   XCENC  =       -23.89619970
  PAW double counting   =       298.45452562     -255.59706001
  entropy T*S    EENTRO =        -0.00000000
  eigenvalues    EBANDS =       -95.24550403
  atomic energy  EATOM  =       340.36393574
  Solvation  Ediel_sol  =         0.00000000
  ---------------------------------------------------
  free energy    TOTEN  =        -9.38780483 eV

  energy without entropy =       -9.38780483  energy(sigma->0) =       -9.38780483


--------------------------------------------------------------------------------------------------------




--------------------------------------- Iteration      1(  14)  ---------------------------------------


    POTLOK:  cpu time      0.0112: real time      0.0112
    SETDIJ:  cpu time      0.1515: real time      0.1515
     EDDAV:  cpu time      0.1799: real time      0.1800
       DOS:  cpu time      0.0003: real time      0.0003
    CHARGE:  cpu time      0.0195: real time      0.0195
    MIXING:  cpu time      0.0005: real time      0.0005
    --------------------------------------------
      LOOP:  cpu time      0.3629: real time      0.3630

 eigenvalue-minimisations  :  1072
 total energy-change (2. order) : 0.4202430E-01  (-0.1888130E-01)
 number of electron       9.9999999 magnetization 
 augmentation part       -1.6173466 magnetization 

 Broyden mixing:
  rms(total) = 0.22154E-01    rms(broyden)= 0.22150E-01
  rms(prec ) = 0.25338E-01
  weight for this iteration     100.00

 eigenvalues of (default mixing * dielectric matrix)
  average eigenvalue GAMMA=   7.1402
  6.1915  8.0889

 Free energy of the ion-electron system (eV)
  ---------------------------------------------------
  alpha Z        PSCENC =         3.50922535
  Ewald energy   TEWEN  =       905.41950464
  -Hartree energ DENC   =     -1189.62918111
  -exchange      EXHF   =         0.00000000
  -V(xc)+E(xc)   XCENC  =       -23.48479017
  PAW double counting   =       333.75379720     -291.03273827
  entropy T*S    EENTRO =        -0.00000000
  eigenvalues    EBANDS =       -88.24553390
  atomic energy  EATOM  =       340.36393574
  Solvation  Ediel_sol  =         0.00000000
  ---------------------------------------------------
  free energy    TOTEN  =        -9.34578053 eV

  energy without entropy =       -9.34578053  energy(sigma->0) =       -9.34578053


--------------------------------------------------------------------------------------------------------




--------------------------------------- Iteration      1(  15)  ---------------------------------------


    POTLOK:  cpu time      0.0111: real time      0.0111
    SETDIJ:  cpu time      0.1511: real time      0.1511
     EDDAV:  cpu time      0.1947: real time      0.1948
       DOS:  cpu time      0.0003: real time      0.0003
    CHARGE:  cpu time      0.0195: real time      0.0195
    MIXING:  cpu time      0.0006: real time      0.0006
    --------------------------------------------
      LOOP:  cpu time      0.3773: real time      0.3774

 eigenvalue-minimisations  :  1136
 total energy-change (2. order) : 0.4049248E-02  (-0.1771178E-02)
 number of electron       9.9999999 magnetization 
 augmentation part       -1.6242017 magnetization 

 Broyden mixing:
  rms(total) = 0.10904E-01    rms(broyden)= 0.10903E-01
  rms(prec ) = 0.11385E-01
  weight for this iteration     100.00

 eigenvalues of (default mixing * dielectric matrix)
  average eigenvalue GAMMA=   5.5410
  0.9863  9.4699  6.1668

 Free energy of the ion-electron system (eV)
  ---------------------------------------------------
  alpha Z        PSCENC =         3.50922535
  Ewald energy   TEWEN  =       905.41950464
  -Hartree energ DENC   =     -1187.76120887
  -exchange      EXHF   =         0.00000000
  -V(xc)+E(xc)   XCENC  =       -23.51130889
  PAW double counting   =       331.24417347     -288.51343853
  entropy T*S    EENTRO =        -0.00000000
  eigenvalues    EBANDS =       -90.09261419
  atomic energy  EATOM  =       340.36393574
  Solvation  Ediel_sol  =         0.00000000
  ---------------------------------------------------
  free energy    TOTEN  =        -9.34173128 eV

  energy without entropy =       -9.34173128  energy(sigma->0) =       -9.34173128


--------------------------------------------------------------------------------------------------------




--------------------------------------- Iteration      1(  16)  ---------------------------------------


    POTLOK:  cpu time      0.0112: real time      0.0112
    SETDIJ:  cpu time      0.1510: real time      0.1510
     EDDAV:  cpu time      0.2056: real time      0.2057
       DOS:  cpu time      0.0003: real time      0.0003
    CHARGE:  cpu time      0.0195: real time      0.0195
    MIXING:  cpu time      0.0006: real time      0.0006
    --------------------------------------------
      LOOP:  cpu time      0.3882: real time      0.3884

 eigenvalue-minimisations  :  1184
 total energy-change (2. order) :-0.1297931E-03  (-0.8480146E-04)
 number of electron       9.9999999 magnetization 
 augmentation part       -1.6260882 magnetization 

 Broyden mixing:
  rms(total) = 0.48160E-02    rms(broyden)= 0.48151E-02
  rms(prec ) = 0.53288E-02
  weight for this iteration     100.00

 eigenvalues of (default mixing * dielectric matrix)
  average eigenvalue GAMMA=   5.2814
  9.1084  0.9982  5.5095  5.5095

 Free energy of the ion-electron system (eV)
  ---------------------------------------------------
  alpha Z        PSCENC =         3.50922535
  Ewald energy   TEWEN  =       905.41950464
  -Hartree energ DENC   =     -1187.57356044
  -exchange      EXHF   =         0.00000000
  -V(xc)+E(xc)   XCENC  =       -23.49599362
  PAW double counting   =       332.30933512     -289.58208430
  entropy T*S    EENTRO =        -0.00000000
  eigenvalues    EBANDS =       -90.29222357
  atomic energy  EATOM  =       340.36393574
  Solvation  Ediel_sol  =         0.00000000
  ---------------------------------------------------
  free energy    TOTEN  =        -9.34186108 eV

  energy without entropy =       -9.34186108  energy(sigma->0) =       -9.34186108


--------------------------------------------------------------------------------------------------------




--------------------------------------- Iteration      1(  17)  ---------------------------------------


    POTLOK:  cpu time      0.0112: real time      0.0112
    SETDIJ:  cpu time      0.1513: real time      0.1514
     EDDAV:  cpu time      0.1737: real time      0.1739
       DOS:  cpu time      0.0003: real time      0.0003
    CHARGE:  cpu time      0.0195: real time      0.0195
    MIXING:  cpu time      0.0006: real time      0.0006
    --------------------------------------------
      LOOP:  cpu time      0.3567: real time      0.3569

 eigenvalue-minimisations  :  1024
 total energy-change (2. order) : 0.1181152E-03  (-0.7307694E-04)
 number of electron       9.9999999 magnetization 
 augmentation part       -1.6255954 magnetization 

 Broyden mixing:
  rms(total) = 0.26232E-02    rms(broyden)= 0.26230E-02
  rms(prec ) = 0.27576E-02
  weight for this iteration     100.00

 eigenvalues of (default mixing * dielectric matrix)
  average eigenvalue GAMMA=   5.0037
 10.1920  7.7748  4.9634  1.0442  1.0442

 Free energy of the ion-electron system (eV)
  ---------------------------------------------------
  alpha Z        PSCENC =         3.50922535
  Ewald energy   TEWEN  =       905.41950464
  -Hartree energ DENC   =     -1187.79226370
  -exchange      EXHF   =         0.00000000
  -V(xc)+E(xc)   XCENC  =       -23.49528783
  PAW double counting   =       332.21811806     -289.49038102
  entropy T*S    EENTRO =        -0.00000000
  eigenvalues    EBANDS =       -90.07459419
  atomic energy  EATOM  =       340.36393574
  Solvation  Ediel_sol  =         0.00000000
  ---------------------------------------------------
  free energy    TOTEN  =        -9.34174296 eV

  energy without entropy =       -9.34174296  energy(sigma->0) =       -9.34174296


--------------------------------------------------------------------------------------------------------




--------------------------------------- Iteration      1(  18)  ---------------------------------------


    POTLOK:  cpu time      0.0114: real time      0.0114
    SETDIJ:  cpu time      0.1509: real time      0.1509
     EDDAV:  cpu time      0.1813: real time      0.1814
       DOS:  cpu time      0.0003: real time      0.0003
    CHARGE:  cpu time      0.0195: real time      0.0195
    MIXING:  cpu time      0.0006: real time      0.0006
    --------------------------------------------
      LOOP:  cpu time      0.3639: real time      0.3640

 eigenvalue-minimisations  :  1072
 total energy-change (2. order) :-0.1128637E-04  (-0.7870093E-05)
 number of electron       9.9999999 magnetization 
 augmentation part       -1.6263733 magnetization 

 Broyden mixing:
  rms(total) = 0.62931E-03    rms(broyden)= 0.62915E-03
  rms(prec ) = 0.67189E-03
  weight for this iteration     100.00

 eigenvalues of (default mixing * dielectric matrix)
  average eigenvalue GAMMA=   4.6697
 10.0607  7.3827  4.7536  3.8182  0.9657  1.0375

 Free energy of the ion-electron system (eV)
  ---------------------------------------------------
  alpha Z        PSCENC =         3.50922535
  Ewald energy   TEWEN  =       905.41950464
  -Hartree energ DENC   =     -1187.69415703
  -exchange      EXHF   =         0.00000000
  -V(xc)+E(xc)   XCENC  =       -23.49276368
  PAW double counting   =       332.29167879     -289.56396699
  entropy T*S    EENTRO =        -0.00000000
  eigenvalues    EBANDS =       -90.17521106
  atomic energy  EATOM  =       340.36393574
  Solvation  Ediel_sol  =         0.00000000
  ---------------------------------------------------
  free energy    TOTEN  =        -9.34175425 eV

  energy without entropy =       -9.34175425  energy(sigma->0) =       -9.34175425


--------------------------------------------------------------------------------------------------------




--------------------------------------- Iteration      1(  19)  ---------------------------------------


    POTLOK:  cpu time      0.0114: real time      0.0114
    SETDIJ:  cpu time      0.1515: real time      0.1516
     EDDAV:  cpu time      0.1435: real time      0.2169
       DOS:  cpu time      0.0003: real time      0.0003
    --------------------------------------------
      LOOP:  cpu time      0.3068: real time      0.3802

 eigenvalue-minimisations  :   832
 total energy-change (2. order) : 0.5871041E-06  (-0.2986629E-06)
 number of electron       9.9999999 magnetization 
 augmentation part       -1.6263733 magnetization 

 Free energy of the ion-electron system (eV)
  ---------------------------------------------------
  alpha Z        PSCENC =         3.50922535
  Ewald energy   TEWEN  =       905.41950464
  -Hartree energ DENC   =     -1187.69619461
  -exchange      EXHF   =         0.00000000
  -V(xc)+E(xc)   XCENC  =       -23.49292169
  PAW double counting   =       332.31804440     -289.59039200
  entropy T*S    EENTRO =        -0.00000000
  eigenvalues    EBANDS =       -90.17295549
  atomic energy  EATOM  =       340.36393574
  Solvation  Ediel_sol  =         0.00000000
  ---------------------------------------------------
  free energy    TOTEN  =        -9.34175366 eV

  energy without entropy =       -9.34175366  energy(sigma->0) =       -9.34175366


--------------------------------------------------------------------------------------------------------




 average (electrostatic) potential at core
  the test charge radii are     1.0621
  (the norm of the test charge is              1.0000)
       1 -58.0484       2 -58.0484
 
 
 
 E-fermi :  -3.7544     XC(G=0):  -2.1849     alpha+bet : -1.6315

 Fermi energy:        -3.7543512656

 k-point     1 :       0.0000    0.0000    0.0000
  band No.  band energies     occupation 
      1     -17.2577      2.00000
      2     -10.9699      2.00000
      3      -4.3454      2.00000
      4      -3.7968      2.00000
      5      -3.7968      2.00000
      6      -1.8748      0.00000
      7      -0.3059      0.00000
      8      -0.3059      0.00000
      9       1.0511      0.00000
     10       1.2843      0.00000
     11       1.8016      0.00000
     12       2.1974      0.00000
     13       3.0685      0.00000
     14       3.6512      0.00000
     15       4.7659      0.00000
     16       5.6109      0.00000

 k-point     2 :       0.0769    0.0000    0.0000
  band No.  band energies     occupation 
      1     -17.1793      2.00000
      2     -10.9594      2.00000
      3      -4.5869      2.00000
      4      -4.3074      2.00000
      5      -3.9740      2.00000
      6      -1.2907      0.00000
      7      -0.4274      0.00000
      8      -0.1248      0.00000
      9       1.1623      0.00000
     10       1.3792      0.00000
     11       1.8931      0.00000
     12       2.2914      0.00000
     13       3.1538      0.00000
     14       3.7436      0.00000
     15       4.8668      0.00000
     16       5.4123      0.00000

 k-point     3 :       0.1538    0.0000    0.0000
  band No.  band energies     occupation 
      1     -16.9461      2.00000
      2     -10.9619      2.00000
      3      -5.8081      2.00000
      4      -4.3816      2.00000
      5      -4.2203      2.00000
      6      -1.4572      0.00000
      7       0.1411      0.00000
      8       0.2525      0.00000
      9       1.4588      0.00000
     10       1.6632      0.00000
     11       2.1600      0.00000
     12       2.5640      0.00000
     13       3.3605      0.00000
     14       3.9971      0.00000
     15       4.4927      0.00000
     16       5.3612      0.00000

 k-point     4 :       0.2308   -0.0000    0.0000
  band No.  band energies     occupation 
      1     -16.5650      2.00000
      2     -11.0911      2.00000
      3      -6.8108      2.00000
      4      -4.8344      2.00000
      5      -4.1914      2.00000
      6      -1.9811      0.00000
      7       0.5276      0.00000
      8       0.5635      0.00000
      9       1.7720      0.00000
     10       2.1267      0.00000
     11       2.6055      0.00000
     12       2.9755      0.00000
     13       3.6734      0.00000
     14       4.2970      0.00000
     15       4.6789      0.00000
     16       5.3203      0.00000

 k-point     5 :       0.3077    0.0000    0.0000
  band No.  band energies     occupation 
      1     -16.0529      2.00000
      2     -11.5023      2.00000
      3      -7.3406      2.00000
      4      -5.2255      2.00000
      5      -4.4133      2.00000
      6      -2.2000      0.00000
      7       0.2061      0.00000
      8       0.7029      0.00000
      9       2.3046      0.00000
     10       2.6133      0.00000
     11       3.1622      0.00000
     12       3.5811      0.00000
     13       3.8811      0.00000
     14       4.8201      0.00000
     15       5.0323      0.00000
     16       6.0712      0.00000

 k-point     6 :       0.3846   -0.0000    0.0000
  band No.  band energies     occupation 
      1     -15.4548      2.00000
      2     -12.1734      2.00000
      3      -7.3885      2.00000
      4      -5.5048      2.00000
      5      -4.8810      2.00000
      6      -2.0722      0.00000
      7      -0.2851      0.00000
      8       0.7233      0.00000
      9       2.7276      0.00000
     10       3.0871      0.00000
     11       3.7898      0.00000
     12       4.2358      0.00000
     13       4.4054      0.00000
     14       5.3505      0.00000
     15       5.8004      0.00000
     16       6.1174      0.00000

 k-point     7 :       0.4615   -0.0000    0.0000
  band No.  band energies     occupation 
      1     -14.9292      2.00000
      2     -12.7920      2.00000
      3      -7.2292      2.00000
      4      -5.6492      2.00000
      5      -5.2935      2.00000
      6      -1.8675      0.00000
      7      -0.6105      0.00000
      8       0.7097      0.00000
      9       2.5198      0.00000
     10       4.0399      0.00000
     11       4.5631      0.00000
     12       4.9731      0.00000
     13       5.2393      0.00000
     14       5.3962      0.00000
     15       5.6096      0.00000
     16       6.0495      0.00000

 k-point     8 :       0.0769    0.0769    0.0000
  band No.  band energies     occupation 
      1     -17.0235      2.00000
      2     -10.9548      2.00000
      3      -5.4442      2.00000
      4      -4.3717      2.00000
      5      -4.2378      2.00000
      6      -0.7897      0.00000
      7      -0.7495      0.00000
      8       0.3611      0.00000
      9       1.3866      0.00000
     10       1.5549      0.00000
     11       2.0689      0.00000
     12       2.4766      0.00000
     13       3.2915      0.00000
     14       3.9240      0.00000
     15       4.5870      0.00000
     16       5.4154      0.00000

 k-point     9 :       0.1538    0.0769    0.0000
  band No.  band energies     occupation 
      1     -16.7159      2.00000
      2     -11.0166      2.00000
      3      -6.4126      2.00000
      4      -4.9514      2.00000
      5      -4.1653      2.00000
      6      -1.3178      0.00000
      7      -0.1413      0.00000
      8       0.7779      0.00000
      9       1.7060      0.00000
     10       1.9164      0.00000
     11       2.4145      0.00000
     12       2.8238      0.00000
     13       3.4747      0.00000
     14       4.2059      0.00000
     15       4.3690      0.00000
     16       5.5580      0.00000

 k-point    10 :       0.2308    0.0769    0.0000
  band No.  band energies     occupation 
      1     -16.2674      2.00000
      2     -11.2864      2.00000
      3      -7.1096      2.00000
      4      -5.4648      2.00000
      5      -4.2222      2.00000
      6      -1.7302      0.00000
      7       0.2648      0.00000
      8       0.6287      0.00000
      9       2.0853      0.00000
     10       2.4323      0.00000
     11       2.9316      0.00000
     12       3.3251      0.00000
     13       3.7730      0.00000
     14       4.5766      0.00000
     15       4.8404      0.00000
     16       5.4576      0.00000

 k-point    11 :       0.3077    0.0769    0.0000
  band No.  band energies     occupation 
      1     -15.7042      2.00000
      2     -11.8489      2.00000
      3      -7.3624      2.00000
      4      -5.8199      2.00000
      5      -4.5555      2.00000
      6      -1.7864      0.00000
      7       0.0821      0.00000
      8       0.4328      0.00000
      9       2.7479      0.00000
     10       2.8693      0.00000
     11       3.5232      0.00000
     12       3.9948      0.00000
     13       4.0766      0.00000
     14       5.1524      0.00000
     15       5.4415      0.00000
     16       5.9163      0.00000

 k-point    12 :       0.3846    0.0769    0.0000
  band No.  band energies     occupation 
      1     -15.1058      2.00000
      2     -12.5422      2.00000
      3      -7.3062      2.00000
      4      -5.9607      2.00000
      5      -5.0548      2.00000
      6      -1.5572      0.00000
      7      -0.4499      0.00000
      8       0.5087      0.00000
      9       2.7403      0.00000
     10       3.6272      0.00000
     11       4.2466      0.00000
     12       4.6814      0.00000
     13       4.9478      0.00000
     14       5.6073      0.00000
     15       5.9634      0.00000
     16       6.1388      0.00000

 k-point    13 :       0.4615    0.0769    0.0000
  band No.  band energies     occupation 
      1     -14.7738      2.00000
      2     -12.9235      2.00000
      3      -7.2366      2.00000
      4      -5.9289      2.00000
      5      -5.3535      2.00000
      6      -1.3491      0.00000
      7      -0.7375      0.00000
      8       0.5424      0.00000
      9       2.5794      0.00000
     10       4.6349      0.00000
     11       4.6556      0.00000
     12       5.0173      0.00000
     13       5.3486      0.00000
     14       5.6017      0.00000
     15       5.7869      0.00000
     16       6.0239      0.00000

 k-point    14 :       0.1538    0.1538    0.0000
  band No.  band energies     occupation 
      1     -16.3397      2.00000
      2     -11.2145      2.00000
      3      -6.8944      2.00000
      4      -5.7801      2.00000
      5      -4.1642      2.00000
      6      -1.0426      0.00000
      7      -0.3188      0.00000
      8       0.9110      0.00000
      9       2.1017      0.00000
     10       2.2718      0.00000
     11       2.8109      0.00000
     12       3.2649      0.00000
     13       3.5121      0.00000
     14       4.4582      0.00000
     15       4.6944      0.00000
     16       5.5750      0.00000

 k-point    15 :       0.2308    0.1538    0.0000
  band No.  band energies     occupation 
      1     -15.8333      2.00000
      2     -11.6530      2.00000
      3      -7.1455      2.00000
      4      -6.4031      2.00000
      5      -4.3494      2.00000
      6      -1.1268      0.00000
      7      -0.2579      0.00000
      8       0.7643      0.00000
      9       2.6240      0.00000
     10       2.8255      0.00000
     11       3.3776      0.00000
     12       3.8410      0.00000
     13       3.9246      0.00000
     14       4.9658      0.00000
     15       5.1272      0.00000
     16       5.3237      0.00000

 k-point    16 :       0.3077    0.1538    0.0000
  band No.  band energies     occupation 
      1     -15.2370      2.00000
      2     -12.2951      2.00000
      3      -7.3097      2.00000
      4      -6.5482      2.00000
      5      -4.7727      2.00000
      6      -1.1301      0.00000
      7      -0.2970      0.00000
      8       0.5323      0.00000
      9       3.1461      0.00000
     10       3.3934      0.00000
     11       4.0360      0.00000
     12       4.4624      0.00000
     13       4.6809      0.00000
     14       5.3333      0.00000
     15       5.6000      0.00000
     16       6.1304      0.00000

 k-point    17 :       0.3846    0.1538    0.0000
  band No.  band energies     occupation 
      1     -14.6954      2.00000
      2     -12.8981      2.00000
      3      -7.4552      2.00000
      4      -6.3026      2.00000
      5      -5.2543      2.00000
      6      -1.0666      0.00000
      7      -0.3318      0.00000
      8       0.3903      0.00000
      9       2.9613      0.00000
     10       4.3510      0.00000
     11       4.8523      0.00000
     12       5.3187      0.00000
     13       5.3877      0.00000
     14       5.5955      0.00000
     15       5.6908      0.00000
     16       6.2300      0.00000

 k-point    18 :       0.2308    0.2308    0.0000
  band No.  band energies     occupation 
      1     -15.2845      2.00000
      2     -12.1899      2.00000
      3      -7.2196      2.00000
      4      -6.8898      2.00000
      5      -4.6499      2.00000
      6      -0.9246      0.00000
      7      -0.5523      0.00000
      8       1.0297      0.00000
      9       3.3277      0.00000
     10       3.3412      0.00000
     11       3.9818      0.00000
     12       4.3690      0.00000
     13       4.5935      0.00000
     14       4.7462      0.00000
     15       5.3862      0.00000
     16       6.0389      0.00000

 k-point    19 :       0.3077    0.2308    0.0000
  band No.  band energies     occupation 
      1     -14.6783      2.00000
      2     -12.8155      2.00000
      3      -7.7114      2.00000
      4      -6.4865      2.00000
      5      -5.0992      2.00000
      6      -1.3517      0.00000
      7      -0.0385      0.00000
      8       0.9186      0.00000
      9       3.7105      0.00000
     10       4.1849      0.00000
     11       4.5642      0.00000
     12       4.9284      0.00000
     13       5.0965      0.00000
     14       5.5197      0.00000
     15       5.7414      0.00000
     16       6.4703      0.00000

 k-point    20 :       0.3846    0.2308    0.0000
  band No.  band energies     occupation 
      1     -14.2948      2.00000
      2     -13.2114      2.00000
      3      -7.8799      2.00000
      4      -6.1711      2.00000
      5      -5.4299      2.00000
      6      -1.5041      0.00000
      7       0.4490      0.00000
      8       0.5454      0.00000
      9       3.6542      0.00000
     10       4.6683      0.00000
     11       5.2302      0.00000
     12       5.2784      0.00000
     13       5.4720      0.00000
     14       6.0382      0.00000
     15       6.1216      0.00000
     16       6.5536      0.00000

 k-point    21 :       0.3077    0.3077    0.0000
  band No.  band energies     occupation 
      1     -14.0823      2.00000
      2     -13.3807      2.00000
      3      -8.0749      2.00000
      4      -6.0520      2.00000
      5      -5.5089      2.00000
      6      -1.7198      0.00000
      7       0.4998      0.00000
      8       0.9139      0.00000
      9       4.3513      0.00000
     10       4.7561      0.00000
     11       4.8480      0.00000
     12       5.3402      0.00000
     13       5.8935      0.00000
     14       6.1875      0.00000
     15       6.3049      0.00000
     16       6.4068      0.00000


--------------------------------------------------------------------------------------------------------


 soft charge-density along one line, spin component           1
         0         1         2         3         4         5         6         7         8         9
 total charge-density along one line
 
 pseudopotential strength for first ion, spin component:           1
 25.720 -41.127   0.000   0.081   0.000  -0.000  -0.178  -0.000
-41.127  43.094  -0.000  -0.165  -0.000   0.000   0.449   0.000
  0.000  -0.000   5.940  -0.000  -0.000  -7.521   0.000   0.000
  0.081  -0.165  -0.000   5.931  -0.000   0.000  -7.508   0.000
  0.000  -0.000  -0.000  -0.000   5.940   0.000   0.000  -7.521
 -0.000   0.000  -7.521   0.000   0.000  11.332  -0.000  -0.000
 -0.178   0.449   0.000  -7.508   0.000  -0.000  11.303  -0.000
 -0.000   0.000   0.000   0.000  -7.521  -0.000  -0.000  11.332
 -0.000   0.000   0.000   0.000  -0.003  -0.000  -0.000   0.003
 -0.000   0.000   0.018   0.000   0.000  -0.037  -0.000  -0.000
 -0.009   0.013  -0.000   0.025  -0.000   0.000  -0.047   0.000
 -0.000   0.000   0.000   0.000   0.018  -0.000  -0.000  -0.037
  0.000  -0.000  -0.003  -0.000   0.000   0.003   0.000  -0.000
 total augmentation occupancy for first ion, spin component:           1
  1.950   0.004   0.000  -0.231   0.000   0.000  -0.001   0.000   0.000   0.000  -0.012   0.000   0.000
  0.004   0.001   0.000   0.021  -0.000   0.000   0.000   0.000  -0.000   0.000  -0.000   0.000   0.000
  0.000   0.000   1.067   0.000   0.000   0.016   0.000   0.000   0.000   0.114  -0.000   0.000   0.064
 -0.231   0.021   0.000   1.211   0.000   0.000   0.015  -0.000   0.000  -0.000   0.030   0.000  -0.000
 -0.000   0.000   0.000   0.000   1.067   0.000   0.000   0.016   0.064   0.000   0.000   0.114   0.000
  0.000   0.000   0.016  -0.000   0.000   0.000   0.000   0.000   0.000   0.002  -0.000   0.000   0.001
 -0.001   0.000  -0.000   0.015   0.000   0.000   0.000   0.000   0.000  -0.000   0.001  -0.000  -0.000
  0.000  -0.000   0.000   0.000   0.016   0.000   0.000   0.000   0.001   0.000   0.000   0.002  -0.000
  0.000   0.000   0.000   0.000   0.064  -0.000   0.000   0.001   0.013   0.000  -0.000   0.007   0.000
 -0.000   0.000   0.114  -0.000   0.000   0.002   0.000   0.000   0.000   0.019  -0.000   0.000   0.007
 -0.012  -0.000  -0.000   0.030  -0.000  -0.000   0.001  -0.000   0.000  -0.000   0.008  -0.000  -0.000
  0.000   0.000   0.000  -0.000   0.114   0.000   0.000   0.002   0.007   0.000   0.000   0.019   0.000
  0.000   0.000   0.064  -0.000   0.000   0.001  -0.000   0.000   0.000   0.007  -0.000   0.000   0.013


[...]
  weight for this iteration     100.00

 eigenvalues of (default mixing * dielectric matrix)
  average eigenvalue GAMMA=   2.7147
  5.3829  1.3806  1.3806

 Free energy of the ion-electron system (eV)
  ---------------------------------------------------
  -Hartree energ DENC   =        -0.10659646
  -V(xc)+E(xc)   XCENC  =         0.00437551
  PAW double counting   =         0.01344734       -0.01339800
  entropy T*S    EENTRO =         0.00000000
  eigenvalues    EBANDS =        -0.05380337
  ---------------------------------------------------
  free energy    TOTEN  =        -0.15597498 eV

  energy without entropy =       -0.15597498


----------------------------------------- Iteration    3(   6)  ---------------------------------------


   POT+DIJ:  cpu time      0.3507: real time      0.3509
    HAMIL1:  cpu time      0.0494: real time      0.0494
    LRDIAG:  cpu time      0.0134: real time      0.0135
    LRDIIS:  cpu time      0.3138: real time      0.3140
    LRDIAG:  cpu time      0.0105: real time      0.0105
    MIXING:  cpu time      0.0009: real time      0.0009
    --------------------------------------------
      LOOP:  cpu time      0.7851: real time      0.7856

 Broyden mixing:
  rms(total) = 0.48623E-02    rms(broyden)= 0.48615E-02
  rms(prec ) = 0.55626E-02
  weight for this iteration     100.00

 eigenvalues of (default mixing * dielectric matrix)
  average eigenvalue GAMMA=   3.9275
  1.0331  1.3899  6.6435  6.6435

 Free energy of the ion-electron system (eV)
  ---------------------------------------------------
  -Hartree energ DENC   =        -0.11340792
  -V(xc)+E(xc)   XCENC  =         0.00487666
  PAW double counting   =         0.01139444       -0.01132939
  entropy T*S    EENTRO =         0.00000000
  eigenvalues    EBANDS =        -0.04766730
  ---------------------------------------------------
  free energy    TOTEN  =        -0.15613352 eV

  energy without entropy =       -0.15613352


----------------------------------------- Iteration    3(   7)  ---------------------------------------


   POT+DIJ:  cpu time      0.3605: real time      0.3606
    HAMIL1:  cpu time      0.0495: real time      0.0495
    LRDIAG:  cpu time      0.0133: real time      0.0133
    LRDIIS:  cpu time      0.2959: real time      0.2960
    LRDIAG:  cpu time      0.0103: real time      0.0103
    MIXING:  cpu time      0.0016: real time      0.0016
    --------------------------------------------
      LOOP:  cpu time      0.7955: real time      0.7959

 Broyden mixing:
  rms(total) = 0.17689E-02    rms(broyden)= 0.17682E-02
  rms(prec ) = 0.21147E-02
  weight for this iteration     100.00

 eigenvalues of (default mixing * dielectric matrix)
  average eigenvalue GAMMA=   3.2087
  7.2347  4.6978  1.0332  1.3882  1.6894

 Free energy of the ion-electron system (eV)
  ---------------------------------------------------
  -Hartree energ DENC   =        -0.11334845
  -V(xc)+E(xc)   XCENC  =         0.00521215
  PAW double counting   =         0.01330313       -0.01323955
  entropy T*S    EENTRO =         0.00000000
  eigenvalues    EBANDS =        -0.04826273
  ---------------------------------------------------
  free energy    TOTEN  =        -0.15633544 eV

  energy without entropy =       -0.15633544


----------------------------------------- Iteration    3(   8)  ---------------------------------------


   POT+DIJ:  cpu time      0.3971: real time      0.3973
    HAMIL1:  cpu time      0.0518: real time      0.0518
    LRDIAG:  cpu time      0.0258: real time      0.0259
    LRDIIS:  cpu time      0.2999: real time      0.3001
    LRDIAG:  cpu time      0.0222: real time      0.0222
    MIXING:  cpu time      0.0010: real time      0.0010
    --------------------------------------------
      LOOP:  cpu time      0.8518: real time      0.8522

 Broyden mixing:
  rms(total) = 0.10142E-02    rms(broyden)= 0.10140E-02
  rms(prec ) = 0.10864E-02
  weight for this iteration     100.00

 eigenvalues of (default mixing * dielectric matrix)
  average eigenvalue GAMMA=   3.8765
  7.2100  7.2100  5.4390  1.3945  0.9942  1.0110

 Free energy of the ion-electron system (eV)
  ---------------------------------------------------
  -Hartree energ DENC   =        -0.11507101
  -V(xc)+E(xc)   XCENC  =         0.00542552
  PAW double counting   =         0.01063443       -0.01056003
  entropy T*S    EENTRO =         0.00000000
  eigenvalues    EBANDS =        -0.04700564
  ---------------------------------------------------
  free energy    TOTEN  =        -0.15657674 eV

  energy without entropy =       -0.15657674


----------------------------------------- Iteration    3(   9)  ---------------------------------------


   POT+DIJ:  cpu time      0.3673: real time      0.3675
    HAMIL1:  cpu time      0.0493: real time      0.0493
    LRDIAG:  cpu time      0.0125: real time      0.0125
    LRDIIS:  cpu time      0.2761: real time      0.2763
    LRDIAG:  cpu time      0.0107: real time      0.0107
    MIXING:  cpu time      0.0009: real time      0.0009
    --------------------------------------------
      LOOP:  cpu time      0.7718: real time      0.7722

 Broyden mixing:
  rms(total) = 0.31632E-03    rms(broyden)= 0.31630E-03
  rms(prec ) = 0.34399E-03
  weight for this iteration     100.00

 eigenvalues of (default mixing * dielectric matrix)
  average eigenvalue GAMMA=   3.7189
  8.8883  7.1808  5.3695  1.3953  0.9922  1.1029  1.1029

 Free energy of the ion-electron system (eV)
  ---------------------------------------------------
  -Hartree energ DENC   =        -0.11495491
  -V(xc)+E(xc)   XCENC  =         0.00543960
  PAW double counting   =         0.01089448       -0.01082604
  entropy T*S    EENTRO =         0.00000000
  eigenvalues    EBANDS =        -0.04712028
  ---------------------------------------------------
  free energy    TOTEN  =        -0.15656715 eV

  energy without entropy =       -0.15656715


----------------------------------------- Iteration    3(  10)  ---------------------------------------


   POT+DIJ:  cpu time      0.3906: real time      0.3908
    HAMIL1:  cpu time      0.0431: real time      0.0431
    LRDIAG:  cpu time      0.0104: real time      0.0104
    LRDIIS:  cpu time      0.2970: real time      0.2972
    LRDIAG:  cpu time      0.0109: real time      0.0109
    MIXING:  cpu time      0.0015: real time      0.0015
    --------------------------------------------
      LOOP:  cpu time      0.8010: real time      0.8014

 Broyden mixing:
  rms(total) = 0.13237E-03    rms(broyden)= 0.13234E-03
  rms(prec ) = 0.14491E-03
  weight for this iteration     100.00

 eigenvalues of (default mixing * dielectric matrix)
  average eigenvalue GAMMA=   4.0722
 10.2916  7.4720  5.2094  5.2094  1.3942  1.0222  0.9895  0.9895

 Free energy of the ion-electron system (eV)
  ---------------------------------------------------
  -Hartree energ DENC   =        -0.11491333
  -V(xc)+E(xc)   XCENC  =         0.00544773
  PAW double counting   =         0.01102768       -0.01096102
  entropy T*S    EENTRO =         0.00000000
  eigenvalues    EBANDS =        -0.04717012
  ---------------------------------------------------
  free energy    TOTEN  =        -0.15656907 eV

  energy without entropy =       -0.15656907


----------------------------------------- Iteration    3(  11)  ---------------------------------------


   POT+DIJ:  cpu time      0.3449: real time      0.3450
    HAMIL1:  cpu time      0.0494: real time      0.0495
    LRDIAG:  cpu time      0.0133: real time      0.0133
    LRDIIS:  cpu time      0.2983: real time      0.2984
    LRDIAG:  cpu time      0.0107: real time      0.0389
    MIXING:  cpu time      0.0014: real time      0.0014
    --------------------------------------------
      LOOP:  cpu time      0.7633: real time      0.7918

 Broyden mixing:
  rms(total) = 0.48543E-04    rms(broyden)= 0.48521E-04
  rms(prec ) = 0.52257E-04
  weight for this iteration     100.00

 eigenvalues of (default mixing * dielectric matrix)
  average eigenvalue GAMMA=   4.0556
 10.1133  8.3078  7.2420  5.3039  1.3943  0.9901  0.9901  1.0379  1.1211

 Free energy of the ion-electron system (eV)
  ---------------------------------------------------
  -Hartree energ DENC   =        -0.11488381
  -V(xc)+E(xc)   XCENC  =         0.00544652
  PAW double counting   =         0.01112418       -0.01105943
  entropy T*S    EENTRO =         0.00000000
  eigenvalues    EBANDS =        -0.04719061
  ---------------------------------------------------
  free energy    TOTEN  =        -0.15656315 eV

  energy without entropy =       -0.15656315


----------------------------------------- Iteration    3(  12)  ---------------------------------------


   POT+DIJ:  cpu time      0.3576: real time      0.3579
    HAMIL1:  cpu time      0.0599: real time      0.0600
    LRDIAG:  cpu time      0.0138: real time      0.0138
    LRDIIS:  cpu time      0.2957: real time      0.2958
    LRDIAG:  cpu time      0.0081: real time      0.0081
    MIXING:  cpu time      0.0012: real time      0.0012
    --------------------------------------------
      LOOP:  cpu time      0.7852: real time      0.7857

 Broyden mixing:
  rms(total) = 0.80396E-05    rms(broyden)= 0.80262E-05
  rms(prec ) = 0.85581E-05
  weight for this iteration     100.00

 eigenvalues of (default mixing * dielectric matrix)
  average eigenvalue GAMMA=   3.7982
  9.9908  8.5946  7.2184  5.2970  1.3942  1.6546  1.0271  0.9941  0.9941  0.8171

 Free energy of the ion-electron system (eV)
  ---------------------------------------------------
  -Hartree energ DENC   =        -0.11489592
  -V(xc)+E(xc)   XCENC  =         0.00544727
  PAW double counting   =         0.01110822       -0.01104366
  entropy T*S    EENTRO =         0.00000000
  eigenvalues    EBANDS =        -0.04718038
  ---------------------------------------------------
  free energy    TOTEN  =        -0.15656447 eV

  energy without entropy =       -0.15656447


----------------------------------------- Iteration    3(  13)  ---------------------------------------


   POT+DIJ:  cpu time      0.3685: real time      0.3686
    HAMIL1:  cpu time      0.0497: real time      0.0497
    LRDIAG:  cpu time      0.0131: real time      0.0131
    LRDIIS:  cpu time      0.2892: real time      0.2893
    LRDIAG:  cpu time      0.0104: real time      0.0104
    MIXING:  cpu time      0.0012: real time      0.0012
    --------------------------------------------
      LOOP:  cpu time      0.7856: real time      0.7859

 Broyden mixing:
  rms(total) = 0.69434E-05    rms(broyden)= 0.69428E-05
  rms(prec ) = 0.74039E-05
  weight for this iteration     100.00

 eigenvalues of (default mixing * dielectric matrix)
  average eigenvalue GAMMA=   4.2329
 10.0595 10.0595  7.3602  7.3602  5.3082  1.3943  1.0250  1.0250  1.0024  1.0024
  0.9655

 Free energy of the ion-electron system (eV)
  ---------------------------------------------------
  -Hartree energ DENC   =        -0.11489595
  -V(xc)+E(xc)   XCENC  =         0.00544714
  PAW double counting   =         0.01110631       -0.01104176
  entropy T*S    EENTRO =         0.00000000
  eigenvalues    EBANDS =        -0.04718014
  ---------------------------------------------------
  free energy    TOTEN  =        -0.15656439 eV

  energy without entropy =       -0.15656439


------------------------ aborting loop because EDIFF is reached ----------------------------------------


 change of polarisation eV/A/(eV/A) component  3 :    -0.028     0.000     0.299
 dielectric tensor                  component  3 :    -0.019     0.000     1.200


--------------------------------------------------------------------------------------------------------


    FORNLD:  cpu time      0.5417: real time      0.5419

 PIEZOELECTRIC TENSOR FIELD DIRECTION 3  (e Angst)
 -----------------------------------------------------------------------------
     0.00000  0.00000  0.00000           (  0.00000  0.00000  0.00000)
     0.00000  0.00000  0.00000           (  0.00000  0.00000  0.00000)
     0.00000  0.00000  0.00000           (  0.00000  0.00000  0.00000)

 PIEZOELECTRIC TENSOR FIELD DIRECTION 3  (C/m^2)
 -----------------------------------------------------------------------------
     0.00000  0.00000  0.00000
     0.00000  0.00000  0.00000
     0.00000  0.00000  0.00000


      POSITION         DIRECTION 3           BORN EFFECTIVE CHARGE    (rigid.aug.   ionic)
 -----------------------------------------------------------------------------------------
      1.80345      1.04122      7.30149    -0.00000  0.00000  4.95194 (  0.81319  5.00000)
      0.00000      2.08244      8.69851    -0.00000  0.00000  4.95196 (  0.81319  5.00000)
 -----------------------------------------------------------------------------------------
    total drift (improves with k-points):  -0.00000  0.00000  9.90389




--------------------------------------------------------------------------------------------------------


  LATTYP: Found a hexagonal cell.
 ALAT       =     3.6068925858
 C/A-ratio  =     6.6539270103
  
  Lattice vectors:
  
 A1 = (   3.6068925858,   0.0000000000,   0.0000000000)
 A2 = (  -1.8034462929,   3.1236606080,   0.0000000000)
 A3 = (   0.0000000000,   0.0000000000,  24.0000000000)


Analysis of symmetry for initial positions (statically):
=====================================================================
 Subroutine PRICEL returns:
 Original cell was already a primitive cell.
 

 Routine SETGRP: Setting up the symmetry group for a 
 hexagonal supercell.


 Subroutine GETGRP returns: Found 12 space group operations
 (whereof  6 operations were pure point group operations)
 out of a pool of 24 trial point group operations.


The static configuration has the point symmetry C_3v.
 The point group associated with its full space group is D_3d.


Analysis of symmetry for dynamics (positions and initial velocities):
=====================================================================
 Subroutine PRICEL returns:
 Original cell was already a primitive cell.
 

 Routine SETGRP: Setting up the symmetry group for a 
 hexagonal supercell.


 Subroutine GETGRP returns: Found 12 space group operations
 (whereof  6 operations were pure point group operations)
 out of a pool of 24 trial point group operations.


The dynamic configuration has the point symmetry C_3v.
 The point group associated with its full space group is D_3d.


 Subroutine INISYM returns: Found 12 space group operations
 (whereof  6 operations are pure point group operations),
 and found     1 'primitive' translations



 MACROSCOPIC STATIC DIELECTRIC TENSOR (including local field effects in DFT)
 ------------------------------------------------------
           3.519904     0.000000     0.000000
          -0.000000     3.519904    -0.000000
           0.000000    -0.000000     1.200420
 ------------------------------------------------------



--------------------------------------------------------------------------------------------------------


  LATTYP: Found a hexagonal cell.
 ALAT       =     3.6068925858
 C/A-ratio  =     6.6539270103
  
  Lattice vectors:
  
 A1 = (   3.6068925858,   0.0000000000,   0.0000000000)
 A2 = (  -1.8034462929,   3.1236606080,   0.0000000000)
 A3 = (   0.0000000000,   0.0000000000,  24.0000000000)


Analysis of symmetry for initial positions (statically):
=====================================================================
 Subroutine PRICEL returns:
 Original cell was already a primitive cell.
 

 Routine SETGRP: Setting up the symmetry group for a 
 hexagonal supercell.


 Subroutine GETGRP returns: Found 12 space group operations
 (whereof  6 operations were pure point group operations)
 out of a pool of 24 trial point group operations.


The static configuration has the point symmetry C_3v.
 The point group associated with its full space group is D_3d.


Analysis of symmetry for dynamics (positions and initial velocities):
=====================================================================
 Subroutine PRICEL returns:
 Original cell was already a primitive cell.
 

 Routine SETGRP: Setting up the symmetry group for a 
 hexagonal supercell.


 Subroutine GETGRP returns: Found 12 space group operations
 (whereof  6 operations were pure point group operations)
 out of a pool of 24 trial point group operations.


The dynamic configuration has the point symmetry C_3v.
 The point group associated with its full space group is D_3d.


 Subroutine INISYM returns: Found 12 space group operations
 (whereof  6 operations are pure point group operations),
 and found     1 'primitive' translations



--------------------------------------------------------------------------------------------------------




 MACROSCOPIC STATIC DIELECTRIC TENSOR (including local field effects in DFT)
 ------------------------------------------------------
           3.519904     0.000000     0.000000
          -0.000000     3.519904    -0.000000
           0.000000    -0.000000     1.200420
 ------------------------------------------------------


 PIEZOELECTRIC TENSOR (including local field effects)  for field in x, y, z        (e  Angst)
          XX          YY          ZZ          XY          YZ          ZX
  --------------------------------------------------------------------------------
  x     0.00000     0.00000     0.00000     0.00000     0.00000     0.00000
  y     0.00000    -0.00000     0.00000     0.00000    -0.00000     0.00000
  z    -0.00000     0.00000    -0.00000     0.00000     0.00000     0.00000

 PIEZOELECTRIC TENSOR (including local field effects)  for field in x, y, z        (C/m^2)
          XX          YY          ZZ          XY          YZ          ZX
  --------------------------------------------------------------------------------
  x     0.00000     0.00000     0.00000     0.00000     0.00000     0.00000
  y     0.00000    -0.00000     0.00000     0.00000    -0.00000     0.00000
  z    -0.00000     0.00000    -0.00000     0.00000     0.00000     0.00000
 
 BORN EFFECTIVE CHARGES (including local field effects) (in |e|, cummulative output)
 ---------------------------------------------------------------------------------
 ion    1
    1    -0.00000     0.00000     0.00000
    2     0.00000    -0.00000     0.00000
    3     0.00000     0.00000    -0.00000
 ion    2
    1    -0.00000     0.00000    -0.00000
    2    -0.00000    -0.00000     0.00000
    3     0.00000     0.00000    -0.00000


--------------------------------------------------------------------------------------------------------


     LOOP+:  cpu time     60.6330: real time     63.3482
    4ORBIT:  cpu time      0.0000: real time      0.0000



 total charge

# of ion       s       p       d       tot
------------------------------------------
    1        1.291   1.352   0.041   2.684
    2        1.291   1.352   0.041   2.684
--------------------------------------------------
tot          2.582   2.703   0.082   5.368
 

 total amount of memory used by VASP MPI-rank0    41905. kBytes
=======================================================================

   base      :      30000. kBytes
   nonl-proj :       4999. kBytes
   fftplans  :       3311. kBytes
   grid      :       2811. kBytes
   one-center:         16. kBytes
   wavefun   :        768. kBytes
 
  
  
 General timing and accounting informations for this job:
 ========================================================
  
                  Total CPU time used (sec):       61.279
                            User time (sec):       61.059
                          System time (sec):        0.220
                         Elapsed time (sec):       64.736
  
                   Maximum memory used (kb):      201432.
                   Average memory used (kb):          N/A
  
                          Minor page faults:        37416
                          Major page faults:         3204
                 Voluntary context switches:          496
