PROCAR new format
# of k-points:   21         # of bands:   16         # of ions:    2

 k-point     1 :    0.00000000 0.00000000 0.00000000     weight = 0.00591716

band     1 # energy  -17.25773864 # occ.  2.00000000
 
ion      s      p      d    tot
    1  0.268  0.011  0.000  0.279
    2  0.268  0.011  0.000  0.279
tot    0.536  0.021  0.000  0.557
 
band     2 # energy  -10.96990107 # occ.  2.00000000
 
ion      s      p      d    tot
    1  0.284  0.025  0.001  0.310
    2  0.284  0.025  0.001  0.310
tot    0.568  0.050  0.001  0.619
 
band     3 # energy   -4.34535856 # occ.  2.00000000
 
ion      s      p      d    tot
    1  0.006  0.194  0.002  0.201
    2  0.006  0.194  0.002  0.201
tot    0.011  0.387  0.003  0.401
 
band     4 # energy   -3.79682519 # occ.  2.00000000
 
ion      s      p      d    tot
    1  0.000  0.283  0.014  0.298
    2  0.000  0.283  0.014  0.298
tot    0.000  0.567  0.028  0.595
 
band     5 # energy   -3.79682337 # occ.  2.00000000
 
ion      s      p      d    tot
    1  0.000  0.283  0.014  0.298
    2  0.000  0.283  0.014  0.298
tot    0.000  0.567  0.028  0.595
 
band     6 # energy   -1.87478576 # occ.  0.00000000
 
ion      s      p      d    tot
    1  0.144  0.118  0.011  0.273
    2  0.144  0.118  0.011  0.273
tot    0.288  0.237  0.021  0.546
 
band     7 # energy   -0.30586513 # occ.  0.00000000
 
ion      s      p      d    tot
    1  0.000  0.260  0.019  0.279
    2  0.000  0.260  0.019  0.279
tot    0.000  0.521  0.037  0.558
 
band     8 # energy   -0.30586502 # occ.  0.00000000
 
ion      s      p      d    tot
    1  0.000  0.260  0.019  0.279
    2  0.000  0.260  0.019  0.279
tot    0.000  0.521  0.037  0.558
 
band     9 # energy    1.05111641 # occ.  0.00000000
 
ion      s      p      d    tot
    1  0.000  0.012  0.011  0.023
    2  0.000  0.012  0.011  0.023
tot    0.000  0.025  0.021  0.046
 
band    10 # energy    1.28433108 # occ.  0.00000000
 
ion      s      p      d    tot
    1  0.005  0.017  0.000  0.022
    2  0.005  0.017  0.000  0.022
tot    0.010  0.034  0.000  0.044
 
band    11 # energy    1.80163364 # occ.  0.00000000
 
ion      s      p      d    tot
    1  0.003  0.009  0.000  0.012
    2  0.003  0.009  0.000  0.012
tot    0.006  0.017  0.000  0.023
 
band    12 # energy    2.19736206 # occ.  0.00000000
 
ion      s      p      d    tot
    1  0.000  0.002  0.005  0.008
    2  0.000  0.002  0.005  0.008
tot    0.000  0.005  0.010  0.015
 
band    13 # energy    3.06849655 # occ.  0.00000000
 
ion      s      p      d    tot
    1  0.010  0.017  0.000  0.026
    2  0.010  0.017  0.000  0.026
tot    0.019  0.033  0.000  0.053
 
band    14 # energy    3.65116513 # occ.  0.00000000
 
ion      s      p      d    tot
    1  0.001  0.001  0.011  0.013
    2  0.001  0.001  0.011  0.013
tot    0.002  0.002  0.022  0.026
 
band    15 # energy    4.76585708 # occ.  0.00000000
 
ion      s      p      d    tot
    1  0.046  0.015  0.002  0.062
    2  0.046  0.015  0.002  0.062
tot    0.092  0.030  0.003  0.125
 
band    16 # energy    5.61091992 # occ.  0.00000000
 
ion      s      p      d    tot
    1  0.041  0.005  0.015  0.062
    2  0.041  0.005  0.015  0.062
tot    0.082  0.010  0.031  0.124
 

 k-point     2 :    0.07692308 0.00000000 0.00000000     weight = 0.03550296

band     1 # energy  -17.17934197 # occ.  2.00000000
 
ion      s      p      d    tot
    1  0.268  0.011  0.000  0.279
    2  0.268  0.011  0.000  0.279
tot    0.536  0.023  0.000  0.559
 
band     2 # energy  -10.95942841 # occ.  2.00000000
 
ion      s      p      d    tot
    1  0.289  0.024  0.001  0.314
    2  0.289  0.024  0.001  0.314
tot    0.579  0.047  0.002  0.628
 
band     3 # energy   -4.58694770 # occ.  2.00000000
 
ion      s      p      d    tot
    1  0.020  0.241  0.013  0.275
    2  0.020  0.241  0.013  0.275
tot    0.041  0.482  0.027  0.549
 
band     4 # energy   -4.30739418 # occ.  2.00000000
 
ion      s      p      d    tot
    1  0.007  0.196  0.002  0.204
    2  0.007  0.196  0.002  0.204
tot    0.013  0.392  0.003  0.408
 
band     5 # energy   -3.97399324 # occ.  2.00000000
 
ion      s      p      d    tot
    1  0.000  0.278  0.014  0.292
    2  0.000  0.278  0.014  0.292
tot    0.000  0.556  0.028  0.584
 
band     6 # energy   -1.29073082 # occ.  0.00000000
 
ion      s      p      d    tot
    1  0.107  0.160  0.011  0.277
    2  0.107  0.160  0.011  0.277
tot    0.213  0.319  0.022  0.555
 
band     7 # energy   -0.42737273 # occ.  0.00000000
 
ion      s      p      d    tot
    1  0.020  0.239  0.015  0.274
    2  0.020  0.239  0.015  0.274
tot    0.041  0.477  0.030  0.548
 
band     8 # energy   -0.12480659 # occ.  0.00000000
 
ion      s      p      d    tot
    1  0.000  0.269  0.017  0.286
    2  0.000  0.269  0.017  0.286
tot    0.000  0.538  0.034  0.572
 
band     9 # energy    1.16231106 # occ.  0.00000000
 
ion      s      p      d    tot
    1  0.001  0.017  0.011  0.029
    2  0.001  0.017  0.011  0.029
tot    0.001  0.035  0.021  0.057
 
band    10 # energy    1.37920165 # occ.  0.00000000
 
ion      s      p      d    tot
    1  0.003  0.019  0.001  0.023
    2  0.003  0.019  0.001  0.023
tot    0.007  0.038  0.001  0.046
 
band    11 # energy    1.89311103 # occ.  0.00000000
 
ion      s      p      d    tot
    1  0.002  0.009  0.000  0.012
    2  0.002  0.009  0.000  0.012
tot    0.004  0.019  0.001  0.024
 
band    12 # energy    2.29137252 # occ.  0.00000000
 
ion      s      p      d    tot
    1  0.000  0.003  0.005  0.008
    2  0.000  0.003  0.005  0.008
tot    0.000  0.006  0.010  0.017
 
band    13 # energy    3.15381372 # occ.  0.00000000
 
ion      s      p      d    tot
    1  0.007  0.018  0.001  0.026
    2  0.007  0.018  0.001  0.026
tot    0.014  0.035  0.003  0.052
 
band    14 # energy    3.74364367 # occ.  0.00000000
 
ion      s      p      d    tot
    1  0.001  0.001  0.011  0.013
    2  0.001  0.001  0.011  0.013
tot    0.002  0.003  0.022  0.027
 
band    15 # energy    4.86678455 # occ.  0.00000000
 
ion      s      p      d    tot
    1  0.020  0.019  0.013  0.052
    2  0.020  0.019  0.013  0.052
tot    0.040  0.037  0.027  0.104
 
band    16 # energy    5.41228217 # occ.  0.00000000
 
ion      s      p      d    tot
    1  0.024  0.040  0.065  0.130
    2  0.024  0.040  0.065  0.130
tot    0.048  0.081  0.131  0.260
 

 k-point     3 :    0.15384615 0.00000000 0.00000000     weight = 0.03550296

band     1 # energy  -16.94610448 # occ.  2.00000000
 
ion      s      p      d    tot
    1  0.268  0.013  0.000  0.282
    2  0.268  0.013  0.000  0.282
tot    0.537  0.026  0.001  0.563
 
band     2 # energy  -10.96192303 # occ.  2.00000000
 
ion      s      p      d    tot
    1  0.305  0.020  0.001  0.326
    2  0.305  0.020  0.001  0.326
tot    0.611  0.039  0.003  0.653
 
band     3 # energy   -5.80808324 # occ.  2.00000000
 
ion      s      p      d    tot
    1  0.017  0.216  0.011  0.244
    2  0.017  0.216  0.011  0.244
tot    0.033  0.432  0.023  0.488
 
band     4 # energy   -4.38163565 # occ.  2.00000000
 
ion      s      p      d    tot
    1  0.000  0.269  0.013  0.282
    2  0.000  0.269  0.013  0.282
tot    0.000  0.537  0.026  0.563
 
band     5 # energy   -4.22028666 # occ.  2.00000000
 
ion      s      p      d    tot
    1  0.010  0.204  0.002  0.215
    2  0.010  0.204  0.002  0.215
tot    0.020  0.407  0.003  0.430
 
band     6 # energy   -1.45724630 # occ.  0.00000000
 
ion      s      p      d    tot
    1  0.053  0.176  0.015  0.244
    2  0.053  0.176  0.015  0.244
tot    0.107  0.352  0.030  0.489
 
band     7 # energy    0.14107297 # occ.  0.00000000
 
ion      s      p      d    tot
    1  0.067  0.196  0.004  0.267
    2  0.067  0.196  0.004  0.267
tot    0.133  0.393  0.009  0.535
 
band     8 # energy    0.25249500 # occ.  0.00000000
 
ion      s      p      d    tot
    1  0.000  0.284  0.014  0.298
    2  0.000  0.284  0.014  0.298
tot    0.000  0.568  0.028  0.596
 
band     9 # energy    1.45877654 # occ.  0.00000000
 
ion      s      p      d    tot
    1  0.002  0.029  0.011  0.042
    2  0.002  0.029  0.011  0.042
tot    0.004  0.058  0.022  0.083
 
band    10 # energy    1.66316490 # occ.  0.00000000
 
ion      s      p      d    tot
    1  0.002  0.028  0.002  0.032
    2  0.002  0.028  0.002  0.032
tot    0.004  0.057  0.004  0.065
 
band    11 # energy    2.16002453 # occ.  0.00000000
 
ion      s      p      d    tot
    1  0.001  0.011  0.001  0.014
    2  0.001  0.011  0.001  0.014
tot    0.003  0.023  0.002  0.028
 
band    12 # energy    2.56402411 # occ.  0.00000000
 
ion      s      p      d    tot
    1  0.000  0.005  0.005  0.010
    2  0.000  0.005  0.005  0.010
tot    0.000  0.010  0.010  0.021
 
band    13 # energy    3.36049441 # occ.  0.00000000
 
ion      s      p      d    tot
    1  0.004  0.020  0.008  0.032
    2  0.004  0.020  0.008  0.032
tot    0.009  0.039  0.016  0.064
 
band    14 # energy    3.99705932 # occ.  0.00000000
 
ion      s      p      d    tot
    1  0.002  0.003  0.012  0.016
    2  0.002  0.003  0.012  0.016
tot    0.004  0.005  0.024  0.033
 
band    15 # energy    4.49267871 # occ.  0.00000000
 
ion      s      p      d    tot
    1  0.003  0.017  0.064  0.084
    2  0.003  0.017  0.064  0.084
tot    0.005  0.035  0.128  0.168
 
band    16 # energy    5.36116341 # occ.  0.00000000
 
ion      s      p      d    tot
    1  0.021  0.034  0.026  0.081
    2  0.021  0.034  0.026  0.081
tot    0.041  0.068  0.053  0.161
 

 k-point     4 :    0.23076923-0.00000000 0.00000000     weight = 0.03550296

band     1 # energy  -16.56498503 # occ.  2.00000000
 
ion      s      p      d    tot
    1  0.270  0.016  0.001  0.286
    2  0.270  0.016  0.001  0.286
tot    0.539  0.031  0.001  0.572
 
band     2 # energy  -11.09114731 # occ.  2.00000000
 
ion      s      p      d    tot
    1  0.324  0.016  0.002  0.343
    2  0.324  0.016  0.002  0.343
tot    0.649  0.032  0.004  0.686
 
band     3 # energy   -6.81077308 # occ.  2.00000000
 
ion      s      p      d    tot
    1  0.004  0.204  0.008  0.215
    2  0.004  0.204  0.008  0.215
tot    0.007  0.407  0.017  0.431
 
band     4 # energy   -4.83438057 # occ.  2.00000000
 
ion      s      p      d    tot
    1  0.000  0.261  0.012  0.272
    2  0.000  0.261  0.012  0.272
tot    0.000  0.522  0.023  0.545
 
band     5 # energy   -4.19141535 # occ.  2.00000000
 
ion      s      p      d    tot
    1  0.020  0.214  0.001  0.235
    2  0.020  0.214  0.001  0.235
tot    0.039  0.429  0.002  0.471
 
band     6 # energy   -1.98110798 # occ.  0.00000000
 
ion      s      p      d    tot
    1  0.049  0.153  0.016  0.217
    2  0.049  0.153  0.016  0.217
tot    0.097  0.306  0.031  0.435
 
band     7 # energy    0.52756686 # occ.  0.00000000
 
ion      s      p      d    tot
    1  0.048  0.175  0.012  0.235
    2  0.048  0.175  0.012  0.235
tot    0.095  0.350  0.024  0.469
 
band     8 # energy    0.56348948 # occ.  0.00000000
 
ion      s      p      d    tot
    1  0.000  0.289  0.012  0.301
    2  0.000  0.289  0.012  0.301
tot    0.000  0.579  0.024  0.603
 
band     9 # energy    1.77200629 # occ.  0.00000000
 
ion      s      p      d    tot
    1  0.001  0.012  0.013  0.026
    2  0.001  0.012  0.013  0.026
tot    0.002  0.023  0.026  0.051
 
band    10 # energy    2.12673534 # occ.  0.00000000
 
ion      s      p      d    tot
    1  0.002  0.038  0.002  0.041
    2  0.002  0.038  0.002  0.041
tot    0.003  0.076  0.003  0.082
 
band    11 # energy    2.60552889 # occ.  0.00000000
 
ion      s      p      d    tot
    1  0.001  0.017  0.002  0.020
    2  0.001  0.017  0.002  0.020
tot    0.002  0.035  0.003  0.040
 
band    12 # energy    2.97549428 # occ.  0.00000000
 
ion      s      p      d    tot
    1  0.002  0.002  0.005  0.009
    2  0.002  0.002  0.005  0.009
tot    0.003  0.004  0.011  0.018
 
band    13 # energy    3.67343465 # occ.  0.00000000
 
ion      s      p      d    tot
    1  0.004  0.040  0.016  0.060
    2  0.004  0.040  0.016  0.060
tot    0.008  0.079  0.033  0.120
 
band    14 # energy    4.29697342 # occ.  0.00000000
 
ion      s      p      d    tot
    1  0.009  0.011  0.020  0.040
    2  0.009  0.011  0.020  0.040
tot    0.019  0.023  0.039  0.081
 
band    15 # energy    4.67885994 # occ.  0.00000000
 
ion      s      p      d    tot
    1  0.001  0.036  0.027  0.064
    2  0.001  0.036  0.027  0.064
tot    0.002  0.072  0.054  0.128
 
band    16 # energy    5.32025668 # occ.  0.00000000
 
ion      s      p      d    tot
    1  0.024  0.027  0.075  0.126
    2  0.024  0.027  0.075  0.126
tot    0.048  0.054  0.151  0.253
 

 k-point     5 :    0.30769231 0.00000000 0.00000000     weight = 0.03550296

band     1 # energy  -16.05287898 # occ.  2.00000000
 
ion      s      p      d    tot
    1  0.272  0.018  0.001  0.292
    2  0.272  0.018  0.001  0.292
tot    0.545  0.037  0.002  0.584
 
band     2 # energy  -11.50234459 # occ.  2.00000000
 
ion      s      p      d    tot
    1  0.324  0.020  0.003  0.348
    2  0.324  0.020  0.003  0.348
tot    0.649  0.041  0.007  0.696
 
band     3 # energy   -7.34064863 # occ.  2.00000000
 
ion      s      p      d    tot
    1  0.009  0.190  0.005  0.203
    2  0.009  0.190  0.005  0.203
tot    0.017  0.380  0.010  0.407
 
band     4 # energy   -5.22545737 # occ.  2.00000000
 
ion      s      p      d    tot
    1  0.000  0.256  0.010  0.266
    2  0.000  0.256  0.010  0.266
tot    0.000  0.511  0.020  0.532
 
band     5 # energy   -4.41325625 # occ.  2.00000000
 
ion      s      p      d    tot
    1  0.036  0.215  0.001  0.251
    2  0.036  0.215  0.001  0.251
tot    0.071  0.430  0.002  0.503
 
band     6 # energy   -2.19998312 # occ.  0.00000000
 
ion      s      p      d    tot
    1  0.038  0.142  0.018  0.198
    2  0.038  0.142  0.018  0.198
tot    0.076  0.284  0.035  0.396
 
band     7 # energy    0.20611634 # occ.  0.00000000
 
ion      s      p      d    tot
    1  0.024  0.148  0.027  0.198
    2  0.024  0.148  0.027  0.198
tot    0.048  0.296  0.053  0.397
 
band     8 # energy    0.70293072 # occ.  0.00000000
 
ion      s      p      d    tot
    1  0.000  0.283  0.012  0.295
    2  0.000  0.283  0.012  0.295
tot    0.000  0.565  0.025  0.590
 
band     9 # energy    2.30461274 # occ.  0.00000000
 
ion      s      p      d    tot
    1  0.006  0.007  0.010  0.022
    2  0.006  0.007  0.010  0.022
tot    0.012  0.013  0.019  0.044
 
band    10 # energy    2.61331881 # occ.  0.00000000
 
ion      s      p      d    tot
    1  0.002  0.047  0.008  0.056
    2  0.002  0.047  0.008  0.056
tot    0.004  0.093  0.015  0.113
 
band    11 # energy    3.16217654 # occ.  0.00000000
 
ion      s      p      d    tot
    1  0.001  0.014  0.005  0.021
    2  0.001  0.014  0.005  0.021
tot    0.002  0.029  0.011  0.041
 
band    12 # energy    3.58106466 # occ.  0.00000000
 
ion      s      p      d    tot
    1  0.003  0.003  0.005  0.011
    2  0.003  0.003  0.005  0.011
tot    0.007  0.005  0.010  0.022
 
band    13 # energy    3.88112726 # occ.  0.00000000
 
ion      s      p      d    tot
    1  0.001  0.034  0.028  0.063
    2  0.001  0.034  0.028  0.063
tot    0.003  0.068  0.056  0.127
 
band    14 # energy    4.82007432 # occ.  0.00000000
 
ion      s      p      d    tot
    1  0.005  0.022  0.016  0.043
    2  0.005  0.022  0.016  0.043
tot    0.010  0.044  0.031  0.085
 
band    15 # energy    5.03234230 # occ.  0.00000000
 
ion      s      p      d    tot
    1  0.006  0.011  0.009  0.026
    2  0.006  0.011  0.009  0.026
tot    0.013  0.022  0.017  0.052
 
band    16 # energy    6.07116552 # occ.  0.00000000
 
ion      s      p      d    tot
    1  0.023  0.086  0.062  0.171
    2  0.023  0.086  0.062  0.171
tot    0.045  0.172  0.125  0.342
 

 k-point     6 :    0.38461538-0.00000000 0.00000000     weight = 0.03550296

band     1 # energy  -15.45483320 # occ.  2.00000000
 
ion      s      p      d    tot
    1  0.278  0.021  0.002  0.301
    2  0.278  0.021  0.002  0.301
tot    0.556  0.041  0.003  0.601
 
band     2 # energy  -12.17339569 # occ.  2.00000000
 
ion      s      p      d    tot
    1  0.302  0.030  0.004  0.336
    2  0.302  0.030  0.004  0.336
tot    0.604  0.060  0.007  0.671
 
band     3 # energy   -7.38850754 # occ.  2.00000000
 
ion      s      p      d    tot
    1  0.036  0.175  0.002  0.213
    2  0.036  0.175  0.002  0.213
tot    0.073  0.349  0.005  0.427
 
band     4 # energy   -5.50483208 # occ.  2.00000000
 
ion      s      p      d    tot
    1  0.000  0.253  0.009  0.262
    2  0.000  0.253  0.009  0.262
tot    0.000  0.505  0.018  0.523
 
band     5 # energy   -4.88097237 # occ.  2.00000000
 
ion      s      p      d    tot
    1  0.042  0.203  0.001  0.246
    2  0.042  0.203  0.001  0.246
tot    0.083  0.407  0.002  0.492
 
band     6 # energy   -2.07215676 # occ.  0.00000000
 
ion      s      p      d    tot
    1  0.032  0.143  0.022  0.197
    2  0.032  0.143  0.022  0.197
tot    0.063  0.287  0.044  0.395
 
band     7 # energy   -0.28507854 # occ.  0.00000000
 
ion      s      p      d    tot
    1  0.012  0.146  0.028  0.185
    2  0.012  0.146  0.028  0.185
tot    0.024  0.292  0.055  0.371
 
band     8 # energy    0.72329532 # occ.  0.00000000
 
ion      s      p      d    tot
    1  0.000  0.273  0.014  0.287
    2  0.000  0.273  0.014  0.287
tot    0.000  0.545  0.028  0.574
 
band     9 # energy    2.72756201 # occ.  0.00000000
 
ion      s      p      d    tot
    1  0.002  0.046  0.038  0.086
    2  0.002  0.046  0.038  0.086
tot    0.005  0.091  0.076  0.172
 
band    10 # energy    3.08714124 # occ.  0.00000000
 
ion      s      p      d    tot
    1  0.008  0.008  0.009  0.025
    2  0.008  0.008  0.009  0.025
tot    0.016  0.015  0.018  0.049
 
band    11 # energy    3.78983069 # occ.  0.00000000
 
ion      s      p      d    tot
    1  0.000  0.007  0.009  0.016
    2  0.000  0.007  0.009  0.016
tot    0.000  0.014  0.017  0.031
 
band    12 # energy    4.23575714 # occ.  0.00000000
 
ion      s      p      d    tot
    1  0.001  0.013  0.012  0.026
    2  0.001  0.013  0.012  0.026
tot    0.002  0.026  0.023  0.051
 
band    13 # energy    4.40536191 # occ.  0.00000000
 
ion      s      p      d    tot
    1  0.003  0.003  0.002  0.009
    2  0.003  0.003  0.002  0.009
tot    0.006  0.007  0.005  0.017
 
band    14 # energy    5.35047411 # occ.  0.00000000
 
ion      s      p      d    tot
    1  0.009  0.016  0.010  0.035
    2  0.009  0.016  0.010  0.035
tot    0.018  0.033  0.021  0.071
 
band    15 # energy    5.80041281 # occ.  0.00000000
 
ion      s      p      d    tot
    1  0.007  0.010  0.005  0.022
    2  0.007  0.010  0.005  0.022
tot    0.014  0.020  0.011  0.045
 
band    16 # energy    6.11744633 # occ.  0.00000000
 
ion      s      p      d    tot
    1  0.012  0.017  0.019  0.048
    2  0.012  0.017  0.019  0.048
tot    0.024  0.034  0.037  0.096
 

 k-point     7 :    0.46153846-0.00000000 0.00000000     weight = 0.03550296

band     1 # energy  -14.92919072 # occ.  2.00000000
 
ion      s      p      d    tot
    1  0.288  0.021  0.002  0.311
    2  0.288  0.021  0.002  0.311
tot    0.576  0.041  0.005  0.622
 
band     2 # energy  -12.79204586 # occ.  2.00000000
 
ion      s      p      d    tot
    1  0.279  0.038  0.003  0.319
    2  0.279  0.038  0.003  0.319
tot    0.558  0.075  0.006  0.639
 
band     3 # energy   -7.22920011 # occ.  2.00000000
 
ion      s      p      d    tot
    1  0.063  0.166  0.001  0.230
    2  0.063  0.166  0.001  0.230
tot    0.126  0.331  0.002  0.459
 
band     4 # energy   -5.64920376 # occ.  2.00000000
 
ion      s      p      d    tot
    1  0.000  0.251  0.008  0.260
    2  0.000  0.251  0.008  0.260
tot    0.000  0.503  0.017  0.519
 
band     5 # energy   -5.29349031 # occ.  2.00000000
 
ion      s      p      d    tot
    1  0.035  0.196  0.001  0.233
    2  0.035  0.196  0.001  0.233
tot    0.071  0.391  0.003  0.465
 
band     6 # energy   -1.86750372 # occ.  0.00000000
 
ion      s      p      d    tot
    1  0.034  0.138  0.029  0.201
    2  0.034  0.138  0.029  0.201
tot    0.068  0.276  0.058  0.402
 
band     7 # energy   -0.61051354 # occ.  0.00000000
 
ion      s      p      d    tot
    1  0.004  0.163  0.021  0.188
    2  0.004  0.163  0.021  0.188
tot    0.008  0.326  0.042  0.376
 
band     8 # energy    0.70971997 # occ.  0.00000000
 
ion      s      p      d    tot
    1  0.000  0.266  0.015  0.282
    2  0.000  0.266  0.015  0.282
tot    0.000  0.533  0.031  0.564
 
band     9 # energy    2.51982756 # occ.  0.00000000
 
ion      s      p      d    tot
    1  0.000  0.020  0.053  0.074
    2  0.000  0.020  0.053  0.074
tot    0.001  0.041  0.106  0.147
 
band    10 # energy    4.03988634 # occ.  0.00000000
 
ion      s      p      d    tot
    1  0.010  0.008  0.009  0.027
    2  0.010  0.008  0.009  0.027
tot    0.020  0.016  0.018  0.054
 
band    11 # energy    4.56310126 # occ.  0.00000000
 
ion      s      p      d    tot
    1  0.005  0.018  0.007  0.030
    2  0.005  0.018  0.007  0.030
tot    0.010  0.037  0.013  0.060
 
band    12 # energy    4.97313048 # occ.  0.00000000
 
ion      s      p      d    tot
    1  0.007  0.004  0.005  0.016
    2  0.007  0.004  0.005  0.016
tot    0.014  0.009  0.010  0.033
 
band    13 # energy    5.23927503 # occ.  0.00000000
 
ion      s      p      d    tot
    1  0.004  0.014  0.009  0.028
    2  0.004  0.014  0.009  0.028
tot    0.009  0.028  0.018  0.055
 
band    14 # energy    5.39623889 # occ.  0.00000000
 
ion      s      p      d    tot
    1  0.003  0.004  0.002  0.009
    2  0.003  0.004  0.002  0.009
tot    0.006  0.007  0.004  0.018
 
band    15 # energy    5.60962139 # occ.  0.00000000
 
ion      s      p      d    tot
    1  0.002  0.024  0.008  0.034
    2  0.002  0.024  0.008  0.034
tot    0.005  0.048  0.016  0.069
 
band    16 # energy    6.04954564 # occ.  0.00000000
 
ion      s      p      d    tot
    1  0.004  0.003  0.005  0.012
    2  0.004  0.003  0.005  0.012
tot    0.007  0.007  0.010  0.024
 

 k-point     8 :    0.07692308 0.07692308 0.00000000     weight = 0.03550296

band     1 # energy  -17.02348168 # occ.  2.00000000
 
ion      s      p      d    tot
    1  0.268  0.012  0.000  0.281
    2  0.268  0.012  0.000  0.281
tot    0.536  0.025  0.001  0.562
 
band     2 # energy  -10.95478467 # occ.  2.00000000
 
ion      s      p      d    tot
    1  0.300  0.021  0.001  0.322
    2  0.300  0.021  0.001  0.322
tot    0.600  0.042  0.002  0.644
 
band     3 # energy   -5.44417835 # occ.  2.00000000
 
ion      s      p      d    tot
    1  0.020  0.222  0.012  0.254
    2  0.020  0.222  0.012  0.254
tot    0.040  0.443  0.024  0.508
 
band     4 # energy   -4.37170827 # occ.  2.00000000
 
ion      s      p      d    tot
    1  0.003  0.261  0.013  0.277
    2  0.003  0.261  0.013  0.277
tot    0.006  0.523  0.026  0.555
 
band     5 # energy   -4.23778269 # occ.  2.00000000
 
ion      s      p      d    tot
    1  0.007  0.204  0.002  0.213
    2  0.007  0.204  0.002  0.213
tot    0.014  0.407  0.004  0.425
 
band     6 # energy   -0.78969648 # occ.  0.00000000
 
ion      s      p      d    tot
    1  0.078  0.186  0.012  0.276
    2  0.078  0.186  0.012  0.276
tot    0.156  0.373  0.024  0.552
 
band     7 # energy   -0.74954103 # occ.  0.00000000
 
ion      s      p      d    tot
    1  0.023  0.224  0.014  0.260
    2  0.023  0.224  0.014  0.260
tot    0.045  0.447  0.028  0.521
 
band     8 # energy    0.36113193 # occ.  0.00000000
 
ion      s      p      d    tot
    1  0.021  0.255  0.009  0.285
    2  0.021  0.255  0.009  0.285
tot    0.041  0.511  0.018  0.571
 
band     9 # energy    1.38660511 # occ.  0.00000000
 
ion      s      p      d    tot
    1  0.002  0.035  0.011  0.048
    2  0.002  0.035  0.011  0.048
tot    0.004  0.071  0.022  0.096
 
band    10 # energy    1.55493876 # occ.  0.00000000
 
ion      s      p      d    tot
    1  0.002  0.020  0.002  0.024
    2  0.002  0.020  0.002  0.024
tot    0.004  0.041  0.003  0.048
 
band    11 # energy    2.06888682 # occ.  0.00000000
 
ion      s      p      d    tot
    1  0.001  0.010  0.001  0.012
    2  0.001  0.010  0.001  0.012
tot    0.003  0.019  0.002  0.024
 
band    12 # energy    2.47654996 # occ.  0.00000000
 
ion      s      p      d    tot
    1  0.000  0.005  0.005  0.010
    2  0.000  0.005  0.005  0.010
tot    0.000  0.010  0.010  0.020
 
band    13 # energy    3.29154886 # occ.  0.00000000
 
ion      s      p      d    tot
    1  0.005  0.018  0.006  0.028
    2  0.005  0.018  0.006  0.028
tot    0.010  0.035  0.012  0.057
 
band    14 # energy    3.92404573 # occ.  0.00000000
 
ion      s      p      d    tot
    1  0.001  0.002  0.011  0.014
    2  0.001  0.002  0.011  0.014
tot    0.002  0.004  0.022  0.028
 
band    15 # energy    4.58697482 # occ.  0.00000000
 
ion      s      p      d    tot
    1  0.001  0.016  0.062  0.079
    2  0.001  0.016  0.062  0.079
tot    0.002  0.032  0.123  0.157
 
band    16 # energy    5.41544314 # occ.  0.00000000
 
ion      s      p      d    tot
    1  0.019  0.042  0.022  0.083
    2  0.019  0.042  0.022  0.083
tot    0.037  0.085  0.043  0.166
 

 k-point     9 :    0.15384615 0.07692308 0.00000000     weight = 0.07100592

band     1 # energy  -16.71591471 # occ.  2.00000000
 
ion      s      p      d    tot
    1  0.269  0.015  0.001  0.284
    2  0.269  0.015  0.001  0.284
tot    0.538  0.029  0.001  0.568
 
band     2 # energy  -11.01662911 # occ.  2.00000000
 
ion      s      p      d    tot
    1  0.319  0.017  0.002  0.337
    2  0.319  0.017  0.002  0.337
tot    0.637  0.034  0.004  0.675
 
band     3 # energy   -6.41255598 # occ.  2.00000000
 
ion      s      p      d    tot
    1  0.008  0.209  0.010  0.227
    2  0.008  0.209  0.010  0.227
tot    0.016  0.419  0.019  0.454
 
band     4 # energy   -4.95137002 # occ.  2.00000000
 
ion      s      p      d    tot
    1  0.005  0.247  0.012  0.264
    2  0.005  0.247  0.012  0.264
tot    0.010  0.494  0.024  0.528
 
band     5 # energy   -4.16532662 # occ.  2.00000000
 
ion      s      p      d    tot
    1  0.013  0.212  0.002  0.226
    2  0.013  0.212  0.002  0.226
tot    0.025  0.423  0.003  0.452
 
band     6 # energy   -1.31780878 # occ.  0.00000000
 
ion      s      p      d    tot
    1  0.042  0.187  0.014  0.242
    2  0.042  0.187  0.014  0.242
tot    0.083  0.374  0.027  0.485
 
band     7 # energy   -0.14125055 # occ.  0.00000000
 
ion      s      p      d    tot
    1  0.038  0.226  0.012  0.275
    2  0.038  0.226  0.012  0.275
tot    0.076  0.451  0.023  0.551
 
band     8 # energy    0.77786542 # occ.  0.00000000
 
ion      s      p      d    tot
    1  0.029  0.230  0.007  0.266
    2  0.029  0.230  0.007  0.266
tot    0.058  0.460  0.013  0.532
 
band     9 # energy    1.70595011 # occ.  0.00000000
 
ion      s      p      d    tot
    1  0.001  0.033  0.012  0.046
    2  0.001  0.033  0.012  0.046
tot    0.002  0.066  0.024  0.092
 
band    10 # energy    1.91643085 # occ.  0.00000000
 
ion      s      p      d    tot
    1  0.002  0.033  0.003  0.038
    2  0.002  0.033  0.003  0.038
tot    0.004  0.066  0.006  0.076
 
band    11 # energy    2.41447947 # occ.  0.00000000
 
ion      s      p      d    tot
    1  0.001  0.012  0.003  0.015
    2  0.001  0.012  0.003  0.015
tot    0.002  0.023  0.005  0.030
 
band    12 # energy    2.82375962 # occ.  0.00000000
 
ion      s      p      d    tot
    1  0.000  0.004  0.005  0.010
    2  0.000  0.004  0.005  0.010
tot    0.001  0.009  0.010  0.020
 
band    13 # energy    3.47470953 # occ.  0.00000000
 
ion      s      p      d    tot
    1  0.003  0.020  0.025  0.048
    2  0.003  0.020  0.025  0.048
tot    0.006  0.040  0.049  0.095
 
band    14 # energy    4.20588544 # occ.  0.00000000
 
ion      s      p      d    tot
    1  0.004  0.007  0.023  0.034
    2  0.004  0.007  0.023  0.034
tot    0.008  0.015  0.046  0.068
 
band    15 # energy    4.36898328 # occ.  0.00000000
 
ion      s      p      d    tot
    1  0.000  0.014  0.036  0.050
    2  0.000  0.014  0.036  0.050
tot    0.000  0.029  0.072  0.101
 
band    16 # energy    5.55799590 # occ.  0.00000000
 
ion      s      p      d    tot
    1  0.017  0.041  0.055  0.112
    2  0.017  0.041  0.055  0.112
tot    0.033  0.081  0.110  0.225
 

 k-point    10 :    0.23076923 0.07692308 0.00000000     weight = 0.07100592

band     1 # energy  -16.26740624 # occ.  2.00000000
 
ion      s      p      d    tot
    1  0.271  0.017  0.001  0.289
    2  0.271  0.017  0.001  0.289
tot    0.542  0.035  0.002  0.578
 
band     2 # energy  -11.28640675 # occ.  2.00000000
 
ion      s      p      d    tot
    1  0.330  0.017  0.003  0.349
    2  0.330  0.017  0.003  0.349
tot    0.659  0.034  0.006  0.699
 
band     3 # energy   -7.10958975 # occ.  2.00000000
 
ion      s      p      d    tot
    1  0.002  0.198  0.006  0.206
    2  0.002  0.198  0.006  0.206
tot    0.004  0.396  0.013  0.413
 
band     4 # energy   -5.46483602 # occ.  2.00000000
 
ion      s      p      d    tot
    1  0.007  0.236  0.011  0.254
    2  0.007  0.236  0.011  0.254
tot    0.013  0.473  0.021  0.507
 
band     5 # energy   -4.22222125 # occ.  2.00000000
 
ion      s      p      d    tot
    1  0.023  0.222  0.001  0.246
    2  0.023  0.222  0.001  0.246
tot    0.046  0.443  0.002  0.492
 
band     6 # energy   -1.73020488 # occ.  0.00000000
 
ion      s      p      d    tot
    1  0.039  0.164  0.015  0.217
    2  0.039  0.164  0.015  0.217
tot    0.077  0.328  0.030  0.435
 
band     7 # energy    0.26478999 # occ.  0.00000000
 
ion      s      p      d    tot
    1  0.022  0.232  0.013  0.267
    2  0.022  0.232  0.013  0.267
tot    0.044  0.465  0.026  0.534
 
band     8 # energy    0.62867789 # occ.  0.00000000
 
ion      s      p      d    tot
    1  0.021  0.202  0.019  0.241
    2  0.021  0.202  0.019  0.241
tot    0.041  0.404  0.038  0.483
 
band     9 # energy    2.08525616 # occ.  0.00000000
 
ion      s      p      d    tot