<?xml version="1.0" encoding="ISO-8859-1"?>
<modeling>
 <generator>
  <i name="program" type="string">vasp </i>
  <i name="version" type="string">6.4.2  </i>
  <i name="subversion" type="string">20Jul23 (build Nov 14 2023 12:59:38) complex                          parallel </i>
  <i name="platform" type="string">LinuxIFC </i>
  <i name="date" type="string">2023 12 18 </i>
  <i name="time" type="string">09:39:00 </i>
 </generator>
 <incar>
  <i type="string" name="PREC">Accurate</i>
  <i type="string" name="ALGO">Normal</i>
  <i type="logical" name="ADDGRID"> T  </i>
  <i type="int" name="ISPIN">     1</i>
  <i name="AMIX">      0.10000000</i>
  <i name="BMIX">      0.00010000</i>
  <i type="int" name="NELM">   200</i>
  <i type="int" name="NELMDL">   -12</i>
  <i type="int" name="NELMIN">     6</i>
  <i type="int" name="IBRION">     2</i>
  <i name="EDIFF">      0.00000100</i>
  <i name="EDIFFG">     -0.01000000</i>
  <i type="int" name="NSW">     0</i>
  <i type="int" name="ISIF">    -1</i>
  <i name="ENCUT">    234.78975000</i>
  <i name="POTIM">      0.50000000</i>
  <i type="int" name="NEDOS">  6001</i>
  <i type="logical" name="LPLANE"> T  </i>
  <i type="int" name="ISMEAR">     0</i>
  <i name="SIGMA">      0.01000000</i>
  <i type="int" name="NWRITE">     1</i>
  <i type="logical" name="LWAVE"> F  </i>
  <i type="logical" name="LCHARG"> F  </i>
  <i type="int" name="LORBIT">    10</i>
  <i type="logical" name="LASPH"> T  </i>
  <i type="logical" name="LEPSILON"> T  </i>
  <i type="int" name="IVDW">     0</i>
 </incar>
 <primitive_cell>
  <structure name="primitive_cell" >
   <crystal>
    <varray name="basis" >
     <v>       3.60689259       0.00000000       0.00000000 </v>
     <v>      -1.80344629       3.12366061       0.00000000 </v>
     <v>       0.00000000       0.00000000      24.00000000 </v>
    </varray>
    <i name="volume">    270.40099890 </i>
    <varray name="rec_basis" >
     <v>       0.27724696       0.16006861       0.00000000 </v>
     <v>       0.00000000       0.32013721       0.00000000 </v>
     <v>       0.00000000       0.00000000       0.04166667 </v>
    </varray>
   </crystal>
   <varray name="positions" >
    <v>       0.66666669       0.33333334       0.30422876 </v>
    <v>       0.33333334       0.66666669       0.36243792 </v>
   </varray>
  </structure>
  <varray name="primitive_index" >
   <v type="int" >        1 </v>
   <v type="int" >        2 </v>
  </varray>
 </primitive_cell>
 <kpoints>
  <generation param="Gamma">
   <v type="int" name="divisions">      13       13        1 </v>
   <v name="usershift">      0.00000000       0.00000000       0.00000000 </v>
   <v name="genvec1">      0.07692308       0.00000000       0.00000000 </v>
   <v name="genvec2">      0.00000000       0.07692308       0.00000000 </v>
   <v name="genvec3">      0.00000000       0.00000000       1.00000000 </v>
   <v name="shift">      0.00000000       0.00000000       0.00000000 </v>
  </generation>
  <varray name="kpointlist" >
   <v>       0.00000000       0.00000000       0.00000000 </v>
   <v>       0.07692308       0.00000000       0.00000000 </v>
   <v>       0.15384615       0.00000000       0.00000000 </v>
   <v>       0.23076923      -0.00000000       0.00000000 </v>
   <v>       0.30769231       0.00000000       0.00000000 </v>
   <v>       0.38461538      -0.00000000       0.00000000 </v>
   <v>       0.46153846      -0.00000000       0.00000000 </v>
   <v>       0.07692308       0.07692308       0.00000000 </v>
   <v>       0.15384615       0.07692308       0.00000000 </v>
   <v>       0.23076923       0.07692308       0.00000000 </v>
   <v>       0.30769231       0.07692308       0.00000000 </v>
   <v>       0.38461538       0.07692308       0.00000000 </v>
   <v>       0.46153846       0.07692308       0.00000000 </v>
   <v>       0.15384615       0.15384615       0.00000000 </v>
   <v>       0.23076923       0.15384615       0.00000000 </v>
   <v>       0.30769231       0.15384615       0.00000000 </v>
   <v>       0.38461538       0.15384615       0.00000000 </v>
   <v>       0.23076923       0.23076923       0.00000000 </v>
   <v>       0.30769231       0.23076923       0.00000000 </v>
   <v>       0.38461538       0.23076923       0.00000000 </v>
   <v>       0.30769231       0.30769231       0.00000000 </v>
  </varray>
  <varray name="weights" >
   <v>       0.00591716 </v>
   <v>       0.03550296 </v>
   <v>       0.03550296 </v>
   <v>       0.03550296 </v>
   <v>       0.03550296 </v>
   <v>       0.03550296 </v>
   <v>       0.03550296 </v>
   <v>       0.03550296 </v>
   <v>       0.07100592 </v>
   <v>       0.07100592 </v>
   <v>       0.07100592 </v>
   <v>       0.07100592 </v>
   <v>       0.03550296 </v>
   <v>       0.03550296 </v>
   <v>       0.07100592 </v>
   <v>       0.07100592 </v>
   <v>       0.07100592 </v>
   <v>       0.03550296 </v>
   <v>       0.07100592 </v>
   <v>       0.03550296 </v>
   <v>       0.03550296 </v>
  </varray>
 </kpoints>
 <parameters>
  <separator name="general" >
   <i type="string" name="SYSTEM">unknown system</i>
   <i type="logical" name="LCOMPAT"> F  </i>
  </separator>
  <separator name="electronic" >
   <i type="string" name="PREC">accura</i>
   <i name="ENMAX">    234.78975000</i>
   <i name="ENAUG">    462.75800000</i>
   <i name="EDIFF">      0.00000100</i>
   <i type="int" name="IALGO">    38</i>
   <i type="int" name="IWAVPR">    10</i>
   <i type="int" name="NBANDS">    16</i>
   <i type="int" name="NBANDSLOW">    -1</i>
   <i type="int" name="NBANDSHIGH">    -1</i>
   <i name="NELECT">     10.00000000</i>
   <i type="int" name="TURBO">     0</i>
   <i type="int" name="IRESTART">     0</i>
   <i type="int" name="NREBOOT">     0</i>
   <i type="int" name="NMIN">     0</i>
   <i name="EREF">      0.00000000</i>
   <separator name="electronic smearing" >
    <i type="int" name="ISMEAR">     0</i>
    <i name="SIGMA">      0.01000000</i>
    <i name="KSPACING">      0.50000000</i>
    <i type="logical" name="KGAMMA"> T  </i>
    <i type="logical" name="KBLOWUP"> T  </i>
   </separator>
   <separator name="electronic projectors" >
    <i type="logical" name="LREAL"> F  </i>
    <v name="ROPT">      0.00000000</v>
    <i type="int" name="LMAXPAW">  -100</i>
    <i type="int" name="LMAXMIX">     2</i>
    <i type="logical" name="NLSPLINE"> F  </i>
   </separator>
   <separator name="electronic startup" >
    <i type="int" name="ISTART">     0</i>
    <i type="int" name="ICHARG">     2</i>
    <i type="int" name="INIWAV">     1</i>
   </separator>
   <separator name="electronic spin" >
    <i type="int" name="ISPIN">     1</i>
    <i type="logical" name="LNONCOLLINEAR"> F  </i>
    <v name="MAGMOM">      1.00000000      1.00000000</v>
    <i name="NUPDOWN">     -1.00000000</i>
    <i type="logical" name="LSORBIT"> F  </i>
    <v name="SAXIS">      0.00000000      0.00000000      1.00000000</v>
    <i type="logical" name="LSPIRAL"> F  </i>
    <v name="QSPIRAL">      0.00000000      0.00000000      0.00000000</v>
    <i type="logical" name="LZEROZ"> F  </i>
   </separator>
   <separator name="electronic exchange-correlation" >
    <i type="logical" name="LASPH"> T  </i>
    <i type="logical" name="LMETAGGA"> F  </i>
   </separator>
   <separator name="electronic convergence" >
    <i type="int" name="NELM">   200</i>
    <i type="int" name="NELMDL">   -12</i>
    <i type="int" name="NELMIN">     6</i>
    <i name="ENINI">    234.78975000</i>
    <separator name="electronic convergence detail" >
     <i type="logical" name="LDIAG"> T  </i>
     <i type="logical" name="LSUBROT"> F  </i>
     <i name="WEIMIN">      0.00000000</i>
     <i name="EBREAK">      0.00000002</i>
     <i name="DEPER">      0.30000000</i>
     <i type="int" name="NRMM">     4</i>
     <i name="TIME">      0.40000000</i>
    </separator>
   </separator>
   <separator name="electronic mixer" >
    <i name="AMIX">      0.10000000</i>
    <i name="BMIX">      0.00010000</i>
    <i name="AMIN">      0.10000000</i>
    <i name="AMIX_MAG">      0.40000000</i>
    <i name="BMIX_MAG">      0.00010000</i>
    <separator name="electronic mixer details" >
     <i type="int" name="IMIX">     4</i>
     <i type="logical" name="MIXFIRST"> F  </i>
     <i type="int" name="MAXMIX">   -45</i>
     <i name="WC">    100.00000000</i>
     <i type="int" name="INIMIX">     1</i>
     <i type="int" name="MIXPRE">     1</i>
     <i type="int" name="MREMOVE">     5</i>
    </separator>
   </separator>
   <separator name="electronic dipolcorrection" >
    <i type="logical" name="LDIPOL"> F  </i>
    <i type="logical" name="LMONO"> F  </i>
    <i type="int" name="IDIPOL">     0</i>
    <i name="EPSILON">      1.00000000</i>
    <v name="DIPOL">   -100.00000000   -100.00000000   -100.00000000</v>
    <i name="EFIELD">      0.00000000</i>
   </separator>
  </separator>
  <separator name="grids" >
   <i type="int" name="NGX">    18</i>
   <i type="int" name="NGY">    18</i>
   <i type="int" name="NGZ">   120</i>
   <i type="int" name="NGXF">    36</i>
   <i type="int" name="NGYF">    36</i>
   <i type="int" name="NGZF">   240</i>
   <i type="logical" name="ADDGRID"> T  </i>
  </separator>
  <separator name="ionic" >
   <i type="int" name="NSW">     0</i>
   <i type="int" name="IBRION">    -1</i>
   <i type="int" name="MDALGO">     0</i>
   <i type="int" name="ISIF">    -1</i>
   <i name="PSTRESS">      0.00000000</i>
   <i name="EDIFFG">     -0.01000000</i>
   <i type="int" name="NFREE">     1</i>
   <i name="POTIM">      0.50000000</i>
   <i name="SMASS">     -3.00000000</i>
   <i name="SCALEE">      1.00000000</i>
  </separator>
  <separator name="ionic md" >
   <i name="TEBEG">      0.00010000</i>
   <i name="TEEND">      0.00010000</i>
   <i type="int" name="NBLOCK">     1</i>
   <i type="int" name="KBLOCK">     1</i>
   <i type="int" name="NPACO">   256</i>
   <i name="APACO">     10.00000000</i>
  </separator>
  <separator name="symmetry" >
   <i type="int" name="ISYM">     2</i>
   <i name="SYMPREC">      0.00001000</i>
  </separator>
  <separator name="dos" >
   <i type="int" name="LORBIT">    10</i>
   <v name="RWIGS">     -1.00000000</v>
   <i type="int" name="NEDOS">  6001</i>
   <i name="EMIN">     10.00000000</i>
   <i name="EMAX">    -10.00000000</i>
   <i name="EFERMI">      0.00000000</i>
  </separator>
  <separator name="writing" >
   <i type="int" name="NWRITE">     1</i>
   <i type="logical" name="LWAVE"> F  </i>
   <i type="logical" name="LDOWNSAMPLE"> F  </i>
   <i type="logical" name="LCHARG"> F  </i>
   <i type="logical" name="LPARD"> F  </i>
   <i type="logical" name="LVTOT"> F  </i>
   <i type="logical" name="LVHAR"> F  </i>
   <i type="logical" name="LELF"> F  </i>
   <i type="logical" name="LOPTICS"> F  </i>
   <v name="STM">      0.00000000      0.00000000      0.00000000      0.00000000      0.00000000      0.00000000      0.00000000</v>
  </separator>
  <separator name="performance" >
   <i type="int" name="NPAR">    16</i>
   <i type="int" name="NSIM">     4</i>
   <i type="int" name="NBLK">    -1</i>
   <i type="logical" name="LPLANE"> T  </i>
   <i type="logical" name="LSCALAPACK"> T  </i>
   <i type="logical" name="LSCAAWARE"> F  </i>
   <i type="logical" name="LSCALU"> F  </i>
   <i type="logical" name="LASYNC"> F  </i>
   <i type="logical" name="LORBITALREAL"> F  </i>
  </separator>
  <separator name="miscellaneous" >
   <i type="int" name="IDIOT">     3</i>
   <i type="int" name="PHON_NSTRUCT">    -1</i>
   <i type="logical" name="LMUSIC"> F  </i>
   <v name="POMASS">     74.92200000</v>
   <v name="DARWINR">      0.00000000</v>
   <v name="DARWINV">      1.00000000</v>
   <i type="logical" name="LCORR"> T  </i>
  </separator>
  <i type="logical" name="GGA_COMPAT"> T  </i>
  <i type="logical" name="LBERRY"> F  </i>
  <i type="int" name="ICORELEVEL">     0</i>
  <i type="logical" name="LDAU"> F  </i>
  <i type="int" name="I_CONSTRAINED_M">     0</i>
  <separator name="electronic exchange-correlation" >
   <i type="string" name="GGA">--</i>
   <i type="int" name="VOSKOWN">     0</i>
   <i type="logical" name="LHFCALC"> F  </i>
   <i type="string" name="PRECFOCK"></i>
   <i type="logical" name="LSYMGRAD"> F  </i>
   <i type="logical" name="LHFONE"> F  </i>
   <i type="logical" name="LRHFCALC"> F  </i>
   <i type="logical" name="LTHOMAS"> F  </i>
   <i type="logical" name="LMODELHF"> F  </i>
   <i type="logical" name="LFOCKACE"> F  </i>
   <i name="ENCUT4O">     -1.00000000</i>
   <i type="int" name="EXXOEP">     0</i>
   <i type="int" name="FOURORBIT">     0</i>
   <i name="AEXX">      0.00000000</i>
   <i name="HFALPHA">      0.00000000</i>
   <i name="MCALPHA">      0.00000000</i>
   <i name="ALDAX">      1.00000000</i>
   <i name="AGGAX">      1.00000000</i>
   <i name="ALDAC">      1.00000000</i>
   <i name="AGGAC">      1.00000000</i>
   <i type="int" name="NKREDX">     1</i>
   <i type="int" name="NKREDY">     1</i>
   <i type="int" name="NKREDZ">     1</i>
   <i type="logical" name="SHIFTRED"> F  </i>
   <i type="logical" name="ODDONLY"> F  </i>
   <i type="logical" name="EVENONLY"> F  </i>
   <i type="int" name="LMAXFOCK">     0</i>
   <i type="int" name="NMAXFOCKAE">     0</i>
   <i type="logical" name="LFOCKAEDFT"> F  </i>
   <i name="HFSCREEN">      0.00000000</i>
   <i name="HFSCREENC">      0.00000000</i>
   <i type="int" name="NBANDSGWLOW">     0</i>
  </separator>
  <separator name="vdW DFT" >
   <i type="logical" name="LUSE_VDW"> F  </i>
   <i type="int" name="IVDW_NL">     1</i>
   <i type="logical" name="LSPIN_VDW"> F  </i>
   <i name="Zab_VDW">     -0.84910000</i>
   <i name="PARAM1">      0.12340000</i>
   <i name="PARAM2">      1.00000000</i>
   <i name="PARAM3">      0.00000000</i>
  </separator>
  <separator name="model GW" >
   <i type="int" name="MODEL_GW">     0</i>
   <i name="MODEL_EPS0">     81.12029967</i>
   <i name="MODEL_ALPHA">      1.00000000</i>
  </separator>
  <separator name="linear response parameters" >
   <i type="logical" name="LEPSILON"> T  </i>
   <i type="logical" name="LRPA"> F  </i>
   <i type="logical" name="LNABLA"> F  </i>
   <i type="logical" name="LVEL"> F  </i>
   <i name="CSHIFT">      0.10000000</i>
   <i name="OMEGAMAX">     -1.00000000</i>
   <i name="DEG_THRESHOLD">      0.00200000</i>
   <i name="RTIME">     -0.10000000</i>
   <i name="WPLASMAI">      0.00000000</i>
   <v name="DFIELD">      0.00000000      0.00000000      0.00000000</v>
   <v name="WPLASMA">      0.00000000      0.00000000      0.00000000      0.00000000      0.00000000      0.00000000      0.00000000      0.00000000      0.00000000</v>
  </separator>
  <separator name="orbital magnetization" >
   <i type="logical" name="NUCIND"> F  </i>
   <v name="MAGPOS">      0.00000000      0.00000000      0.00000000</v>
   <i type="logical" name="LNICSALL"> T  </i>
   <i type="logical" name="ORBITALMAG"> F  </i>
   <i type="logical" name="LMAGBLOCH"> F  </i>
   <i type="logical" name="LCHIMAG"> F  </i>
   <i type="logical" name="LGAUGE"> T  </i>
   <i type="int" name="MAGATOM">     0</i>
   <v name="MAGDIPOL">      0.00000000      0.00000000      0.00000000</v>
   <v name="AVECCONST">      0.00000000      0.00000000      0.00000000</v>
  </separator>
  <separator name="response functions" >
   <i type="logical" name="LALL_IN_ONE"> F  </i>
   <i type="int" name="IALL_IN_ONE">    -1</i>
   <i type="int" name="NBANDS_WAVE">    -1</i>
   <i type="logical" name="LFINITE_TEMPERATURE"> F  </i>
   <i type="logical" name="LADDER"> F  </i>
   <i type="logical" name="LRPAFORCE"> F  </i>
   <i type="logical" name="LFXC"> F  </i>
   <i type="logical" name="LHARTREE"> T  </i>
   <i type="int" name="IBSE">     0</i>
   <v type="int" name="KPOINT">    -1     0     0     0</v>
   <i type="logical" name="LTCTC"> F  </i>
   <i type="logical" name="LTCTE"> F  </i>
   <i type="logical" name="LTETE"> F  </i>
   <i type="logical" name="LTRIPLET"> F  </i>
   <i type="logical" name="LFXCEPS"> F  </i>
   <i type="logical" name="LFXHEG"> F  </i>
   <i type="int" name="NATURALO">     2</i>
   <i type="logical" name="LHOLEGF"> F  </i>
   <i type="logical" name="L2ORDER"> F  </i>
   <i type="logical" name="LDMP1"> F  </i>
   <i type="logical" name="LMP2LT"> F  </i>
   <i type="logical" name="LSMP2LT"> F  </i>
   <i type="logical" name="LGWLF"> F  </i>
   <i name="ENCUTGW">     -1.60000002</i>
   <i name="ENCUTGWSOFT">     -1.60000002</i>
   <i name="ENCUTLF">     -1.00000000</i>
   <i type="logical" name="LESF_SPLINES"> F  </i>
   <i type="int" name="LMAXMP2">    -1</i>
   <i name="SCISSOR">      0.00000000</i>
   <i type="int" name="NOMEGA">     0</i>
   <i type="int" name="NOMEGAR">     0</i>
   <i type="int" name="NBANDSGW">    -1</i>
   <i type="int" name="NBANDSO">    -1</i>
   <i type="int" name="NBANDSV">    -1</i>
   <i type="int" name="NELMGW">     1</i>
   <i type="int" name="NELMHF">     1</i>
   <i type="int" name="DIM">     3</i>
   <i type="int" name="IESPILON">     4</i>
   <i type="int" name="ANTIRES">     0</i>
   <i name="OMEGAMAX">    -30.00000000</i>
   <i name="OMEGAMIN">    -30.00000000</i>
   <i name="OMEGATL">   -200.00000000</i>
   <i type="int" name="OMEGAGRID">     0</i>
   <i name="CSHIFT">     -0.10000000</i>
   <i type="logical" name="LSELFENERGY"> F  </i>
   <i type="logical" name="LSPECTRAL"> F  </i>
   <i type="logical" name="LSPECTRALGW"> F  </i>
   <i type="logical" name="LSINGLES"> F  </i>
   <i type="logical" name="LFERMIGW"> F  </i>
   <i type="logical" name="ODDONLYGW"> F  </i>
   <i type="logical" name="EVENONLYGW"> F  </i>
   <i type="int" name="NKREDLFX">     1</i>
   <i type="int" name="NKREDLFY">     1</i>
   <i type="int" name="NKREDLFZ">     1</i>
   <i type="int" name="MAXMEM">  2800</i>
   <i type="int" name="TELESCOPE">     0</i>
   <i type="int" name="NTAUPAR">    -1</i>
   <i type="int" name="NOMEGAPAR">    -1</i>
   <i name="DAMP_NEWTON">      0.80000001</i>
   <i name="LAMBDA">      1.00000000</i>
  </separator>
  <separator name="External order field" >
   <i name="OFIELD_KAPPA">      0.00000000</i>
   <v name="OFIELD_K">      0.00000000      0.00000000      0.00000000</v>
   <i name="OFIELD_Q6_NEAR">      0.00000000</i>
   <i name="OFIELD_Q6_FAR">      0.00000000</i>
   <i name="OFIELD_A">      0.00000000</i>
  </separator>
  <separator name="optional k-points parameters" >
   <i type="int" name="KPOINTS_OPT_MODE">     1</i>
   <i type="logical" name="LKPOINTS_OPT"> F  </i>
  </separator>
 </parameters>
 <atominfo>
  <atoms>       2 </atoms>
  <types>       1 </types>
  <array name="atoms" >
   <dimension dim="1">ion</dimension>
   <field type="string">element</field>
   <field type="int">atomtype</field>
   <set>
    <rc><c>As</c><c>   1</c></rc>
    <rc><c>As</c><c>   1</c></rc>
   </set>
  </array>
  <array name="atomtypes" >
   <dimension dim="1">type</dimension>
   <field type="int">atomspertype</field>
   <field type="string">element</field>
   <field>mass</field>
   <field>valence</field>
   <field type="string">pseudopotential</field>
   <set>
    <rc><c>   2</c><c>As</c><c>     74.92200000</c><c>      5.00000000</c><c>  PAW_PBE As_GW 20Mar2012               </c></rc>
   </set>
  </array>
 </atominfo>
 <structure name="initialpos" >
  <crystal>
   <varray name="basis" >
    <v>       3.60689259       0.00000000       0.00000000 </v>
    <v>      -1.80344629       3.12366061       0.00000000 </v>
    <v>       0.00000000       0.00000000      24.00000000 </v>
   </varray>
   <i name="volume">    270.40099890 </i>
   <varray name="rec_basis" >
    <v>       0.27724696       0.16006861       0.00000000 </v>
    <v>       0.00000000       0.32013721       0.00000000 </v>
    <v>       0.00000000       0.00000000       0.04166667 </v>
   </varray>
  </crystal>
  <varray name="positions" >
   <v>       0.66666669       0.33333334       0.30422876 </v>
   <v>       0.33333334       0.66666669       0.36243792 </v>
  </varray>
 </structure>
 <calculation>
  <scstep>
   <time name="dav">    0.12    0.12</time>
   <time name="total">    0.28    0.28</time>
   <energy>
    <i name="alphaZ">      3.50922535 </i>
    <i name="ewald">    905.41950464 </i>
    <i name="hartreedc">  -1181.46406637 </i>
    <i name="XCdc">    -23.94413354 </i>
    <i name="pawpsdc">    294.12882363 </i>
    <i name="pawaedc">   -251.25503797 </i>
    <i name="eentropy">     -0.00012553 </i>
    <i name="bandstr">    -57.27215896 </i>
    <i name="atom">    340.36393574 </i>
    <i name="e_fr_energy">     29.48596699 </i>
    <i name="e_wo_entrp">     29.48609252 </i>
    <i name="e_0_energy">     29.48602976 </i>
   </energy>
  </scstep>
  <scstep>
   <time name="dav">    0.17    0.17</time>
   <time name="total">    0.17    0.17</time>
   <energy>
    <i name="e_fr_energy">     -8.17562293 </i>
    <i name="e_wo_entrp">     -8.17562293 </i>
    <i name="e_0_energy">     -8.17562293 </i>
   </energy>
  </scstep>
  <scstep>
   <time name="dav">    0.12    0.12</time>
   <time name="total">    0.12    0.12</time>
   <energy>
    <i name="e_fr_energy">     -9.36643613 </i>
    <i name="e_wo_entrp">     -9.36643613 </i>
    <i name="e_0_energy">     -9.36643613 </i>
   </energy>
  </scstep>
  <scstep>
   <time name="dav">    0.22    0.22</time>
   <time name="total">    0.22    0.22</time>
   <energy>
    <i name="e_fr_energy">     -9.40225901 </i>
    <i name="e_wo_entrp">     -9.40225901 </i>
    <i name="e_0_energy">     -9.40225901 </i>
   </energy>
  </scstep>
  <scstep>
   <time name="dav">    0.13    0.13</time>
   <time name="total">    0.13    0.14</time>
   <energy>
    <i name="e_fr_energy">     -9.40248161 </i>
    <i name="e_wo_entrp">     -9.40248161 </i>
    <i name="e_0_energy">     -9.40248161 </i>
   </energy>
  </scstep>
  <scstep>
   <time name="dav">    0.21    0.21</time>
   <time name="total">    0.21    0.21</time>
   <energy>
    <i name="e_fr_energy">     -9.40248469 </i>
    <i name="e_wo_entrp">     -9.40248469 </i>
    <i name="e_0_energy">     -9.40248469 </i>
   </energy>
  </scstep>
  <scstep>
   <time name="dav">    0.17    0.17</time>
   <time name="total">    0.17    0.17</time>
   <energy>
    <i name="e_fr_energy">     -9.40248471 </i>
    <i name="e_wo_entrp">     -9.40248471 </i>
    <i name="e_0_energy">     -9.40248471 </i>
   </energy>
  </scstep>
  <scstep>
   <time name="dav">    0.19    0.19</time>
   <time name="total">    0.19    0.19</time>
   <energy>
    <i name="e_fr_energy">     -9.40248471 </i>
    <i name="e_wo_entrp">     -9.40248471 </i>
    <i name="e_0_energy">     -9.40248471 </i>
   </energy>
  </scstep>
  <scstep>
   <time name="dav">    0.14    0.14</time>
   <time name="total">    0.14    0.14</time>
   <energy>
    <i name="e_fr_energy">     -9.40248471 </i>
    <i name="e_wo_entrp">     -9.40248471 </i>
    <i name="e_0_energy">     -9.40248471 </i>
   </energy>
  </scstep>
  <scstep>
   <time name="dav">    0.12    0.12</time>
   <time name="total">    0.12    0.12</time>
   <energy>
    <i name="e_fr_energy">     -9.40248471 </i>
    <i name="e_wo_entrp">     -9.40248471 </i>
    <i name="e_0_energy">     -9.40248471 </i>
   </energy>
  </scstep>
  <scstep>
   <time name="dav">    0.09    0.09</time>
   <time name="total">    0.09    0.09</time>
   <energy>
    <i name="e_fr_energy">     -9.40248471 </i>
    <i name="e_wo_entrp">     -9.40248471 </i>
    <i name="e_0_energy">     -9.40248471 </i>
   </energy>
  </scstep>
  <scstep>
   <time name="dav">    0.09    0.09</time>
   <time name="total">    0.11    0.11</time>
   <energy>
    <i name="e_fr_energy">     -9.40248471 </i>
    <i name="e_wo_entrp">     -9.40248471 </i>
    <i name="e_0_energy">     -9.40248471 </i>
   </energy>
  </scstep>
  <scstep>
   <time name="dav">    0.18    0.18</time>
   <time name="total">    0.36    0.36</time>
   <energy>
    <i name="e_fr_energy">     -9.38780483 </i>
    <i name="e_wo_entrp">     -9.38780483 </i>
    <i name="e_0_energy">     -9.38780483 </i>
   </energy>
  </scstep>
  <scstep>
   <time name="dav">    0.18    0.18</time>
   <time name="total">    0.36    0.36</time>
   <energy>
    <i name="e_fr_energy">     -9.34578053 </i>
    <i name="e_wo_entrp">     -9.34578053 </i>
    <i name="e_0_energy">     -9.34578053 </i>
   </energy>
  </scstep>
  <scstep>
   <time name="dav">    0.19    0.19</time>
   <time name="total">    0.38    0.38</time>
   <energy>
    <i name="e_fr_energy">     -9.34173128 </i>
    <i name="e_wo_entrp">     -9.34173128 </i>
    <i name="e_0_energy">     -9.34173128 </i>
   </energy>
  </scstep>
  <scstep>
   <time name="dav">    0.21    0.21</time>
   <time name="total">    0.39    0.39</time>
   <energy>
    <i name="e_fr_energy">     -9.34186108 </i>
    <i name="e_wo_entrp">     -9.34186108 </i>
    <i name="e_0_energy">     -9.34186108 </i>
   </energy>
  </scstep>
  <scstep>
   <time name="dav">    0.17    0.17</time>
   <time name="total">    0.36    0.36</time>
   <energy>
    <i name="e_fr_energy">     -9.34174296 </i>
    <i name="e_wo_entrp">     -9.34174296 </i>
    <i name="e_0_energy">     -9.34174296 </i>
   </energy>
  </scstep>
  <scstep>
   <time name="dav">    0.18    0.18</time>
   <time name="total">    0.36    0.36</time>
   <energy>
    <i name="e_fr_energy">     -9.34175425 </i>
    <i name="e_wo_entrp">     -9.34175425 </i>
    <i name="e_0_energy">     -9.34175425 </i>
   </energy>
  </scstep>
  <scstep>
   <time name="dav">    0.14    0.22</time>
   <time name="total">    0.31    0.38</time>
   <energy>
    <i name="alphaZ">      3.50922535 </i>
    <i name="ewald">    905.41950464 </i>
    <i name="hartreedc">  -1187.69619461 </i>
    <i name="XCdc">    -23.49292169 </i>
    <i name="pawpsdc">    332.31804440 </i>
    <i name="pawaedc">   -289.59039200 </i>
    <i name="eentropy">     -0.00000000 </i>
    <i name="bandstr">    -90.17295549 </i>
    <i name="atom">    340.36393574 </i>
    <i name="e_fr_energy">     -9.34175366 </i>
    <i name="e_wo_entrp">     -9.34175366 </i>
    <i name="e_0_energy">     -9.34175366 </i>
   </energy>
  </scstep>
  <structure>
   <crystal>
    <varray name="basis" >
     <v>       3.60689259       0.00000000       0.00000000 </v>
     <v>      -1.80344629       3.12366061       0.00000000 </v>
     <v>       0.00000000       0.00000000      24.00000000 </v>
    </varray>
    <i name="volume">    270.40099890 </i>
    <varray name="rec_basis" >
     <v>       0.27724696       0.16006861       0.00000000 </v>
     <v>       0.00000000       0.32013721       0.00000000 </v>
     <v>       0.00000000       0.00000000       0.04166667 </v>
    </varray>
   </crystal>
   <varray name="positions" >
    <v>       0.66666669       0.33333334       0.30422876 </v>
    <v>       0.33333334       0.66666669       0.36243792 </v>
   </varray>
  </structure>
  <varray name="forces" >
   <v>       0.00000000       0.00000000       0.00000000 </v>
   <v>       0.00000000       0.00000000       0.00000000 </v>
  </varray>
  <varray name="stress" >
   <v>       0.00000000       0.00000000       0.00000000 </v>
   <v>       0.00000000       0.00000000       0.00000000 </v>
   <v>       0.00000000       0.00000000       0.00000000 </v>
  </varray>
  <energy>
   <i name="e_fr_energy">     -9.34175366 </i>
   <i name="e_wo_entrp">     -9.34175366 </i>
   <i name="e_0_energy">     -9.34175366 </i>
  </energy>
  <scstep>
   <time name="total">    0.19    0.19</time>
   <energy>
    <i name="e_fr_energy">    -40.00128007 </i>
    <i name="e_wo_entrp">    -40.00128007 </i>
    <i name="e_0_energy">    -40.00128007 </i>
   </energy>
  </scstep>
  <scstep>
   <time name="total">    0.18    0.25</time>
   <energy>
    <i name="e_fr_energy">    -36.75104225 </i>
    <i name="e_wo_entrp">    -36.75104225 </i>
    <i name="e_0_energy">    -36.75104225 </i>
   </energy>
  </scstep>
  <scstep>
   <time name="total">    0.18    0.25</time>
   <energy>
    <i name="e_fr_energy">    -36.94919411 </i>
    <i name="e_wo_entrp">    -36.94919411 </i>
    <i name="e_0_energy">    -36.94919411 </i>
   </energy>
  </scstep>
  <scstep>
   <time name="total">    0.16    0.23</time>
   <energy>
    <i name="e_fr_energy">    -36.97051627 </i>
    <i name="e_wo_entrp">    -36.97051627 </i>
    <i name="e_0_energy">    -36.97051627 </i>
   </energy>
  </scstep>
  <scstep>
   <time name="total">    0.16    0.23</time>
   <energy>
    <i name="e_fr_energy">    -36.97177159 </i>
    <i name="e_wo_entrp">    -36.97177159 </i>
    <i name="e_0_energy">    -36.97177159 </i>
   </energy>
  </scstep>
  <scstep>
   <time name="total">    0.16    0.22</time>
   <energy>
    <i name="e_fr_energy">    -36.97192946 </i>
    <i name="e_wo_entrp">    -36.97192946 </i>
    <i name="e_0_energy">    -36.97192946 </i>
   </energy>
  </scstep>
  <scstep>
   <time name="total">    0.16    0.22</time>
   <energy>
    <i name="e_fr_energy">    -36.97194020 </i>
    <i name="e_wo_entrp">    -36.97194020 </i>
    <i name="e_0_energy">    -36.97194020 </i>
   </energy>
  </scstep>
  <scstep>
   <time name="total">    0.16    0.22</time>
   <energy>
    <i name="e_fr_energy">    -36.97194139 </i>
    <i name="e_wo_entrp">    -36.97194139 </i>
    <i name="e_0_energy">    -36.97194139 </i>
   </energy>
  </scstep>
  <scstep>
   <time name="total">    0.16    0.22</time>
   <energy>
    <i name="e_fr_energy">    -36.97194145 </i>
    <i name="e_wo_entrp">    -36.97194145 </i>
    <i name="e_0_energy">    -36.97194145 </i>
   </energy>
  </scstep>
  <scstep>
   <time name="total">    0.19    0.19</time>
   <energy>
    <i name="e_fr_energy">    -49.42744655 </i>
    <i name="e_wo_entrp">    -49.42744655 </i>
    <i name="e_0_energy">    -49.42744655 </i>
   </energy>
  </scstep>
  <scstep>
   <time name="total">    0.18    0.25</time>
   <energy>
    <i name="e_fr_energy">    -44.24040825 </i>
    <i name="e_wo_entrp">    -44.24040825 </i>
    <i name="e_0_energy">    -44.24040825 </i>
   </energy>
  </scstep>
  <scstep>
   <time name="total">    0.18    0.24</time>
   <energy>
    <i name="e_fr_energy">    -44.38910901 </i>
    <i name="e_wo_entrp">    -44.38910901 </i>
    <i name="e_0_energy">    -44.38910901 </i>
   </energy>
  </scstep>
  <scstep>
   <time name="total">    0.16    0.22</time>
   <energy>
    <i name="e_fr_energy">    -44.40185162 </i>
    <i name="e_wo_entrp">    -44.40185162 </i>
    <i name="e_0_energy">    -44.40185162 </i>
   </energy>
  </scstep>
  <scstep>
   <time name="total">    0.16    0.22</time>
   <energy>
    <i name="e_fr_energy">    -44.40250708 </i>
    <i name="e_wo_entrp">    -44.40250708 </i>
    <i name="e_0_energy">    -44.40250708 </i>
   </energy>
  </scstep>
  <scstep>
   <time name="total">    0.16    0.22</time>
   <energy>
    <i name="e_fr_energy">    -44.40257586 </i>
    <i name="e_wo_entrp">    -44.40257586 </i>
    <i name="e_0_energy">    -44.40257586 </i>
   </energy>
  </scstep>
  <scstep>
   <time name="total">    0.16    0.22</time>
   <energy>
    <i name="e_fr_energy">    -44.40258137 </i>
    <i name="e_wo_entrp">    -44.40258137 </i>
    <i name="e_0_energy">    -44.40258137 </i>
   </energy>
  </scstep>
  <scstep>
   <time name="total">    0.16    0.22</time>
   <energy>
    <i name="e_fr_energy">    -44.40258186 </i>
    <i name="e_wo_entrp">    -44.40258186 </i>
    <i name="e_0_energy">    -44.40258186 </i>
   </energy>
  </scstep>
  <scstep>
   <time name="total">    0.19    0.19</time>
   <energy>
    <i name="e_fr_energy">    -35.45608804 </i>
    <i name="e_wo_entrp">    -35.45608804 </i>
    <i name="e_0_energy">    -35.45608804 </i>
   </energy>
  </scstep>
  <scstep>
   <time name="total">    0.18    0.25</time>
   <energy>
    <i name="e_fr_energy">    -40.52685947 </i>
    <i name="e_wo_entrp">    -40.52685947 </i>
    <i name="e_0_energy">    -40.52685947 </i>
   </energy>
  </scstep>
  <scstep>
   <time name="total">    0.19    0.25</time>
   <energy>
    <i name="e_fr_energy">    -40.62688730 </i>
    <i name="e_wo_entrp">    -40.62688730 </i>
    <i name="e_0_energy">    -40.62688730 </i>
   </energy>
  </scstep>
  <scstep>
   <time name="total">    0.16    0.23</time>
   <energy>
    <i name="e_fr_energy">    -40.63817356 </i>
    <i name="e_wo_entrp">    -40.63817356 </i>
    <i name="e_0_energy">    -40.63817356 </i>
   </energy>
  </scstep>
  <scstep>
   <time name="total">    0.16    0.22</time>
   <energy>
    <i name="e_fr_energy">    -40.63923258 </i>
    <i name="e_wo_entrp">    -40.63923258 </i>
    <i name="e_0_energy">    -40.63923258 </i>
   </energy>
  </scstep>
  <scstep>
   <time name="total">    0.16    0.24</time>
   <energy>
    <i name="e_fr_energy">    -40.63933882 </i>
    <i name="e_wo_entrp">    -40.63933882 </i>
    <i name="e_0_energy">    -40.63933882 </i>
   </energy>
  </scstep>
  <scstep>
   <time name="total">    0.16    0.25</time>
   <energy>
    <i name="e_fr_energy">    -40.63934719 </i>
    <i name="e_wo_entrp">    -40.63934719 </i>
    <i name="e_0_energy">    -40.63934719 </i>
   </energy>
  </scstep>
  <scstep>
   <time name="total">    0.16    0.26</time>
   <energy>
    <i name="e_fr_energy">    -40.63934783 </i>
    <i name="e_wo_entrp">    -40.63934783 </i>
    <i name="e_0_energy">    -40.63934783 </i>
   </energy>
  </scstep>
  <scstep>
   <time name="total">    0.52    0.53</time>
   <energy>
    <i name="e_fr_energy">     -1.79455175 </i>
    <i name="e_wo_entrp">     -1.79455175 </i>
    <i name="e_0_energy">     -1.79455175 </i>
   </energy>
  </scstep>
  <scstep>
   <time name="total">    0.51    0.51</time>
   <energy>
    <i name="e_fr_energy">     -1.83533785 </i>
    <i name="e_wo_entrp">     -1.83533785 </i>
    <i name="e_0_energy">     -1.83533785 </i>
   </energy>
  </scstep>
  <scstep>
   <time name="total">    0.52    0.52</time>
   <energy>
    <i name="e_fr_energy">     -1.83631508 </i>
    <i name="e_wo_entrp">     -1.83631508 </i>
    <i name="e_0_energy">     -1.83631508 </i>
   </energy>
  </scstep>
  <scstep>
   <time name="total">    0.52    0.52</time>
   <energy>
    <i name="e_fr_energy">     -1.83635143 </i>
    <i name="e_wo_entrp">     -1.83635143 </i>
    <i name="e_0_energy">     -1.83635143 </i>
   </energy>
  </scstep>
  <scstep>
   <time name="total">    0.52    0.52</time>
   <energy>
    <i name="e_fr_energy">     -1.83635263 </i>
    <i name="e_wo_entrp">     -1.83635263 </i>
    <i name="e_0_energy">     -1.83635263 </i>
   </energy>
  </scstep>
  <scstep>
   <time name="total">    0.52    0.52</time>
   <energy>
    <i name="e_fr_energy">     -1.83635272 </i>
    <i name="e_wo_entrp">     -1.83635272 </i>
    <i name="e_0_energy">     -1.83635272 </i>
   </energy>
  </scstep>
  <scstep>
   <time name="total">    0.52    0.52</time>
   <energy>
    <i name="e_fr_energy">     -2.14589772 </i>
    <i name="e_wo_entrp">     -2.14589772 </i>
    <i name="e_0_energy">     -2.14589772 </i>
   </energy>
  </scstep>
  <scstep>
   <time name="total">    0.52    0.52</time>
   <energy>
    <i name="e_fr_energy">     -2.21107920 </i>
    <i name="e_wo_entrp">     -2.21107920 </i>
    <i name="e_0_energy">     -2.21107920 </i>
   </energy>
  </scstep>
  <scstep>
   <time name="total">    0.52    0.52</time>
   <energy>
    <i name="e_fr_energy">     -2.21227157 </i>
    <i name="e_wo_entrp">     -2.21227157 </i>
    <i name="e_0_energy">     -2.21227157 </i>
   </energy>
  </scstep>
  <scstep>
   <time name="total">    0.52    0.52</time>
   <energy>
    <i name="e_fr_energy">     -2.21231888 </i>
    <i name="e_wo_entrp">     -2.21231888 </i>
    <i name="e_0_energy">     -2.21231888 </i>
   </energy>
  </scstep>
  <scstep>
   <time name="total">    0.52    0.52</time>
   <energy>
    <i name="e_fr_energy">     -2.21232030 </i>
    <i name="e_wo_entrp">     -2.21232030 </i>
    <i name="e_0_energy">     -2.21232030 </i>
   </energy>
  </scstep>
  <scstep>
   <time name="total">    0.52    0.52</time>
   <energy>
    <i name="e_fr_energy">     -2.21232040 </i>
    <i name="e_wo_entrp">     -2.21232040 </i>
    <i name="e_0_energy">     -2.21232040 </i>
   </energy>
  </scstep>
  <scstep>
   <time name="total">    0.52    0.52</time>
   <energy>
    <i name="e_fr_energy">     -0.76721668 </i>
    <i name="e_wo_entrp">     -0.76721668 </i>
    <i name="e_0_energy">     -0.76721668 </i>
   </energy>
  </scstep>
  <scstep>
   <time name="total">    0.52    0.52</time>
   <energy>
    <i name="e_fr_energy">     -0.80846610 </i>
    <i name="e_wo_entrp">     -0.80846610 </i>
    <i name="e_0_energy">     -0.80846610 </i>
   </energy>
  </scstep>
  <scstep>
   <time name="total">    0.52    0.52</time>
   <energy>
    <i name="e_fr_energy">     -0.80891703 </i>
    <i name="e_wo_entrp">     -0.80891703 </i>
    <i name="e_0_energy">     -0.80891703 </i>
   </energy>
  </scstep>
  <scstep>
   <time name="total">    0.52    0.52</time>
   <energy>
    <i name="e_fr_energy">     -0.80893298 </i>
    <i name="e_wo_entrp">     -0.80893298 </i>
    <i name="e_0_energy">     -0.80893298 </i>
   </energy>
  </scstep>
  <scstep>
   <time name="total">    0.55    0.55</time>
   <energy>
    <i name="e_fr_energy">     -0.80893368 </i>
    <i name="e_wo_entrp">     -0.80893368 </i>
    <i name="e_0_energy">     -0.80893368 </i>
   </energy>
  </scstep>
  <scstep>
   <time name="total">    0.74    0.74</time>
   <energy>
    <i name="e_fr_energy">     -0.80893373 </i>
    <i name="e_wo_entrp">     -0.80893373 </i>
    <i name="e_0_energy">     -0.80893373 </i>
   </energy>
  </scstep>
  <varray name="dielectric_ipa" >
   <v>       3.70938326      -0.00000000       0.00000000 </v>
   <v>       0.00000000       3.70938326      -0.00000000 </v>
   <v>       0.00000000      -0.00000000       2.08268176 </v>
  </varray>
  <kpoints>
   <generation param="Gamma">
    <v type="int" name="divisions">      13       13        1 </v>
    <v name="usershift">      0.00000000       0.00000000       0.00000000 </v>
    <v name="genvec1">      0.07692308       0.00000000       0.00000000 </v>
    <v name="genvec2">      0.00000000       0.07692308       0.00000000 </v>
    <v name="genvec3">      0.00000000       0.00000000       1.00000000 </v>
    <v name="shift">      0.00000000       0.00000000       0.00000000 </v>
   </generation>
   <varray name="kpointlist" >
    <v>       0.00000000       0.00000000       0.00000000 </v>
    <v>       0.07692308       0.00000000       0.00000000 </v>
    <v>       0.00000000       0.07692308       0.00000000 </v>
    <v>       0.15384615       0.00000000       0.00000000 </v>
    <v>       0.00000000       0.15384615       0.00000000 </v>
    <v>       0.23076923      -0.00000000       0.00000000 </v>
    <v>       0.00000000       0.23076923       0.00000000 </v>
    <v>       0.30769231       0.00000000       0.00000000 </v>
    <v>       0.00000000       0.30769231       0.00000000 </v>
    <v>       0.38461538      -0.00000000       0.00000000 </v>
    <v>       0.00000000       0.38461538       0.00000000 </v>
    <v>       0.46153846      -0.00000000       0.00000000 </v>
    <v>       0.00000000       0.46153846       0.00000000 </v>
    <v>       0.07692308       0.07692308       0.00000000 </v>
    <v>      -0.15384615       0.07692308       0.00000000 </v>
    <v>       0.15384615       0.07692308       0.00000000 </v>
    <v>      -0.07692308       0.23076923       0.00000000 </v>
    <v>      -0.23076923       0.15384615       0.00000000 </v>
    <v>       0.23076923       0.07692308       0.00000000 </v>
    <v>      -0.07692308       0.30769231       0.00000000 </v>
    <v>      -0.30769231       0.23076923       0.00000000 </v>
    <v>       0.30769231       0.07692308       0.00000000 </v>
    <v>      -0.07692308       0.38461538       0.00000000 </v>
    <v>      -0.38461538       0.30769231       0.00000000 </v>
    <v>       0.38461538       0.07692308       0.00000000 </v>
    <v>      -0.07692308       0.46153846       0.00000000 </v>
    <v>      -0.46153846       0.38461538       0.00000000 </v>
    <v>       0.46153846       0.07692308       0.00000000 </v>
    <v>      -0.07692308      -0.46153846       0.00000000 </v>
    <v>       0.15384615       0.15384615       0.00000000 </v>
    <v>      -0.30769231       0.15384615       0.00000000 </v>
    <v>       0.23076923       0.15384615       0.00000000 </v>
    <v>      -0.15384615       0.38461538       0.00000000 </v>
    <v>      -0.38461538       0.23076923       0.00000000 </v>
    <v>       0.30769231       0.15384615       0.00000000 </v>
    <v>      -0.15384615       0.46153846       0.00000000 </v>
    <v>      -0.46153846       0.30769231       0.00000000 </v>
    <v>       0.38461538       0.15384615       0.00000000 </v>
    <v>      -0.15384615      -0.46153846       0.00000000 </v>
    <v>       0.46153846       0.38461538       0.00000000 </v>
    <v>       0.23076923       0.23076923       0.00000000 </v>
    <v>      -0.46153846       0.23076923       0.00000000 </v>
    <v>       0.30769231       0.23076923       0.00000000 </v>
    <v>      -0.23076923      -0.46153846       0.00000000 </v>
    <v>       0.46153846       0.30769231       0.00000000 </v>
    <v>       0.38461538       0.23076923       0.00000000 </v>
    <v>      -0.23076923      -0.38461538       0.00000000 </v>
    <v>       0.30769231       0.30769231       0.00000000 </v>
    <v>       0.38461538       0.30769231       0.00000000 </v>
   </varray>
   <varray name="weights" >
    <v>       0.00591716 </v>
    <v>       0.02366864 </v>
    <v>       0.01183432 </v>
    <v>       0.02366864 </v>
    <v>       0.01183432 </v>
    <v>       0.02366864 </v>
    <v>       0.01183432 </v>
    <v>       0.02366864 </v>
    <v>       0.01183432 </v>
    <v>       0.02366864 </v>
    <v>       0.01183432 </v>
    <v>       0.02366864 </v>
    <v>       0.01183432 </v>
    <v>       0.02366864 </v>
    <v>       0.01183432 </v>
    <v>       0.02366864 </v>
    <v>       0.02366864 </v>
    <v>       0.02366864 </v>
    <v>       0.02366864 </v>
    <v>       0.02366864 </v>
    <v>       0.02366864 </v>
    <v>       0.02366864 </v>
    <v>       0.02366864 </v>
    <v>       0.02366864 </v>
    <v>       0.02366864 </v>
    <v>       0.02366864 </v>
    <v>       0.02366864 </v>
    <v>       0.02366864 </v>
    <v>       0.01183432 </v>
    <v>       0.02366864 </v>
    <v>       0.01183432 </v>
    <v>       0.02366864 </v>
    <v>       0.02366864 </v>
    <v>       0.02366864 </v>
    <v>       0.02366864 </v>
    <v>       0.02366864 </v>
    <v>       0.02366864 </v>
    <v>       0.02366864 </v>
    <v>       0.02366864 </v>
    <v>       0.02366864 </v>
    <v>       0.02366864 </v>
    <v>       0.01183432 </v>
    <v>       0.02366864 </v>
    <v>       0.02366864 </v>
    <v>       0.02366864 </v>
    <v>       0.02366864 </v>
    <v>       0.01183432 </v>
    <v>       0.02366864 </v>
    <v>       0.01183432 </v>
   </varray>
  </kpoints>
  <scstep>
   <time name="total">    1.12    1.12</time>
   <energy>
    <i name="e_fr_energy">     -1.96486208 </i>
    <i name="e_wo_entrp">     -1.96486208 </i>
    <i name="e_0_energy">     -1.96486208 </i>
   </energy>
  </scstep>
  <scstep>
   <time name="total">    1.17    1.17</time>
   <energy>
    <i name="e_fr_energy">     -2.02316207 </i>
    <i name="e_wo_entrp">     -2.02316207 </i>
    <i name="e_0_energy">     -2.02316207 </i>
   </energy>
  </scstep>
  <scstep>
   <time name="total">    1.10    1.10</time>
   <energy>
    <i name="e_fr_energy">     -1.98719398 </i>
    <i name="e_wo_entrp">     -1.98719398 </i>
    <i name="e_0_energy">     -1.98719398 </i>
   </energy>
  </scstep>
  <scstep>
   <time name="total">    0.87    0.93</time>
   <energy>
    <i name="e_fr_energy">     -1.99183180 </i>
    <i name="e_wo_entrp">     -1.99183180 </i>
    <i name="e_0_energy">     -1.99183180 </i>
   </energy>
  </scstep>
  <scstep>
   <time name="total">    0.83    0.83</time>
   <energy>
    <i name="e_fr_energy">     -2.00427570 </i>
    <i name="e_wo_entrp">     -2.00427570 </i>
    <i name="e_0_energy">     -2.00427570 </i>
   </energy>
  </scstep>
  <scstep>
   <time name="total">    0.85    0.85</time>
   <energy>
    <i name="e_fr_energy">     -2.01097168 </i>
    <i name="e_wo_entrp">     -2.01097168 </i>
    <i name="e_0_energy">     -2.01097168 </i>
   </energy>
  </scstep>
  <scstep>
   <time name="total">    0.85    0.85</time>
   <energy>
    <i name="e_fr_energy">     -2.01212483 </i>
    <i name="e_wo_entrp">     -2.01212483 </i>
    <i name="e_0_energy">     -2.01212483 </i>
   </energy>
  </scstep>
  <scstep>
   <time name="total">    0.85    0.85</time>
   <energy>
    <i name="e_fr_energy">     -2.01402811 </i>
    <i name="e_wo_entrp">     -2.01402811 </i>
    <i name="e_0_energy">     -2.01402811 </i>
   </energy>
  </scstep>
  <scstep>
   <time name="total">    0.86    0.86</time>
   <energy>
    <i name="e_fr_energy">     -2.01419469 </i>
    <i name="e_wo_entrp">     -2.01419469 </i>
    <i name="e_0_energy">     -2.01419469 </i>
   </energy>
  </scstep>
  <scstep>
   <time name="total">    0.86    0.86</time>
   <energy>
    <i name="e_fr_energy">     -2.01425518 </i>
    <i name="e_wo_entrp">     -2.01425518 </i>
    <i name="e_0_energy">     -2.01425518 </i>
   </energy>
  </scstep>
  <scstep>
   <time name="total">    0.86    0.86</time>
   <energy>
    <i name="e_fr_energy">     -2.01430918 </i>
    <i name="e_wo_entrp">     -2.01430918 </i>
    <i name="e_0_energy">     -2.01430918 </i>
   </energy>
  </scstep>
  <scstep>
   <time name="total">    0.86    0.86</time>
   <energy>
    <i name="e_fr_energy">     -2.01429486 </i>
    <i name="e_wo_entrp">     -2.01429486 </i>
    <i name="e_0_energy">     -2.01429486 </i>
   </energy>
  </scstep>
  <scstep>
   <time name="total">    0.86    0.86</time>
   <energy>
    <i name="e_fr_energy">     -2.01429454 </i>
    <i name="e_wo_entrp">     -2.01429454 </i>
    <i name="e_0_energy">     -2.01429454 </i>
   </energy>
  </scstep>
  <kpoints>
   <generation param="Gamma">
    <v type="int" name="divisions">      13       13        1 </v>
    <v name="usershift">      0.00000000       0.00000000       0.00000000 </v>
    <v name="genvec1">      0.07692308       0.00000000       0.00000000 </v>
    <v name="genvec2">      0.00000000       0.07692308       0.00000000 </v>
    <v name="genvec3">      0.00000000       0.00000000       1.00000000 </v>
    <v name="shift">      0.00000000       0.00000000       0.00000000 </v>
   </generation>
   <varray name="kpointlist" >
    <v>       0.00000000       0.00000000       0.00000000 </v>
    <v>       0.07692308       0.00000000       0.00000000 </v>
    <v>       0.00000000       0.07692308       0.00000000 </v>
    <v>       0.15384615       0.00000000       0.00000000 </v>
    <v>       0.00000000       0.15384615       0.00000000 </v>
    <v>       0.23076923      -0.00000000       0.00000000 </v>
    <v>       0.00000000       0.23076923       0.00000000 </v>
    <v>       0.30769231       0.00000000       0.00000000 </v>
    <v>       0.00000000       0.30769231       0.00000000 </v>
    <v>       0.38461538      -0.00000000       0.00000000 </v>
    <v>       0.00000000       0.38461538       0.00000000 </v>
    <v>       0.46153846      -0.00000000       0.00000000 </v>
    <v>       0.00000000       0.46153846       0.00000000 </v>
    <v>       0.07692308       0.07692308       0.00000000 </v>
    <v>      -0.15384615       0.07692308       0.00000000 </v>
    <v>       0.15384615       0.07692308       0.00000000 </v>
    <v>      -0.07692308       0.23076923       0.00000000 </v>
    <v>      -0.23076923       0.15384615       0.00000000 </v>
    <v>       0.23076923       0.07692308       0.00000000 </v>
    <v>      -0.07692308       0.30769231       0.00000000 </v>
    <v>      -0.30769231       0.23076923       0.00000000 </v>
    <v>       0.30769231       0.07692308       0.00000000 </v>
    <v>      -0.07692308       0.38461538       0.00000000 </v>
    <v>      -0.38461538       0.30769231       0.00000000 </v>
    <v>       0.38461538       0.07692308       0.00000000 </v>
    <v>      -0.07692308       0.46153846       0.00000000 </v>
    <v>      -0.46153846       0.38461538       0.00000000 </v>
    <v>       0.46153846       0.07692308       0.00000000 </v>
    <v>      -0.07692308      -0.46153846       0.00000000 </v>
    <v>       0.15384615       0.15384615       0.00000000 </v>
    <v>      -0.30769231       0.15384615       0.00000000 </v>
    <v>       0.23076923       0.15384615       0.00000000 </v>
    <v>      -0.15384615       0.38461538       0.00000000 </v>
    <v>      -0.38461538       0.23076923       0.00000000 </v>
    <v>       0.30769231       0.15384615       0.00000000 </v>
    <v>      -0.15384615       0.46153846       0.00000000 </v>
    <v>      -0.46153846       0.30769231       0.00000000 </v>
    <v>       0.38461538       0.15384615       0.00000000 </v>
    <v>      -0.15384615      -0.46153846       0.00000000 </v>
    <v>       0.46153846       0.38461538       0.00000000 </v>
    <v>       0.23076923       0.23076923       0.00000000 </v>
    <v>      -0.46153846       0.23076923       0.00000000 </v>
    <v>       0.30769231       0.23076923       0.00000000 </v>
    <v>      -0.23076923      -0.46153846       0.00000000 </v>
    <v>       0.46153846       0.30769231       0.00000000 </v>
    <v>       0.38461538       0.23076923       0.00000000 </v>
    <v>      -0.23076923      -0.38461538       0.00000000 </v>
    <v>       0.30769231       0.30769231       0.00000000 </v>
    <v>       0.38461538       0.30769231       0.00000000 </v>
   </varray>
   <varray name="weights" >
    <v>       0.00591716 </v>
    <v>       0.02366864 </v>
    <v>       0.01183432 </v>
    <v>       0.02366864 </v>
    <v>       0.01183432 </v>
    <v>       0.02366864 </v>
    <v>       0.01183432 </v>
    <v>       0.02366864 </v>
    <v>       0.01183432 </v>
    <v>       0.02366864 </v>
    <v>       0.01183432 </v>
    <v>       0.02366864 </v>
    <v>       0.01183432 </v>
    <v>       0.02366864 </v>
    <v>       0.01183432 </v>
    <v>       0.02366864 </v>
    <v>       0.02366864 </v>
    <v>       0.02366864 </v>
    <v>       0.02366864 </v>
    <v>       0.02366864 </v>
    <v>       0.02366864 </v>
    <v>       0.02366864 </v>
    <v>       0.02366864 </v>
    <v>       0.02366864 </v>
    <v>       0.02366864 </v>
    <v>       0.02366864 </v>
    <v>       0.02366864 </v>
    <v>       0.02366864 </v>
    <v>       0.01183432 </v>
    <v>       0.02366864 </v>
    <v>       0.01183432 </v>
    <v>       0.02366864 </v>
    <v>       0.02366864 </v>
    <v>       0.02366864 </v>
    <v>       0.02366864 </v>
    <v>       0.02366864 </v>
    <v>       0.02366864 </v>
    <v>       0.02366864 </v>
    <v>       0.02366864 </v>
    <v>       0.02366864 </v>
    <v>       0.02366864 </v>
    <v>       0.01183432 </v>
    <v>       0.02366864 </v>
    <v>       0.02366864 </v>
    <v>       0.02366864 </v>
    <v>       0.02366864 </v>
    <v>       0.01183432 </v>
    <v>       0.02366864 </v>
    <v>       0.01183432 </v>
   </varray>
  </kpoints>
  <scstep>
   <time name="total">    0.92    0.92</time>
   <energy>
    <i name="e_fr_energy">     -1.96985836 </i>
    <i name="e_wo_entrp">     -1.96985836 </i>
    <i name="e_0_energy">     -1.96985836 </i>
   </energy>
  </scstep>
  <scstep>
   <time name="total">    0.89    0.89</time>
   <energy>
    <i name="e_fr_energy">     -2.02326454 </i>
    <i name="e_wo_entrp">     -2.02326454 </i>
    <i name="e_0_energy">     -2.02326454 </i>
   </energy>
  </scstep>
  <scstep>
   <time name="total">    0.84    0.84</time>
   <energy>
    <i name="e_fr_energy">     -1.98715603 </i>
    <i name="e_wo_entrp">     -1.98715603 </i>
    <i name="e_0_energy">     -1.98715603 </i>
   </energy>
  </scstep>
  <scstep>
   <time name="total">    0.85    0.85</time>
   <energy>
    <i name="e_fr_energy">     -1.99183777 </i>
    <i name="e_wo_entrp">     -1.99183777 </i>
    <i name="e_0_energy">     -1.99183777 </i>
   </energy>
  </scstep>
  <scstep>
   <time name="total">    1.17    1.17</time>
   <energy>
    <i name="e_fr_energy">     -2.00476681 </i>
    <i name="e_wo_entrp">     -2.00476681 </i>
    <i name="e_0_energy">     -2.00476681 </i>
   </energy>
  </scstep>
  <scstep>
   <time name="total">    1.24    1.24</time>
   <energy>
    <i name="e_fr_energy">     -2.01089807 </i>
    <i name="e_wo_entrp">     -2.01089807 </i>
    <i name="e_0_energy">     -2.01089807 </i>
   </energy>
  </scstep>
  <scstep>
   <time name="total">    1.26    1.27</time>
   <energy>
    <i name="e_fr_energy">     -2.01208551 </i>
    <i name="e_wo_entrp">     -2.01208551 </i>
    <i name="e_0_energy">     -2.01208551 </i>
   </energy>
  </scstep>
  <scstep>
   <time name="total">    1.25    1.25</time>
   <energy>
    <i name="e_fr_energy">     -2.01400479 </i>
    <i name="e_wo_entrp">     -2.01400479 </i>
    <i name="e_0_energy">     -2.01400479 </i>
   </energy>
  </scstep>
  <scstep>
   <time name="total">    1.29    1.30</time>
   <energy>
    <i name="e_fr_energy">     -2.01413936 </i>
    <i name="e_wo_entrp">     -2.01413936 </i>
    <i name="e_0_energy">     -2.01413936 </i>
   </energy>
  </scstep>
  <scstep>
   <time name="total">    1.27    1.27</time>
   <energy>
    <i name="e_fr_energy">     -2.01416156 </i>
    <i name="e_wo_entrp">     -2.01416156 </i>
    <i name="e_0_energy">     -2.01416156 </i>
   </energy>
  </scstep>
  <scstep>
   <time name="total">    1.20    1.21</time>
   <energy>
    <i name="e_fr_energy">     -2.01428045 </i>
    <i name="e_wo_entrp">     -2.01428045 </i>
    <i name="e_0_energy">     -2.01428045 </i>
   </energy>
  </scstep>
  <scstep>
   <time name="total">    1.24    1.24</time>
   <energy>
    <i name="e_fr_energy">     -2.01426415 </i>
    <i name="e_wo_entrp">     -2.01426415 </i>
    <i name="e_0_energy">     -2.01426415 </i>
   </energy>
  </scstep>
  <scstep>
   <time name="total">    1.25    1.25</time>
   <energy>
    <i name="e_fr_energy">     -2.01429028 </i>
    <i name="e_wo_entrp">     -2.01429028 </i>
    <i name="e_0_energy">     -2.01429028 </i>
   </energy>
  </scstep>
  <scstep>
   <time name="total">    1.23    1.23</time>
   <energy>
    <i name="e_fr_energy">     -2.01429155 </i>
    <i name="e_wo_entrp">     -2.01429155 </i>
    <i name="e_0_energy">     -2.01429155 </i>
   </energy>
  </scstep>
  <scstep>
   <time name="total">    1.23    1.32</time>
   <energy>
    <i name="e_fr_energy">     -2.01429171 </i>
    <i name="e_wo_entrp">     -2.01429171 </i>
    <i name="e_0_energy">     -2.01429171 </i>
   </energy>
  </scstep>
  <kpoints>
   <generation param="Gamma">
    <v type="int" name="divisions">      13       13        1 </v>
    <v name="usershift">      0.00000000       0.00000000       0.00000000 </v>
    <v name="genvec1">      0.07692308       0.00000000       0.00000000 </v>
    <v name="genvec2">      0.00000000       0.07692308       0.00000000 </v>
    <v name="genvec3">      0.00000000       0.00000000       1.00000000 </v>
    <v name="shift">      0.00000000       0.00000000       0.00000000 </v>
   </generation>
   <varray name="kpointlist" >
    <v>       0.00000000       0.00000000       0.00000000 </v>
    <v>       0.07692308       0.00000000       0.00000000 </v>
    <v>       0.15384615       0.00000000       0.00000000 </v>
    <v>       0.23076923      -0.00000000       0.00000000 </v>
    <v>       0.30769231       0.00000000       0.00000000 </v>
    <v>       0.38461538      -0.00000000       0.00000000 </v>
    <v>       0.46153846      -0.00000000       0.00000000 </v>
    <v>       0.07692308       0.07692308       0.00000000 </v>
    <v>       0.15384615       0.07692308       0.00000000 </v>
    <v>       0.23076923       0.07692308       0.00000000 </v>
    <v>       0.30769231       0.07692308       0.00000000 </v>
    <v>       0.38461538       0.07692308       0.00000000 </v>
    <v>       0.46153846       0.07692308       0.00000000 </v>
    <v>       0.15384615       0.15384615       0.00000000 </v>
    <v>       0.23076923       0.15384615       0.00000000 </v>
    <v>       0.30769231       0.15384615       0.00000000 </v>
    <v>       0.38461538       0.15384615       0.00000000 </v>
    <v>       0.23076923       0.23076923       0.00000000 </v>
    <v>       0.30769231       0.23076923       0.00000000 </v>
    <v>       0.38461538       0.23076923       0.00000000 </v>
    <v>       0.30769231       0.30769231       0.00000000 </v>
   </varray>
   <varray name="weights" >
    <v>       0.00591716 </v>
    <v>       0.03550296 </v>
    <v>       0.03550296 </v>
    <v>       0.03550296 </v>
    <v>       0.03550296 </v>
    <v>       0.03550296 </v>
    <v>       0.03550296 </v>
    <v>       0.03550296 </v>
    <v>       0.07100592 </v>
    <v>       0.07100592 </v>
    <v>       0.07100592 </v>
    <v>       0.07100592 </v>
    <v>       0.03550296 </v>
    <v>       0.03550296 </v>
    <v>       0.07100592 </v>
    <v>       0.07100592 </v>
    <v>       0.07100592 </v>
    <v>       0.03550296 </v>
    <v>       0.07100592 </v>
    <v>       0.03550296 </v>
    <v>       0.03550296 </v>
   </varray>
  </kpoints>
  <scstep>
   <time name="total">    0.74    0.74</time>
   <energy>
    <i name="e_fr_energy">     -0.76721668 </i>
    <i name="e_wo_entrp">     -0.76721668 </i>
    <i name="e_0_energy">     -0.76721668 </i>
   </energy>
  </scstep>
  <scstep>
   <time name="total">    0.79    0.79</time>
   <energy>
    <i name="e_fr_energy">     -0.80846610 </i>
    <i name="e_wo_entrp">     -0.80846610 </i>
    <i name="e_0_energy">     -0.80846610 </i>
   </energy>
  </scstep>
  <scstep>
   <time name="total">    0.76    0.76</time>
   <energy>
    <i name="e_fr_energy">     -0.21923348 </i>
    <i name="e_wo_entrp">     -0.21923348 </i>
    <i name="e_0_energy">     -0.21923348 </i>
   </energy>
  </scstep>
  <scstep>
   <time name="total">    0.77    0.77</time>
   <energy>
    <i name="e_fr_energy">     -0.16210898 </i>
    <i name="e_wo_entrp">     -0.16210898 </i>
    <i name="e_0_energy">     -0.16210898 </i>
   </energy>
  </scstep>
  <scstep>
   <time name="total">    0.76    0.76</time>
   <energy>
    <i name="e_fr_energy">     -0.15597498 </i>
    <i name="e_wo_entrp">     -0.15597498 </i>
    <i name="e_0_energy">     -0.15597498 </i>
   </energy>
  </scstep>
  <scstep>
   <time name="total">    0.79    0.79</time>
   <energy>
    <i name="e_fr_energy">     -0.15613352 </i>
    <i name="e_wo_entrp">     -0.15613352 </i>
    <i name="e_0_energy">     -0.15613352 </i>
   </energy>
  </scstep>
  <scstep>
   <time name="total">    0.80    0.80</time>
   <energy>
    <i name="e_fr_energy">     -0.15633544 </i>
    <i name="e_wo_entrp">     -0.15633544 </i>
    <i name="e_0_energy">     -0.15633544 </i>
   </energy>
  </scstep>
  <scstep>
   <time name="total">    0.85    0.85</time>
   <energy>
    <i name="e_fr_energy">     -0.15657674 </i>
    <i name="e_wo_entrp">     -0.15657674 </i>
    <i name="e_0_energy">     -0.15657674 </i>
   </energy>
  </scstep>
  <scstep>
   <time name="total">    0.77    0.77</time>
   <energy>
    <i name="e_fr_energy">     -0.15656715 </i>
    <i name="e_wo_entrp">     -0.15656715 </i>
    <i name="e_0_energy">     -0.15656715 </i>
   </energy>
  </scstep>
  <scstep>
   <time name="total">    0.80    0.80</time>
   <energy>
    <i name="e_fr_energy">     -0.15656907 </i>
    <i name="e_wo_entrp">     -0.15656907 </i>
    <i name="e_0_energy">     -0.15656907 </i>
   </energy>
  </scstep>
  <scstep>
   <time name="total">    0.76    0.79</time>
   <energy>
    <i name="e_fr_energy">     -0.15656315 </i>
    <i name="e_wo_entrp">     -0.15656315 </i>
    <i name="e_0_energy">     -0.15656315 </i>
   </energy>
  </scstep>
  <scstep>
   <time name="total">    0.79    0.79</time>
   <energy>
    <i name="e_fr_energy">     -0.15656447 </i>
    <i name="e_wo_entrp">     -0.15656447 </i>
    <i name="e_0_energy">     -0.15656447 </i>
   </energy>
  </scstep>
  <scstep>
   <time name="total">    0.79    0.79</time>
   <energy>
    <i name="e_fr_energy">     -0.15656439 </i>
    <i name="e_wo_entrp">     -0.15656439 </i>
    <i name="e_0_energy">     -0.15656439 </i>
   </energy>
  </scstep>
  <kpoints>
   <generation param="Gamma">
    <v type="int" name="divisions">      13       13        1 </v>
    <v name="usershift">      0.00000000       0.00000000       0.00000000 </v>
    <v name="genvec1">      0.07692308       0.00000000       0.00000000 </v>
    <v name="genvec2">      0.00000000       0.07692308       0.00000000 </v>
    <v name="genvec3">      0.00000000       0.00000000       1.00000000 </v>
    <v name="shift">      0.00000000       0.00000000       0.00000000 </v>
   </generation>
   <varray name="kpointlist" >
    <v>       0.00000000       0.00000000       0.00000000 </v>
    <v>       0.07692308       0.00000000       0.00000000 </v>
    <v>       0.15384615       0.00000000       0.00000000 </v>
    <v>       0.23076923      -0.00000000       0.00000000 </v>
    <v>       0.30769231       0.00000000       0.00000000 </v>
    <v>       0.38461538      -0.00000000       0.00000000 </v>
    <v>       0.46153846      -0.00000000       0.00000000 </v>
    <v>       0.07692308       0.07692308       0.00000000 </v>
    <v>       0.15384615       0.07692308       0.00000000 </v>
    <v>       0.23076923       0.07692308       0.00000000 </v>
    <v>       0.30769231       0.07692308       0.00000000 </v>
    <v>       0.38461538       0.07692308       0.00000000 </v>
    <v>       0.46153846       0.07692308       0.00000000 </v>
    <v>       0.15384615       0.15384615       0.00000000 </v>
    <v>       0.23076923       0.15384615       0.00000000 </v>
    <v>       0.30769231       0.15384615       0.00000000 </v>
    <v>       0.38461538       0.15384615       0.00000000 </v>
    <v>       0.23076923       0.23076923       0.00000000 </v>
    <v>       0.30769231       0.23076923       0.00000000 </v>
    <v>       0.38461538       0.23076923       0.00000000 </v>
    <v>       0.30769231       0.30769231       0.00000000 </v>
   </varray>
   <varray name="weights" >
    <v>       0.00591716 </v>
    <v>       0.03550296 </v>
    <v>       0.03550296 </v>
    <v>       0.03550296 </v>
    <v>       0.03550296 </v>
    <v>       0.03550296 </v>
    <v>       0.03550296 </v>
    <v>       0.03550296 </v>
    <v>       0.07100592 </v>
    <v>       0.07100592 </v>
    <v>       0.07100592 </v>
    <v>       0.07100592 </v>
    <v>       0.03550296 </v>
    <v>       0.03550296 </v>
    <v>       0.07100592 </v>
    <v>       0.07100592 </v>
    <v>       0.07100592 </v>
    <v>       0.03550296 </v>
    <v>       0.07100592 </v>
    <v>       0.03550296 </v>
    <v>       0.03550296 </v>
   </varray>
  </kpoints>
  <varray name="dielectric_dft" >
   <v>       3.51990352       0.00000000       0.00000000 </v>
   <v>      -0.00000000       3.51990352      -0.00000000 </v>
   <v>       0.00000000      -0.00000000       1.20041969 </v>
  </varray>
  <varray name="epsilon" >
   <v>       3.51990352       0.00000000       0.00000000 </v>
   <v>      -0.00000000       3.51990352      -0.00000000 </v>
   <v>       0.00000000      -0.00000000       1.20041969 </v>
  </varray>
  <kpoints>
   <generation param="Gamma">
    <v type="int" name="divisions">      13       13        1 </v>
    <v name="usershift">      0.00000000       0.00000000       0.00000000 </v>
    <v name="genvec1">      0.07692308       0.00000000       0.00000000 </v>
    <v name="genvec2">      0.00000000       0.07692308       0.00000000 </v>
    <v name="genvec3">      0.00000000       0.00000000       1.00000000 </v>
    <v name="shift">      0.00000000       0.00000000       0.00000000 </v>
   </generation>
   <varray name="kpointlist" >
    <v>       0.00000000       0.00000000       0.00000000 </v>
    <v>       0.07692308       0.00000000       0.00000000 </v>
    <v>       0.15384615       0.00000000       0.00000000 </v>
    <v>       0.23076923      -0.00000000       0.00000000 </v>
    <v>       0.30769231       0.00000000       0.00000000 </v>
    <v>       0.38461538      -0.00000000       0.00000000 </v>
    <v>       0.46153846      -0.00000000       0.00000000 </v>
    <v>       0.07692308       0.07692308       0.00000000 </v>
    <v>       0.15384615       0.07692308       0.00000000 </v>
    <v>       0.23076923       0.07692308       0.00000000 </v>
    <v>       0.30769231       0.07692308       0.00000000 </v>
    <v>       0.38461538       0.07692308       0.00000000 </v>
    <v>       0.46153846       0.07692308       0.00000000 </v>
    <v>       0.15384615       0.15384615       0.00000000 </v>
    <v>       0.23076923       0.15384615       0.00000000 </v>
    <v>       0.30769231       0.15384615       0.00000000 </v>
    <v>       0.38461538       0.15384615       0.00000000 </v>
    <v>       0.23076923       0.23076923       0.00000000 </v>
    <v>       0.30769231       0.23076923       0.00000000 </v>
    <v>       0.38461538       0.23076923       0.00000000 </v>
    <v>       0.30769231       0.30769231       0.00000000 </v>
   </varray>
   <varray name="weights" >
    <v>       0.00591716 </v>
    <v>       0.03550296 </v>
    <v>       0.03550296 </v>
    <v>       0.03550296 </v>
    <v>       0.03550296 </v>
    <v>       0.03550296 </v>
    <v>       0.03550296 </v>
    <v>       0.03550296 </v>
    <v>       0.07100592 </v>
    <v>       0.07100592 </v>
    <v>       0.07100592 </v>
    <v>       0.07100592 </v>
    <v>       0.03550296 </v>
    <v>       0.03550296 </v>
    <v>       0.07100592 </v>
    <v>       0.07100592 </v>
    <v>       0.07100592 </v>
    <v>       0.03550296 </v>
    <v>       0.07100592 </v>
    <v>       0.03550296 </v>
    <v>       0.03550296 </v>
   </varray>
  </kpoints>
  <array name="born_charges" >
   <dimension dim="1">ion</dimension>
   <set>
    <v>      -0.00000000       0.00000000       0.00000000 </v>
    <v>       0.00000000      -0.00000000       0.00000000 </v>
    <v>       0.00000000       0.00000000      -0.00000000 </v>
   </set>
   <set>
    <v>      -0.00000000       0.00000000      -0.00000000 </v>
    <v>      -0.00000000      -0.00000000       0.00000000 </v>
    <v>       0.00000000       0.00000000      -0.00000000 </v>
   </set>
  </array>
  <time name="totalsc">   60.63   63.35</time>
  <eigenvalues>
   <array>
    <dimension dim="1">band</dimension>
    <dimension dim="2">kpoint</dimension>
    <dimension dim="3">spin</dimension>
    <field>eigene</field>
    <field>occ</field>
    <set>
     <set comment="spin 1">
      <set comment="kpoint 1">
       <r>  -17.2577    1.0000 </r>
       <r>  -10.9699    1.0000 </r>
       <r>   -4.3454    1.0000 </r>
       <r>   -3.7968    1.0000 </r>
       <r>   -3.7968    1.0000 </r>
       <r>   -1.8748    0.0000 </r>
       <r>   -0.3059    0.0000 </r>
       <r>   -0.3059    0.0000 </r>
       <r>    1.0511    0.0000 </r>
       <r>    1.2843    0.0000 </r>
       <r>    1.8016    0.0000 </r>
       <r>    2.1974    0.0000 </r>
       <r>    3.0685    0.0000 </r>
       <r>    3.6512    0.0000 </r>
       <r>    4.7659    0.0000 </r>
       <r>    5.6109    0.0000 </r>
      </set>
      <set comment="kpoint 2">
       <r>  -17.1793    1.0000 </r>
       <r>  -10.9594    1.0000 </r>
       <r>   -4.5869    1.0000 </r>
       <r>   -4.3074    1.0000 </r>
       <r>   -3.9740    1.0000 </r>
       <r>   -1.2907    0.0000 </r>
       <r>   -0.4274    0.0000 </r>
       <r>   -0.1248    0.0000 </r>
       <r>    1.1623    0.0000 </r>
       <r>    1.3792    0.0000 </r>
       <r>    1.8931    0.0000 </r>
       <r>    2.2914    0.0000 </r>
       <r>    3.1538    0.0000 </r>
       <r>    3.7436    0.0000 </r>
       <r>    4.8668    0.0000 </r>
       <r>    5.4123    0.0000 </r>
      </set>
      <set comment="kpoint 3">
       <r>  -16.9461    1.0000 </r>
       <r>  -10.9619    1.0000 </r>
       <r>   -5.8081    1.0000 </r>
       <r>   -4.3816    1.0000 </r>
       <r>   -4.2203    1.0000 </r>
       <r>   -1.4572    0.0000 </r>
       <r>    0.1411    0.0000 </r>
       <r>    0.2525    0.0000 </r>
       <r>    1.4588    0.0000 </r>
       <r>    1.6632    0.0000 </r>
       <r>    2.1600    0.0000 </r>
       <r>    2.5640    0.0000 </r>
       <r>    3.3605    0.0000 </r>
       <r>    3.9971    0.0000 </r>
       <r>    4.4927    0.0000 </r>
       <r>    5.3612    0.0000 </r>
      </set>
      <set comment="kpoint 4">
       <r>  -16.5650    1.0000 </r>
       <r>  -11.0911    1.0000 </r>
       <r>   -6.8108    1.0000 </r>
       <r>   -4.8344    1.0000 </r>
       <r>   -4.1914    1.0000 </r>
       <r>   -1.9811    0.0000 </r>
       <r>    0.5276    0.0000 </r>
       <r>    0.5635    0.0000 </r>
       <r>    1.7720    0.0000 </r>
       <r>    2.1267    0.0000 </r>
       <r>    2.6055    0.0000 </r>
       <r>    2.9755    0.0000 </r>
       <r>    3.6734    0.0000 </r>
       <r>    4.2970    0.0000 </r>
       <r>    4.6789    0.0000 </r>
       <r>    5.3203    0.0000 </r>
      </set>
      <set comment="kpoint 5">
       <r>  -16.0529    1.0000 </r>
       <r>  -11.5023    1.0000 </r>
       <r>   -7.3406    1.0000 </r>
       <r>   -5.2255    1.0000 </r>
       <r>   -4.4133    1.0000 </r>
       <r>   -2.2000    0.0000 </r>
       <r>    0.2061    0.0000 </r>
       <r>    0.7029    0.0000 </r>
       <r>    2.3046    0.0000 </r>
       <r>    2.6133    0.0000 </r>
       <r>    3.1622    0.0000 </r>
       <r>    3.5811    0.0000 </r>
       <r>    3.8811    0.0000 </r>
       <r>    4.8201    0.0000 </r>
       <r>    5.0323    0.0000 </r>
       <r>    6.0712    0.0000 </r>
      </set>
      <set comment="kpoint 6">
       <r>  -15.4548    1.0000 </r>
       <r>  -12.1734    1.0000 </r>
       <r>   -7.3885    1.0000 </r>
       <r>   -5.5048    1.0000 </r>
       <r>   -4.8810    1.0000 </r>
       <r>   -2.0722    0.0000 </r>
       <r>   -0.2851    0.0000 </r>
       <r>    0.7233    0.0000 </r>
       <r>    2.7276    0.0000 </r>
       <r>    3.0871    0.0000 </r>
       <r>    3.7898    0.0000 </r>
       <r>    4.2358    0.0000 </r>
       <r>    4.4054    0.0000 </r>
       <r>    5.3505    0.0000 </r>
       <r>    5.8004    0.0000 </r>
       <r>    6.1174    0.0000 </r>
      </set>
      <set comment="kpoint 7">
       <r>  -14.9292    1.0000 </r>
       <r>  -12.7920    1.0000 </r>
       <r>   -7.2292    1.0000 </r>
       <r>   -5.6492    1.0000 </r>
       <r>   -5.2935    1.0000 </r>
       <r>   -1.8675    0.0000 </r>
       <r>   -0.6105    0.0000 </r>
       <r>    0.7097    0.0000 </r>
       <r>    2.5198    0.0000 </r>
       <r>    4.0399    0.0000 </r>
       <r>    4.5631    0.0000 </r>
       <r>    4.9731    0.0000 </r>
       <r>    5.2393    0.0000 </r>
       <r>    5.3962    0.0000 </r>
       <r>    5.6096    0.0000 </r>
       <r>    6.0495    0.0000 </r>
      </set>
      <set comment="kpoint 8">
       <r>  -17.0235    1.0000 </r>
       <r>  -10.9548    1.0000 </r>
       <r>   -5.4442    1.0000 </r>
       <r>   -4.3717    1.0000 </r>
       <r>   -4.2378    1.0000 </r>
       <r>   -0.7897    0.0000 </r>
       <r>   -0.7495    0.0000 </r>
       <r>    0.3611    0.0000 </r>
       <r>    1.3866    0.0000 </r>
       <r>    1.5549    0.0000 </r>
       <r>    2.0689    0.0000 </r>
       <r>    2.4765    0.0000 </r>
       <r>    3.2915    0.0000 </r>
       <r>    3.9240    0.0000 </r>
       <r>    4.5870    0.0000 </r>
       <r>    5.4154    0.0000 </r>
      </set>
      <set comment="kpoint 9">
       <r>  -16.7159    1.0000 </r>
       <r>  -11.0166    1.0000 </r>
       <r>   -6.4126    1.0000 </r>
       <r>   -4.9514    1.0000 </r>
       <r>   -4.1653    1.0000 </r>
       <r>   -1.3178    0.0000 </r>
       <r>   -0.1413    0.0000 </r>
       <r>    0.7779    0.0000 </r>
       <r>    1.7060    0.0000 </r>
       <r>    1.9164    0.0000 </r>
       <r>    2.4145    0.0000 </r>
       <r>    2.8238    0.0000 </r>
       <r>    3.4747    0.0000 </r>
       <r>    4.2059    0.0000 </r>
       <r>    4.3690    0.0000 </r>
       <r>    5.5580    0.0000 </r>
      </set>
      <set comment="kpoint 10">
       <r>  -16.2674    1.0000 </r>
       <r>  -11.2864    1.0000 </r>
       <r>   -7.1096    1.0000 </r>
       <r>   -5.4648    1.0000 </r>
       <r>   -4.2222    1.0000 </r>
       <r>   -1.7302    0.0000 </r>
       <r>    0.2648    0.0000 </r>
       <r>    0.6287    0.0000 </r>
       <r>    2.0853    0.0000 </r>
       <r>    2.4323    0.0000 </r>
       <r>    2.9316    0.0000 </r>
       <r>    3.3251    0.0000 </r>
       <r>    3.7730    0.0000 </r>
       <r>    4.5766    0.0000 </r>
       <r>    4.8404    0.0000 </r>
       <r>    5.4576    0.0000 </r>
      </set>
      <set comment="kpoint 11">
       <r>  -15.7042    1.0000 </r>
       <r>  -11.8489    1.0000 </r>
       <r>   -7.3624    1.0000 </r>
       <r>   -5.8199    1.0000 </r>
       <r>   -4.5555    1.0000 </r>
       <r>   -1.7864    0.0000 </r>
       <r>    0.0821    0.0000 </r>
       <r>    0.4328    0.0000 </r>
       <r>    2.7479    0.0000 </r>
       <r>    2.8693    0.0000 </r>
       <r>    3.5232    0.0000 </r>
       <r>    3.9948    0.0000 </r>
       <r>    4.0766    0.0000 </r>
       <r>    5.1524    0.0000 </r>
       <r>    5.4415    0.0000 </r>
       <r>    5.9163    0.0000 </r>
      </set>
      <set comment="kpoint 12">
       <r>  -15.1058    1.0000 </r>
       <r>  -12.5422    1.0000 </r>
       <r>   -7.3062    1.0000 </r>
       <r>   -5.9607    1.0000 </r>
       <r>   -5.0548    1.0000 </r>
       <r>   -1.5572    0.0000 </r>
       <r>   -0.4499    0.0000 </r>
       <r>    0.5087    0.0000 </r>
       <r>    2.7403    0.0000 </r>
       <r>    3.6272    0.0000 </r>
       <r>    4.2466    0.0000 </r>
       <r>    4.6814    0.0000 </r>
       <r>    4.9478    0.0000 </r>
       <r>    5.6073    0.0000 </r>
       <r>    5.9634    0.0000 </r>
       <r>    6.1388    0.0000 </r>
      </set>
      <set comment="kpoint 13">
       <r>  -14.7738    1.0000 </r>
       <r>  -12.9235    1.0000 </r>
       <r>   -7.2366    1.0000 </r>
       <r>   -5.9289    1.0000 </r>
       <r>   -5.3535    1.0000 </r>
       <r>   -1.3491    0.0000 </r>
       <r>   -0.7375    0.0000 </r>
       <r>    0.5424    0.0000 </r>
       <r>    2.5794    0.0000 </r>
       <r>    4.6349    0.0000 </r>
       <r>    4.6556    0.0000 </r>
       <r>    5.0173    0.0000 </r>
       <r>    5.3486    0.0000 </r>
       <r>    5.6017    0.0000 </r>
       <r>    5.7869    0.0000 </r>
       <r>    6.0239    0.0000 </r>
      </set>
      <set comment="kpoint 14">
       <r>  -16.3397    1.0000 </r>
       <r>  -11.2145    1.0000 </r>
       <r>   -6.8944    1.0000 </r>
       <r>   -5.7801    1.0000 </r>
       <r>   -4.1642    1.0000 </r>
       <r>   -1.0426    0.0000 </r>
       <r>   -0.3188    0.0000 </r>
       <r>    0.9110    0.0000 </r>
       <r>    2.1017    0.0000 </r>
       <r>    2.2718    0.0000 </r>
       <r>    2.8109    0.0000 </r>
       <r>    3.2649    0.0000 </r>
       <r>    3.5121    0.0000 </r>
       <r>    4.4582    0.0000 </r>
       <r>    4.6944    0.0000 </r>
       <r>    5.5750    0.0000 </r>
      </set>
      <set comment="kpoint 15">
       <r>  -15.8333    1.0000 </r>
       <r>  -11.6530    1.0000 </r>
       <r>   -7.1455    1.0000 </r>
       <r>   -6.4031    1.0000 </r>
       <r>   -4.3494    1.0000 </r>
       <r>   -1.1268    0.0000 </r>
       <r>   -0.2579    0.0000 </r>
       <r>    0.7643    0.0000 </r>
       <r>    2.6240    0.0000 </r>
       <r>    2.8255    0.0000 </r>
       <r>    3.3776    0.0000 </r>
       <r>    3.8410    0.0000 </r>
       <r>    3.9246    0.0000 </r>
       <r>    4.9658    0.0000 </r>
       <r>    5.1272    0.0000 </r>
       <r>    5.3237    0.0000 </r>
      </set>
      <set comment="kpoint 16">
       <r>  -15.2370    1.0000 </r>
       <r>  -12.2951    1.0000 </r>
       <r>   -7.3097    1.0000 </r>
       <r>   -6.5482    1.0000 </r>
       <r>   -4.7727    1.0000 </r>
       <r>   -1.1301    0.0000 </r>
       <r>   -0.2970    0.0000 </r>
       <r>    0.5323    0.0000 </r>
       <r>    3.1461    0.0000 </r>
       <r>    3.3934    0.0000 </r>
       <r>    4.0360    0.0000 </r>
       <r>    4.4624    0.0000 </r>
       <r>    4.6809    0.0000 </r>
       <r>    5.3333    0.0000 </r>
       <r>    5.6000    0.0000 </r>
       <r>    6.1304    0.0000 </r>
      </set>
      <set comment="kpoint 17">
       <r>  -14.6954    1.0000 </r>
       <r>  -12.8981    1.0000 </r>
       <r>   -7.4552    1.0000 </r>
       <r>   -6.3026    1.0000 </r>
       <r>   -5.2543    1.0000 </r>
       <r>   -1.0666    0.0000 </r>
       <r>   -0.3318    0.0000 </r>
       <r>    0.3903    0.0000 </r>
       <r>    2.9613    0.0000 </r>
       <r>    4.3510    0.0000 </r>
       <r>    4.8523    0.0000 </r>
       <r>    5.3187    0.0000 </r>
       <r>    5.3877    0.0000 </r>
       <r>    5.5955    0.0000 </r>
       <r>    5.6908    0.0000 </r>
       <r>    6.2299    0.0000 </r>
      </set>
      <set comment="kpoint 18">
       <r>  -15.2845    1.0000 </r>
       <r>  -12.1899    1.0000 </r>
       <r>   -7.2196    1.0000 </r>
       <r>   -6.8898    1.0000 </r>
       <r>   -4.6499    1.0000 </r>
       <r>   -0.9246    0.0000 </r>
       <r>   -0.5523    0.0000 </r>
       <r>    1.0297    0.0000 </r>
       <r>    3.3277    0.0000 </r>
       <r>    3.3412    0.0000 </r>
       <r>    3.9818    0.0000 </r>
       <r>    4.3690    0.0000 </r>
       <r>    4.5935    0.0000 </r>
       <r>    4.7462    0.0000 </r>
       <r>    5.3862    0.0000 </r>
       <r>    6.0389    0.0000 </r>
      </set>
      <set comment="kpoint 19">
       <r>  -14.6783    1.0000 </r>
       <r>  -12.8155    1.0000 </r>
       <r>   -7.7114    1.0000 </r>
       <r>   -6.4865    1.0000 </r>
       <r>   -5.0992    1.0000 </r>
       <r>   -1.3517    0.0000 </r>
       <r>   -0.0385    0.0000 </r>
       <r>    0.9186    0.0000 </r>
       <r>    3.7105    0.0000 </r>
       <r>    4.1849    0.0000 </r>
       <r>    4.5642    0.0000 </r>
       <r>    4.9284    0.0000 </r>
       <r>    5.0965    0.0000 </r>
       <r>    5.5197    0.0000 </r>
       <r>    5.7414    0.0000 </r>
       <r>    6.4703    0.0000 </r>
      </set>
      <set comment="kpoint 20">
       <r>  -14.2948    1.0000 </r>
       <r>  -13.2114    1.0000 </r>
       <r>   -7.8799    1.0000 </r>
       <r>   -6.1711    1.0000 </r>
       <r>   -5.4299    1.0000 </r>
       <r>   -1.5041    0.0000 </r>
       <r>    0.4490    0.0000 </r>
       <r>    0.5454    0.0000 </r>
       <r>    3.6542    0.0000 </r>
       <r>    4.6683    0.0000 </r>
       <r>    5.2302    0.0000 </r>
       <r>    5.2784    0.0000 </r>
       <r>    5.4720    0.0000 </r>
       <r>    6.0382    0.0000 </r>
       <r>    6.1216    0.0000 </r>
       <r>    6.5535    0.0000 </r>
      </set>
      <set comment="kpoint 21">
       <r>  -14.0823    1.0000 </r>
       <r>  -13.3807    1.0000 </r>
       <r>   -8.0749    1.0000 </r>
       <r>   -6.0520    1.0000 </r>
       <r>   -5.5089    1.0000 </r>
       <r>   -1.7198    0.0000 </r>
       <r>    0.4998    0.0000 </r>
       <r>    0.9139    0.0000 </r>
       <r>    4.3513    0.0000 </r>
       <r>    4.7561    0.0000 </r>
       <r>    4.8480    0.0000 </r>
       <r>    5.3402    0.0000 </r>
       <r>    5.8935    0.0000 </r>
       <r>    6.1875    0.0000 </r>
       <r>    6.3049    0.0000 </r>
       <r>    6.4068    0.0000 </r>
      </set>
     </set>
    </set>
   </array>
  </eigenvalues>
  <separator name="orbital magnetization" >
[...]
       </set>
       <set comment="band 13">
        <r>  0.0027  0.0036  0.0025 </r>
        <r>  0.0027  0.0036  0.0025 </r>
       </set>
       <set comment="band 14">
        <r>  0.0109  0.0252  0.0147 </r>
        <r>  0.0109  0.0252  0.0147 </r>
       </set>
       <set comment="band 15">
        <r>  0.0024  0.0238  0.0109 </r>
        <r>  0.0024  0.0238  0.0109 </r>
       </set>
       <set comment="band 16">
        <r>  0.0019  0.0544  0.0123 </r>
        <r>  0.0019  0.0544  0.0123 </r>
       </set>
      </set>
      <set comment="kpoint 13">
       <set comment="band 1">
        <r>  0.2909  0.0206  0.0026 </r>
        <r>  0.2909  0.0206  0.0026 </r>
       </set>
       <set comment="band 2">
        <r>  0.2775  0.0375  0.0030 </r>
        <r>  0.2775  0.0375  0.0030 </r>
       </set>
       <set comment="band 3">
        <r>  0.0627  0.1675  0.0016 </r>
        <r>  0.0627  0.1675  0.0016 </r>
       </set>
       <set comment="band 4">
        <r>  0.0017  0.2356  0.0081 </r>
        <r>  0.0017  0.2356  0.0081 </r>
       </set>
       <set comment="band 5">
        <r>  0.0342  0.1958  0.0016 </r>
        <r>  0.0342  0.1958  0.0016 </r>
       </set>
       <set comment="band 6">
        <r>  0.0342  0.1558  0.0282 </r>
        <r>  0.0342  0.1558  0.0282 </r>
       </set>
       <set comment="band 7">
        <r>  0.0010  0.1742  0.0190 </r>
        <r>  0.0010  0.1742  0.0190 </r>
       </set>
       <set comment="band 8">
        <r>  0.0056  0.2367  0.0154 </r>
        <r>  0.0056  0.2367  0.0154 </r>
       </set>
       <set comment="band 9">
        <r>  0.0000  0.0156  0.0558 </r>
        <r>  0.0000  0.0156  0.0558 </r>
       </set>
       <set comment="band 10">
        <r>  0.0131  0.0178  0.0065 </r>
        <r>  0.0131  0.0178  0.0065 </r>
       </set>
       <set comment="band 11">
        <r>  0.0061  0.0054  0.0129 </r>
        <r>  0.0062  0.0054  0.0129 </r>
       </set>
       <set comment="band 12">
        <r>  0.0005  0.0365  0.0038 </r>
        <r>  0.0005  0.0365  0.0038 </r>
       </set>
       <set comment="band 13">
        <r>  0.0002  0.0167  0.0061 </r>
        <r>  0.0002  0.0167  0.0061 </r>
       </set>
       <set comment="band 14">
        <r>  0.0016  0.0072  0.0027 </r>
        <r>  0.0017  0.0072  0.0027 </r>
       </set>
       <set comment="band 15">
        <r>  0.0005  0.0223  0.0073 </r>
        <r>  0.0005  0.0223  0.0074 </r>
       </set>
       <set comment="band 16">
        <r>  0.0019  0.0016  0.0036 </r>
        <r>  0.0017  0.0018  0.0035 </r>
       </set>
      </set>
      <set comment="kpoint 14">
       <set comment="band 1">
        <r>  0.2705  0.0170  0.0008 </r>
        <r>  0.2705  0.0170  0.0008 </r>
       </set>
       <set comment="band 2">
        <r>  0.3310  0.0157  0.0028 </r>
        <r>  0.3310  0.0157  0.0028 </r>
       </set>
       <set comment="band 3">
        <r>  0.0002  0.2032  0.0073 </r>
        <r>  0.0002  0.2032  0.0073 </r>
       </set>
       <set comment="band 4">
        <r>  0.0094  0.2234  0.0106 </r>
        <r>  0.0094  0.2234  0.0106 </r>
       </set>
       <set comment="band 5">
        <r>  0.0190  0.2213  0.0014 </r>
        <r>  0.0190  0.2213  0.0014 </r>
       </set>
       <set comment="band 6">
        <r>  0.0304  0.1856  0.0120 </r>
        <r>  0.0304  0.1856  0.0120 </r>
       </set>
       <set comment="band 7">
        <r>  0.0298  0.2252  0.0132 </r>
        <r>  0.0298  0.2252  0.0132 </r>
       </set>
       <set comment="band 8">
        <r>  0.0353  0.2195  0.0101 </r>
        <r>  0.0353  0.2195  0.0101 </r>
       </set>
       <set comment="band 9">
        <r>  0.0000  0.0277  0.0104 </r>
        <r>  0.0000  0.0277  0.0104 </r>
       </set>
       <set comment="band 10">
        <r>  0.0006  0.0308  0.0117 </r>
        <r>  0.0006  0.0308  0.0117 </r>
       </set>
       <set comment="band 11">
        <r>  0.0003  0.0085  0.0082 </r>
        <r>  0.0003  0.0085  0.0082 </r>
       </set>
       <set comment="band 12">
        <r>  0.0008  0.0038  0.0041 </r>
        <r>  0.0008  0.0038  0.0041 </r>
       </set>
       <set comment="band 13">
        <r>  0.0001  0.0114  0.0463 </r>
        <r>  0.0001  0.0114  0.0464 </r>
       </set>
       <set comment="band 14">
        <r>  0.0010  0.0194  0.0201 </r>
        <r>  0.0010  0.0194  0.0201 </r>
       </set>
       <set comment="band 15">
        <r>  0.0032  0.0025  0.0099 </r>
        <r>  0.0032  0.0025  0.0099 </r>
       </set>
       <set comment="band 16">
        <r>  0.0041  0.0586  0.0888 </r>
        <r>  0.0041  0.0586  0.0888 </r>
       </set>
      </set>
      <set comment="kpoint 15">
       <set comment="band 1">
        <r>  0.2735  0.0198  0.0013 </r>
        <r>  0.2735  0.0198  0.0013 </r>
       </set>
       <set comment="band 2">
        <r>  0.3276  0.0202  0.0036 </r>
        <r>  0.3276  0.0202  0.0036 </r>
       </set>
       <set comment="band 3">
        <r>  0.0086  0.1924  0.0050 </r>
        <r>  0.0086  0.1924  0.0050 </r>
       </set>
       <set comment="band 4">
        <r>  0.0095  0.2117  0.0091 </r>
        <r>  0.0095  0.2117  0.0091 </r>
       </set>
       <set comment="band 5">
        <r>  0.0286  0.2250  0.0012 </r>
        <r>  0.0286  0.2250  0.0012 </r>
       </set>
       <set comment="band 6">
        <r>  0.0257  0.1714  0.0141 </r>
        <r>  0.0257  0.1714  0.0141 </r>
       </set>
       <set comment="band 7">
        <r>  0.0103  0.2162  0.0143 </r>
        <r>  0.0103  0.2162  0.0143 </r>
       </set>
       <set comment="band 8">
        <r>  0.0376  0.2040  0.0175 </r>
        <r>  0.0376  0.2040  0.0175 </r>
       </set>
       <set comment="band 9">
        <r>  0.0026  0.0133  0.0125 </r>
        <r>  0.0026  0.0133  0.0125 </r>
       </set>
       <set comment="band 10">
        <r>  0.0003  0.0532  0.0168 </r>
        <r>  0.0003  0.0532  0.0168 </r>
       </set>
       <set comment="band 11">
        <r>  0.0002  0.0125  0.0136 </r>
        <r>  0.0002  0.0125  0.0136 </r>
       </set>
       <set comment="band 12">
        <r>  0.0018  0.0096  0.0204 </r>
        <r>  0.0018  0.0096  0.0204 </r>
       </set>
       <set comment="band 13">
        <r>  0.0002  0.0156  0.0166 </r>
        <r>  0.0002  0.0156  0.0166 </r>
       </set>
       <set comment="band 14">
        <r>  0.0020  0.0248  0.0150 </r>
        <r>  0.0020  0.0248  0.0150 </r>
       </set>
       <set comment="band 15">
        <r>  0.0026  0.0318  0.0829 </r>
        <r>  0.0026  0.0318  0.0829 </r>
       </set>
       <set comment="band 16">
        <r>  0.0036  0.0056  0.0075 </r>
        <r>  0.0036  0.0056  0.0075 </r>
       </set>
      </set>
      <set comment="kpoint 16">
       <set comment="band 1">
        <r>  0.2792  0.0220  0.0019 </r>
        <r>  0.2792  0.0220  0.0019 </r>
       </set>
       <set comment="band 2">
        <r>  0.3094  0.0274  0.0037 </r>
        <r>  0.3094  0.0274  0.0037 </r>
       </set>
       <set comment="band 3">
        <r>  0.0298  0.1822  0.0044 </r>
        <r>  0.0298  0.1822  0.0044 </r>
       </set>
       <set comment="band 4">
        <r>  0.0078  0.2074  0.0069 </r>
        <r>  0.0078  0.2074  0.0069 </r>
       </set>
       <set comment="band 5">
        <r>  0.0356  0.2162  0.0015 </r>
        <r>  0.0356  0.2162  0.0015 </r>
       </set>
       <set comment="band 6">
        <r>  0.0144  0.1734  0.0162 </r>
        <r>  0.0144  0.1734  0.0162 </r>
       </set>
       <set comment="band 7">
        <r>  0.0116  0.1991  0.0174 </r>
        <r>  0.0116  0.1991  0.0174 </r>
       </set>
       <set comment="band 8">
        <r>  0.0289  0.1920  0.0206 </r>
        <r>  0.0289  0.1920  0.0206 </r>
       </set>
       <set comment="band 9">
        <r>  0.0001  0.0568  0.0463 </r>
        <r>  0.0001  0.0568  0.0463 </r>
       </set>
       <set comment="band 10">
        <r>  0.0049  0.0125  0.0063 </r>
        <r>  0.0049  0.0125  0.0063 </r>
       </set>
       <set comment="band 11">
        <r>  0.0001  0.0097  0.0122 </r>
        <r>  0.0001  0.0097  0.0122 </r>
       </set>
       <set comment="band 12">
        <r>  0.0003  0.0157  0.0114 </r>
        <r>  0.0003  0.0157  0.0114 </r>
       </set>
       <set comment="band 13">
        <r>  0.0026  0.0048  0.0026 </r>
        <r>  0.0026  0.0048  0.0026 </r>
       </set>
       <set comment="band 14">
        <r>  0.0033  0.0597  0.0646 </r>
        <r>  0.0033  0.0597  0.0646 </r>
       </set>
       <set comment="band 15">
        <r>  0.0011  0.0314  0.0129 </r>
        <r>  0.0011  0.0314  0.0129 </r>
       </set>
       <set comment="band 16">
        <r>  0.0035  0.0072  0.0079 </r>
        <r>  0.0035  0.0072  0.0079 </r>
       </set>
      </set>
      <set comment="kpoint 17">
       <set comment="band 1">
        <r>  0.2886  0.0222  0.0026 </r>
        <r>  0.2886  0.0222  0.0026 </r>
       </set>
       <set comment="band 2">
        <r>  0.2899  0.0329  0.0033 </r>
        <r>  0.2899  0.0329  0.0033 </r>
       </set>
       <set comment="band 3">
        <r>  0.0373  0.1796  0.0046 </r>
        <r>  0.0373  0.1796  0.0046 </r>
       </set>
       <set comment="band 4">
        <r>  0.0161  0.2079  0.0054 </r>
        <r>  0.0161  0.2079  0.0054 </r>
       </set>
       <set comment="band 5">
        <r>  0.0367  0.2021  0.0017 </r>
        <r>  0.0367  0.2021  0.0017 </r>
       </set>
       <set comment="band 6">
        <r>  0.0023  0.1803  0.0175 </r>
        <r>  0.0023  0.1803  0.0175 </r>
       </set>
       <set comment="band 7">
        <r>  0.0286  0.1910  0.0215 </r>
        <r>  0.0286  0.1910  0.0215 </r>
       </set>
       <set comment="band 8">
        <r>  0.0155  0.1940  0.0169 </r>
        <r>  0.0155  0.1940  0.0169 </r>
       </set>
       <set comment="band 9">
        <r>  0.0005  0.0218  0.0598 </r>
        <r>  0.0005  0.0218  0.0598 </r>
       </set>
       <set comment="band 10">
        <r>  0.0059  0.0114  0.0091 </r>
        <r>  0.0059  0.0114  0.0091 </r>
       </set>
       <set comment="band 11">
        <r>  0.0003  0.0297  0.0082 </r>
        <r>  0.0003  0.0297  0.0082 </r>
       </set>
       <set comment="band 12">
        <r>  0.0003  0.0166  0.0060 </r>
        <r>  0.0003  0.0167  0.0060 </r>
       </set>
       <set comment="band 13">
        <r>  0.0054  0.0379  0.0252 </r>
        <r>  0.0054  0.0379  0.0252 </r>
       </set>
       <set comment="band 14">
        <r>  0.0015  0.0410  0.0090 </r>
        <r>  0.0015  0.0410  0.0090 </r>
       </set>
       <set comment="band 15">
        <r>  0.0017  0.0075  0.0035 </r>
        <r>  0.0017  0.0075  0.0035 </r>
       </set>
       <set comment="band 16">
        <r>  0.0007  0.0251  0.0155 </r>
        <r>  0.0007  0.0251  0.0155 </r>
       </set>
      </set>
      <set comment="kpoint 18">
       <set comment="band 1">
        <r>  0.2779  0.0222  0.0018 </r>
        <r>  0.2779  0.0222  0.0018 </r>
       </set>
       <set comment="band 2">
        <r>  0.3180  0.0243  0.0039 </r>
        <r>  0.3180  0.0243  0.0039 </r>
       </set>
       <set comment="band 3">
        <r>  0.0104  0.1976  0.0078 </r>
        <r>  0.0104  0.1976  0.0078 </r>
       </set>
       <set comment="band 4">
        <r>  0.0192  0.1894  0.0036 </r>
        <r>  0.0192  0.1894  0.0036 </r>
       </set>
       <set comment="band 5">
        <r>  0.0354  0.2208  0.0014 </r>
        <r>  0.0354  0.2208  0.0014 </r>
       </set>
       <set comment="band 6">
        <r>  0.0039  0.1914  0.0160 </r>
        <r>  0.0039  0.1914  0.0160 </r>
       </set>
       <set comment="band 7">
        <r>  0.0203  0.1647  0.0151 </r>
        <r>  0.0203  0.1647  0.0151 </r>
       </set>
       <set comment="band 8">
        <r>  0.0385  0.2383  0.0111 </r>
        <r>  0.0385  0.2383  0.0111 </r>
       </set>
       <set comment="band 9">
        <r>  0.0002  0.0571  0.0445 </r>
        <r>  0.0002  0.0571  0.0445 </r>
       </set>
       <set comment="band 10">
        <r>  0.0029  0.0169  0.0053 </r>
        <r>  0.0029  0.0169  0.0053 </r>
       </set>
       <set comment="band 11">
        <r>  0.0002  0.0110  0.0222 </r>
        <r>  0.0002  0.0110  0.0222 </r>
       </set>
       <set comment="band 12">
        <r>  0.0003  0.0168  0.0191 </r>
        <r>  0.0003  0.0168  0.0191 </r>
       </set>
       <set comment="band 13">
        <r>  0.0028  0.0092  0.0061 </r>
        <r>  0.0028  0.0092  0.0061 </r>
       </set>
       <set comment="band 14">
        <r>  0.0014  0.0202  0.0784 </r>
        <r>  0.0014  0.0202  0.0784 </r>
       </set>
       <set comment="band 15">
        <r>  0.0002  0.0266  0.0179 </r>
        <r>  0.0002  0.0266  0.0179 </r>
       </set>
       <set comment="band 16">
        <r>  0.0035  0.0058  0.0070 </r>
        <r>  0.0035  0.0058  0.0070 </r>
       </set>
      </set>
      <set comment="kpoint 19">
       <set comment="band 1">
        <r>  0.2852  0.0237  0.0024 </r>
        <r>  0.2852  0.0237  0.0024 </r>
       </set>
       <set comment="band 2">
        <r>  0.3045  0.0277  0.0037 </r>
        <r>  0.3045  0.0277  0.0037 </r>
       </set>
       <set comment="band 3">
        <r>  0.0105  0.1902  0.0067 </r>
        <r>  0.0105  0.1902  0.0067 </r>
       </set>
       <set comment="band 4">
        <r>  0.0301  0.1913  0.0031 </r>
        <r>  0.0301  0.1913  0.0031 </r>
       </set>
       <set comment="band 5">
        <r>  0.0396  0.2100  0.0018 </r>
        <r>  0.0396  0.2100  0.0018 </r>
       </set>
       <set comment="band 6">
        <r>  0.0014  0.1761  0.0163 </r>
        <r>  0.0014  0.1761  0.0163 </r>
       </set>
       <set comment="band 7">
        <r>  0.0181  0.1749  0.0161 </r>
        <r>  0.0181  0.1749  0.0161 </r>
       </set>
       <set comment="band 8">
        <r>  0.0298  0.2269  0.0130 </r>
        <r>  0.0298  0.2269  0.0130 </r>
       </set>
       <set comment="band 9">
        <r>  0.0023  0.0469  0.0599 </r>
        <r>  0.0023  0.0469  0.0599 </r>
       </set>
       <set comment="band 10">
        <r>  0.0050  0.0165  0.0105 </r>
        <r>  0.0050  0.0165  0.0105 </r>
       </set>
       <set comment="band 11">
        <r>  0.0000  0.0325  0.0287 </r>
        <r>  0.0000  0.0325  0.0287 </r>
       </set>
       <set comment="band 12">
        <r>  0.0020  0.0372  0.0461 </r>
        <r>  0.0020  0.0372  0.0461 </r>
       </set>
       <set comment="band 13">
        <r>  0.0009  0.0257  0.0183 </r>
        <r>  0.0009  0.0257  0.0183 </r>
       </set>
       <set comment="band 14">
        <r>  0.0011  0.0041  0.0048 </r>
        <r>  0.0011  0.0041  0.0048 </r>
       </set>
       <set comment="band 15">
        <r>  0.0009  0.0150  0.0271 </r>
        <r>  0.0008  0.0150  0.0271 </r>
       </set>
       <set comment="band 16">
        <r>  0.0043  0.0160  0.0068 </r>
        <r>  0.0043  0.0160  0.0068 </r>
       </set>
      </set>
      <set comment="kpoint 20">
       <set comment="band 1">
        <r>  0.2925  0.0235  0.0029 </r>
        <r>  0.2925  0.0235  0.0029 </r>
       </set>
       <set comment="band 2">
        <r>  0.2944  0.0297  0.0033 </r>
        <r>  0.2944  0.0297  0.0033 </r>
       </set>
       <set comment="band 3">
        <r>  0.0110  0.1877  0.0063 </r>
        <r>  0.0110  0.1877  0.0063 </r>
       </set>
       <set comment="band 4">
        <r>  0.0350  0.1967  0.0030 </r>
        <r>  0.0350  0.1967  0.0030 </r>
       </set>
       <set comment="band 5">
        <r>  0.0399  0.2009  0.0019 </r>
        <r>  0.0399  0.2009  0.0019 </r>
       </set>
       <set comment="band 6">
        <r>  0.0004  0.1721  0.0163 </r>
        <r>  0.0004  0.1721  0.0163 </r>
       </set>
       <set comment="band 7">
        <r>  0.0158  0.1850  0.0159 </r>
        <r>  0.0158  0.1850  0.0159 </r>
       </set>
       <set comment="band 8">
        <r>  0.0279  0.2126  0.0151 </r>
        <r>  0.0279  0.2126  0.0151 </r>
       </set>
       <set comment="band 9">
        <r>  0.0039  0.0327  0.0658 </r>
        <r>  0.0039  0.0327  0.0658 </r>
       </set>
       <set comment="band 10">
        <r>  0.0009  0.0355  0.0477 </r>
        <r>  0.0009  0.0355  0.0477 </r>
       </set>
       <set comment="band 11">
        <r>  0.0041  0.0078  0.0110 </r>
        <r>  0.0041  0.0078  0.0110 </r>
       </set>
       <set comment="band 12">
        <r>  0.0049  0.0283  0.0025 </r>
        <r>  0.0049  0.0283  0.0025 </r>
       </set>
       <set comment="band 13">
        <r>  0.0000  0.0707  0.0126 </r>
        <r>  0.0000  0.0707  0.0126 </r>
       </set>
       <set comment="band 14">
        <r>  0.0000  0.0004  0.0038 </r>
        <r>  0.0000  0.0004  0.0038 </r>
       </set>
       <set comment="band 15">
        <r>  0.0001  0.0183  0.0061 </r>
        <r>  0.0001  0.0183  0.0061 </r>
       </set>
       <set comment="band 16">
        <r>  0.0019  0.0037  0.0045 </r>
        <r>  0.0019  0.0038  0.0045 </r>
       </set>
      </set>
      <set comment="kpoint 21">
       <set comment="band 1">
        <r>  0.2922  0.0252  0.0030 </r>
        <r>  0.2922  0.0252  0.0030 </r>
       </set>
       <set comment="band 2">
        <r>  0.2993  0.0268  0.0034 </r>
        <r>  0.2993  0.0268  0.0034 </r>
       </set>
       <set comment="band 3">
        <r>  0.0016  0.1894  0.0065 </r>
        <r>  0.0016  0.1894  0.0065 </r>
       </set>
       <set comment="band 4">
        <r>  0.0397  0.1942  0.0024 </r>
        <r>  0.0397  0.1942  0.0024 </r>
       </set>
       <set comment="band 5">
        <r>  0.0420  0.2024  0.0020 </r>
        <r>  0.0420  0.2024  0.0020 </r>
       </set>
       <set comment="band 6">
        <r>  0.0003  0.1653  0.0159 </r>
        <r>  0.0003  0.1653  0.0159 </r>
       </set>
       <set comment="band 7">
        <r>  0.0178  0.1874  0.0154 </r>
        <r>  0.0178  0.1874  0.0154 </r>
       </set>
       <set comment="band 8">
        <r>  0.0233  0.2157  0.0126 </r>
        <r>  0.0233  0.2157  0.0126 </r>
       </set>
       <set comment="band 9">
        <r>  0.0000  0.0209  0.0501 </r>
        <r>  0.0000  0.0209  0.0501 </r>
       </set>
       <set comment="band 10">
        <r>  0.0116  0.0591  0.0373 </r>
        <r>  0.0116  0.0591  0.0373 </r>
       </set>
       <set comment="band 11">
        <r>  0.0037  0.0826  0.0536 </r>
        <r>  0.0037  0.0826  0.0536 </r>
       </set>
       <set comment="band 12">
        <r>  0.0001  0.0272  0.0289 </r>
        <r>  0.0001  0.0272  0.0289 </r>
       </set>
       <set comment="band 13">
        <r>  0.0011  0.0040  0.0061 </r>
        <r>  0.0011  0.0040  0.0061 </r>
       </set>
       <set comment="band 14">
        <r>  0.0055  0.0174  0.0163 </r>
        <r>  0.0055  0.0174  0.0163 </r>
       </set>
       <set comment="band 15">
        <r>  0.0000  0.0355  0.0305 </r>
        <r>  0.0000  0.0355  0.0305 </r>
       </set>
       <set comment="band 16">
        <r>  0.0009  0.0205  0.0061 </r>
        <r>  0.0009  0.0205  0.0061 </r>
       </set>
      </set>
     </set>
    </set>
   </array>
  </projected>
 </calculation>
 <structure name="finalpos" >
  <crystal>
   <varray name="basis" >
    <v>       3.60689259       0.00000000       0.00000000 </v>
    <v>      -1.80344629       3.12366061       0.00000000 </v>
    <v>       0.00000000       0.00000000      24.00000000 </v>
   </varray>
   <i name="volume">    270.40099890 </i>
   <varray name="rec_basis" >
    <v>       0.27724696       0.16006861       0.00000000 </v>
    <v>       0.00000000       0.32013721       0.00000000 </v>
    <v>       0.00000000       0.00000000       0.04166667 </v>
   </varray>
  </crystal>
  <varray name="positions" >
   <v>       0.66666669       0.33333334       0.30422876 </v>
   <v>       0.33333334       0.66666669       0.36243792 </v>
  </varray>
 </structure>
</modeling>
