unknown system                          
           1
     3.606893    0.000000    0.000000
    -1.803446    3.123661    0.000000
     0.000000    0.000000   24.000000
   As
     2
Direct configuration=     1
   0.66666669  0.33333334  0.30422876
   0.33333334  0.66666669  0.36243792
